BUMPy system
67128
    1BOLB   NC1    1  11.638   6.082  25.716  0.2486  0.1453  0.3712
    1BOLB   PO1    2  11.857   6.065  25.321 -0.2434  0.2324 -0.2105
    1BOLB   GL1    3  11.830   6.426  25.092 -0.0718 -0.1226 -0.0218
    1BOLB   GL2    4  11.734   6.343  24.860 -0.0293 -0.2273 -0.0275
    1BOLB   C1A    5  11.801   6.880  25.062  0.0587  0.1587  0.1259
    1BOLB   C2A    6  11.515   7.229  25.153 -0.2163  0.0149  0.2702
    1BOLB   C3A    7  11.108   7.394  25.338  0.2409 -0.3458 -0.2009
    1BOLB   C4A    8  10.969   7.646  25.198 -0.0724 -0.0929 -0.1648
    1BOLB   C1B    9  11.922   6.704  24.639 -0.2320  0.1308  0.1267
    1BOLB   C2B   10  12.334   7.012  24.668  0.1995  0.0733 -0.5007
    1BOLB   C3B   11  12.373   7.494  24.513 -0.2460  0.1024  0.0035
    1BOLB   C4B   12  12.310   7.891  24.231 -0.1244  0.0670 -0.3029
    1BOLB   NC2   13   9.286   7.655  25.359  0.2000  0.1840 -0.1974
    1BOLB   PO2   14   8.931   7.911  25.543 -0.0932  0.0697  0.0464
    1BOLB   GL3   15   9.089   8.302  25.374  0.3438  0.0525 -0.1532
    1BOLB   GL4   16   8.920   8.507  25.604 -0.1603 -0.1250  0.1657
    1BOLB   C1C   17   9.498   8.554  25.350  0.0649 -0.0174 -0.2977
    1BOLB   C2C   18   9.837   8.463  25.092 -0.1289  0.2859 -0.0439
    1BOLB   C3C   19  10.195   8.202  25.038  0.1632  0.2526  0.1792
    1BOLB   C4C   20  10.586   7.880  25.106 -0.0379  0.1154  0.2879
    1BOLB   C1D   21   9.311   8.749  25.841  0.1237 -0.1829 -0.0029
    1BOLB   C2D   22   9.590   9.130  25.593  0.3275 -0.2188  0.1048
    1BOLB   C3D   23   9.713   9.564  25.410 -0.0631 -0.1091  0.0980
    1BOLB   C4D   24   9.507   9.938  25.397 -0.0162 -0.2698 -0.2497
    2BOLB   NC1   25   9.174  20.977  21.920  0.0684 -0.1799 -0.2425
    2BOLB   PO1   26   9.212  20.792  22.423  0.0915  0.1244 -0.0470
    2BOLB   GL1   27   8.965  20.893  22.635  0.0448 -0.0032 -0.2963
    2BOLB   GL2   28   9.039  21.282  22.644  0.2402 -0.0105 -0.1291
    2BOLB   C1A   29   8.817  20.987  23.083 -0.3235 -0.0223  0.1771
    2BOLB   C2A   30   8.734  21.114  23.483 -0.2269 -0.1517 -0.2375
    2BOLB   C3A   31   8.744  21.305  23.842  0.7156 -0.1283  0.1815
    2BOLB   C4A   32   8.755  21.313  24.244  0.0206 -0.2126 -0.2483
    2BOLB   C1B   33   8.795  21.727  22.906 -0.2096  0.0879 -0.4231
    2BOLB   C2B   34   8.505  22.063  22.910  0.0656  0.0625  0.3382
    2BOLB   C3B   35   8.110  22.128  22.747 -0.0156 -0.2156  0.1700
    2BOLB   C4B   36   7.883  21.945  22.395  0.0550  0.2494  0.0575
    2BOLB   NC2   37   8.086  20.985  26.183 -0.2292 -0.1782 -0.2653
    2BOLB   PO2   38   7.652  20.798  26.231  0.2227 -0.0738 -0.0605
    2BOLB   GL3   39   7.704  20.582  25.825 -0.0948  0.0343  0.1012
    2BOLB   GL4   40   7.650  20.888  25.670 -0.0251  0.1273  0.0640
    2BOLB   C1C   41   8.064  20.602  25.564  0.1726  0.0228 -0.1627
    2BOLB   C2C   42   8.375  20.877  25.457  0.0745  0.0562 -0.1276
    2BOLB   C3C   43   8.451  21.228  25.172  0.1639  0.0107  0.2208
    2BOLB   C4C   44   8.608  21.239  24.690 -0.2084 -0.0149  0.0254
    2BOLB   C1D   45   7.917  21.021  25.303  0.0082 -0.2329 -0.4362
    2BOLB   C2D   46   7.997  21.289  24.952 -0.0540  0.2979 -0.0321
    2BOLB   C3D   47   8.060  21.323  24.545  0.1253  0.0384  0.0927
    2BOLB   C4D   48   8.123  21.268  24.097  0.1048  0.0901 -0.1566
    3BOLB   NC1   49   9.338  26.818  22.596  0.5299  0.1715 -0.0012
    3BOLB   PO1   50   9.162  26.507  22.244 -0.1775 -0.2509 -0.0685
    3BOLB   GL1   51   9.516  26.299  22.157 -0.2955 -0.2356 -0.0366
    3BOLB   GL2   52   9.741  26.511  22.421 -0.1000 -0.0935 -0.1057
    3BOLB   C1A   53   9.940  26.112  22.094  0.0710  0.0134  0.1291
    3BOLB   C2A   54  10.130  25.803  22.315  0.0084  0.0821 -0.1773
    3BOLB   C3A   55  10.426  25.790  22.572 -0.3101  0.0559  0.3342
    3BOLB   C4A   56  10.361  25.505  22.971  0.1757  0.3352 -0.1136
    3BOLB   C1B   57   9.819  26.113  22.562 -0.3227 -0.4600  0.3818
    3BOLB   C2B   58   9.686  25.697  22.512 -0.1678  0.1237  0.1856
    3BOLB   C3B   59   9.464  25.324  22.714 -0.0494  0.4264  0.5261
    3BOLB   C4B   60   9.413  25.053  23.050 -0.0664 -0.0701  0.1339
    3BOLB   NC2   61   9.709  25.859  25.177  0.0725  0.0797 -0.0023
    3BOLB   PO2   62   9.776  25.414  25.320 -0.0958 -0.1522  0.1565
    3BOLB   GL3   63   9.970  25.133  25.057  0.1813  0.1810 -0.3267
    3BOLB   GL4   64   9.696  25.156  24.819 -0.0177  0.2677 -0.0101
    3BOLB   C1C   65  10.140  25.277  24.561 -0.1450 -0.1315 -0.2232
    3BOLB   C2C   66  10.161  25.251  24.066  0.4049  0.0509 -0.1432
    3BOLB   C3C   67  10.246  25.423  23.702 -0.1821  0.2094 -0.0070
    3BOLB   C4C   68  10.150  25.407  23.386  0.2037 -0.2425  0.3485
    3BOLB   C1D   69   9.803  24.701  24.696  0.0430  0.1133  0.3973
    3BOLB   C2D   70  10.041  24.372  24.548 -0.4656 -0.0158 -0.0256
    3BOLB   C3D   71   9.897  23.926  24.384  0.3529  0.2866 -0.0414
    3BOLB   C4D   72   9.589  23.658  24.341 -0.2341  0.2250  0.2754
    4BOLB   NC1   73   9.056  19.005  22.419  0.2179  0.0871 -0.1312
    4BOLB   PO1   74   8.703  19.020  22.699  0.3917 -0.2345 -0.2018
    4BOLB   GL1   75   8.336  19.113  22.789  0.0319 -0.0906 -0.0816
    4BOLB   GL2   76   8.160  19.370  22.533 -0.0597 -0.0994  0.1233
    4BOLB   C1A   77   8.106  19.247  23.001  0.1526 -0.2819 -0.1621
    4BOLB   C2A   78   7.745  19.375  23.348  0.0324  0.2353  0.1312
    4BOLB   C3A   79   7.609  19.592  23.619  0.4688  0.0723 -0.1779
    4BOLB   C4A   80   7.411  19.963  23.499  0.0966  0.0267 -0.0666
    4BOLB   C1B   81   7.750  19.437  22.704 -0.2650  0.1104  0.0918
    4BOLB   C2B   82   7.392  19.596  22.532  0.2368 -0.2862 -0.1523
    4BOLB   C3B   83   7.168  19.936  22.810  0.2242 -0.0597  0.1245
    4BOLB   C4B   84   7.227  20.191  23.027 -0.0586 -0.0199  0.1223
    4BOLB   NC2   85   5.308  20.794  24.969  0.0199  0.2043 -0.0330
    4BOLB   PO2   86   5.588  20.530  24.966 -0.1741  0.0971  0.3466
    4BOLB   GL3   87   5.833  20.532  24.663  0.0169 -0.0934  0.3368
    4BOLB   GL4   88   5.855  20.571  24.367 -0.1084 -0.1813 -0.0340
    4BOLB   C1C   89   6.264  20.533  24.664  0.6427 -0.1281 -0.0089
    4BOLB   C2C   90   6.657  20.474  24.495 -0.1646  0.1117  0.1548
    4BOLB   C3C   91   6.989  20.304  24.172  0.0749  0.5581 -0.3108
    4BOLB   C4C   92   7.258  20.216  23.876 -0.0365 -0.1024  0.0559
    4BOLB   C1D   93   5.979  20.332  23.921  0.1834 -0.0684 -0.0947
    4BOLB   C2D   94   6.010  19.869  23.869  0.0028 -0.0641 -0.0748
    4BOLB   C3D   95   6.368  19.708  24.210  0.0729  0.1943  0.2842
    4BOLB   C4D   96   6.595  20.005  24.426 -0.0276  0.1017  0.3778
    5BOLB   NC1   97   8.776  23.331  21.898 -0.0325 -0.1023 -0.1164
    5BOLB   PO1   98   8.655  23.730  22.139 -0.1236 -0.1219  0.0112
    5BOLB   GL1   99   9.035  23.900  22.488 -0.0878 -0.1055 -0.0684
    5BOLB   GL2  100   9.147  23.588  22.502  0.2581 -0.1289  0.0914
    5BOLB   C1A  101   9.291  23.835  22.890  0.0681 -0.1312 -0.0911
    5BOLB   C2A  102   9.438  23.792  23.387  0.0901 -0.3049 -0.2879
    5BOLB   C3A  103   9.638  23.699  23.848  0.0413 -0.0578  0.1767
    5BOLB   C4A  104  10.139  23.775  23.978  0.0784  0.1901  0.1526
    5BOLB   C1B  105   9.152  23.235  22.820 -0.0922  0.1748 -0.1928
    5BOLB   C2B  106   9.275  23.006  23.195  0.1302 -0.2115 -0.0362
    5BOLB   C3B  107   9.541  22.894  23.600  0.1511 -0.1248 -0.0486
    5BOLB   C4B  108   9.792  23.057  23.963  0.1689  0.0780  0.1036
    5BOLB   NC2  109   9.347  25.147  25.539 -0.1825  0.1540  0.1882
    5BOLB   PO2  110   9.480  24.907  25.225 -0.2379  0.3059 -0.0875
    5BOLB   GL3  111   9.418  24.461  25.297 -0.1815 -0.1493 -0.2075
    5BOLB   GL4  112   9.319  24.192  25.503  0.0948 -0.1133  0.0196
    5BOLB   C1C  113   9.674  24.136  25.078 -0.1044  0.0462 -0.2804
    5BOLB   C2C  114   9.870  23.821  25.013 -0.1463  0.1355  0.0750
    5BOLB   C3C  115  10.268  23.748  24.668 -0.2129 -0.1043  0.4508
    5BOLB   C4C  116  10.394  23.733  24.291 -0.2721  0.0833 -0.1385
    5BOLB   C1D  117   9.615  23.846  25.592 -0.0350  0.1768 -0.0660
    5BOLB   C2D  118   9.924  23.603  25.527  0.2050  0.2259 -0.1734
    5BOLB   C3D  119   9.979  23.172  25.490  0.1548 -0.2113 -0.1745
    5BOLB   C4D  120  10.085  22.941  25.074 -0.2486  0.0655  0.1120
    6BOLB   NC1  121   8.138  19.247  22.016 -0.1900  0.0342  0.2524
    6BOLB   PO1  122   7.862  18.981  22.164  0.0698 -0.1552  0.4401
    6BOLB   GL1  123   7.571  19.125  22.323  0.2217  0.1457 -0.2159
    6BOLB   GL2  124   7.379  19.340  22.121 -0.1812 -0.2885  0.0890
    6BOLB   C1A  125   7.242  19.076  22.559  0.2081 -0.2164  0.1429
    6BOLB   C2A  126   6.768  19.078  22.768  0.0518 -0.0606 -0.2246
    6BOLB   C3A  127   6.584  18.928  23.110  0.0285 -0.0432  0.2989
    6BOLB   C4A  128   6.285  18.842  23.362 -0.0966  0.0377  0.1670
    6BOLB   C1B  129   7.075  19.697  22.124 -0.1250  0.2727  0.2096
    6BOLB   C2B  130   6.628  19.929  22.235 -0.0940  0.1561  0.2825
    6BOLB   C3B  131   6.658  20.466  22.140 -0.0476 -0.0333 -0.2814
    6BOLB   C4B  132   6.320  20.686  21.997 -0.0128 -0.2746 -0.0615
    6BOLB   NC2  133   5.321  18.985  25.358  0.1238  0.2379  0.2899
    6BOLB   PO2  134   5.341  18.733  25.650 -0.0735  0.0481 -0.2094
    6BOLB   GL3  135   5.652  18.685  25.334  0.1148  0.1402  0.0654
    6BOLB   GL4  136   5.982  18.402  25.365  0.0123  0.2747  0.0837
    6BOLB   C1C  137   5.777  18.784  24.888  0.0314 -0.1493  0.0327
    6BOLB   C2C  138   5.778  18.925  24.483  0.1816 -0.0266  0.3030
    6BOLB   C3C  139   5.992  18.617  24.178 -0.1977 -0.0075  0.0713
    6BOLB   C4C  140   6.194  18.626  23.778 -0.1350 -0.2659 -0.1727
    6BOLB   C1D  141   6.364  18.347  25.079  0.2896  0.0769  0.1334
    6BOLB   C2D  142   6.810  18.421  25.086  0.1617  0.0930  0.0818
    6BOLB   C3D  143   7.128  18.571  24.873 -0.1986  0.0956 -0.2902
    6BOLB   C4D  144   7.242  18.550  24.535 -0.1571 -0.0499 -0.0358
    7BOLB   NC1  145   8.271  17.266  22.651  0.0916  0.0817 -0.0902
    7BOLB   PO1  146   8.265  16.885  22.899 -0.1181  0.6322  0.1039
    7BOLB   GL1  147   8.013  16.816  23.069  0.1201  0.0257 -0.1571
    7BOLB   GL2  148   7.756  17.034  23.025 -0.0071 -0.3054 -0.1000
    7BOLB   C1A  149   7.972  16.992  23.664  0.0563  0.0889  0.1563
    7BOLB   C2A  150   7.617  16.946  23.969 -0.2183 -0.0214  0.4138
    7BOLB   C3A  151   7.182  17.108  24.285 -0.1464  0.0602 -0.1958
    7BOLB   C4A  152   6.811  17.128  24.480  0.0943  0.0123  0.0394
    7BOLB   C1B  153   7.524  17.134  23.406 -0.0629 -0.3726 -0.4155
    7BOLB   C2B  154   7.168  17.110  23.744  0.3925  0.0102  0.0437
    7BOLB   C3B  155   6.651  16.950  23.753  0.2583 -0.2818  0.1836
    7BOLB   C4B  156   6.244  16.973  23.843  0.0150 -0.2255 -0.1088
    7BOLB   NC2  157   4.630  18.316  25.648  0.0277 -0.0622 -0.1831
    7BOLB   PO2  158   4.886  18.587  25.381 -0.0779  0.0152  0.2241
    7BOLB   GL3  159   5.277  18.397  25.202  0.0807 -0.0419  0.2296
    7BOLB   GL4  160   5.205  18.574  25.024 -0.1223 -0.1134 -0.1752
    7BOLB   C1C  161   5.572  18.043  25.106  0.1860  0.2732 -0.1326
    7BOLB   C2C  162   5.809  17.878  24.842  0.0935 -0.0646 -0.3288
    7BOLB   C3C  163   6.080  17.481  24.850  0.0415 -0.0496  0.2907
    7BOLB   C4C  164   6.503  17.406  24.600 -0.2912  0.1504  0.0080
    7BOLB   C1D  165   5.326  18.685  24.561  0.1260  0.2900  0.1618
    7BOLB   C2D  166   5.414  18.551  24.233 -0.1098 -0.3186  0.0843
    7BOLB   C3D  167   5.725  18.329  23.957 -0.2512  0.0588 -0.2566
    7BOLB   C4D  168   6.121  18.134  23.994 -0.0132  0.0476  0.2140
    8BOLB   NC1  169   5.312  14.998  20.296  0.1258 -0.1907 -0.1836
    8BOLB   PO1  170   4.938  14.958  20.210 -0.3051 -0.0311  0.0202
    8BOLB   GL1  171   4.871  15.302  20.288  0.0991 -0.3410  0.3561
    8BOLB   GL2  172   5.013  15.659  20.193  0.0053  0.3885 -0.2126
    8BOLB   C1A  173   4.572  15.536  20.419  0.2195 -0.1829 -0.0220
    8BOLB   C2A  174   4.430  15.995  20.628  0.1312 -0.2306  0.2779
    8BOLB   C3A  175   4.259  16.425  20.521 -0.1385  0.3168 -0.0163
    8BOLB   C4A  176   3.926  16.718  20.487  0.2056 -0.1952  0.0278
    8BOLB   C1B  177   4.952  16.086  20.535 -0.0810 -0.3449  0.2753
    8BOLB   C2B  178   4.709  16.576  20.672  0.0514 -0.3323 -0.1337
    8BOLB   C3B  179   4.299  16.851  20.875 -0.0352  0.0131  0.1441
    8BOLB   C4B  180   4.036  17.319  20.782  0.3324  0.4439 -0.2466
    8BOLB   NC2  181   1.559  16.372  21.090 -0.2796  0.1237  0.0390
    8BOLB   PO2  182   1.996  16.522  21.292  0.0735 -0.1158 -0.2746
    8BOLB   GL3  183   2.357  16.249  21.263  0.1955  0.0835  0.2968
    8BOLB   GL4  184   2.355  15.982  21.377  0.2167  0.0323  0.0414
    8BOLB   C1C  185   2.853  16.331  21.466  0.3000 -0.1565  0.1589
    8BOLB   C2C  186   3.252  16.460  21.492  0.0805 -0.2010  0.1252
    8BOLB   C3C  187   3.489  16.549  21.106  0.2673 -0.4697 -0.0941
    8BOLB   C4C  188   3.715  16.783  20.853 -0.0226 -0.1617 -0.2275
    8BOLB   C1D  189   2.706  16.094  20.959 -0.2081  0.1706 -0.0856
    8BOLB   C2D  190   2.923  16.213  20.771  0.0793  0.1185 -0.1353
    8BOLB   C3D  191   3.189  16.405  20.476  0.0487  0.0146 -0.1594
    8BOLB   C4D  192   3.399  16.746  20.310 -0.3117  0.1692 -0.0957
    9BOLB   NC1  193   8.367  10.808  22.390  0.1195 -0.2732  0.2194
    9BOLB   PO1  194   8.617  10.865  22.684 -0.2494  0.2206 -0.0701
    9BOLB   GL1  195   8.556  11.007  23.174 -0.3243  0.3616 -0.1017
    9BOLB   GL2  196   8.862  11.164  23.372 -0.1063  0.2043 -0.0949
    9BOLB   C1A  197   8.345  11.136  23.571 -0.2068 -0.0820  0.0526
    9BOLB   C2A  198   8.517  11.103  23.946  0.2595 -0.0383  0.1092
    9BOLB   C3A  199   8.366  11.108  24.353  0.3827  0.1058  0.2718
    9BOLB   C4A  200   8.241  11.186  24.702 -0.0952 -0.0952  0.2718
    9BOLB   C1B  201   8.957  11.229  23.827 -0.0678  0.1353  0.0824
    9BOLB   C2B  202   8.742  11.403  24.284 -0.1230  0.0913  0.6405
    9BOLB   C3B  203   8.715  11.622  24.673  0.0955  0.1725 -0.2465
    9BOLB   C4B  204   8.644  12.032  24.808  0.1496  0.1220 -0.0956
    9BOLB   NC2  205   7.133  10.237  26.687  0.1323  0.2501 -0.0238
    9BOLB   PO2  206   7.354  10.592  26.807  0.3131 -0.0061 -0.1307
    9BOLB   GL3  207   7.494  10.800  26.478  0.1027 -0.0102 -0.0430
    9BOLB   GL4  208   7.862  10.720  26.348 -0.0881 -0.0778  0.2284
    9BOLB   C1C  209   7.589  11.146  26.232  0.2300 -0.0654 -0.3483
    9BOLB   C2C  210   7.722  11.278  25.786  0.3179  0.2279 -0.3532
    9BOLB   C3C  211   7.962  11.440  25.392 -0.0175  0.1031 -0.2502
    9BOLB   C4C  212   8.310  11.431  25.054  0.0217 -0.0630  0.1681
    9BOLB   C1D  213   8.384  10.704  26.408  0.3085 -0.3219  0.2747
    9BOLB   C2D  214   8.826  10.762  26.403  0.1349 -0.0331 -0.0862
    9BOLB   C3D  215   8.996  10.688  25.975  0.2028  0.1715 -0.0151
    9BOLB   C4D  216   9.210  10.702  25.679 -0.1135 -0.0977 -0.0652
   10BOLB   NC1  217   8.672  16.946  22.528  0.1993 -0.1184  0.2894
   10BOLB   PO1  218   8.736  16.641  22.873  0.2696  0.1855 -0.0741
   10BOLB   GL1  219   8.431  16.462  23.245 -0.2626  0.0771 -0.0915
   10BOLB   GL2  220   8.245  16.239  23.222  0.0483  0.0035 -0.1058
   10BOLB   C1A  221   8.282  16.558  23.606  0.0241 -0.1440  0.0534
   10BOLB   C2A  222   8.113  16.764  24.079 -0.2167 -0.1229 -0.0042
   10BOLB   C3A  223   7.939  17.070  24.396 -0.0775 -0.0375  0.1906
   10BOLB   C4A  224   7.724  17.307  24.742  0.1951 -0.1025 -0.3055
   10BOLB   C1B  225   8.021  16.136  23.661  0.0718 -0.1529  0.0694
   10BOLB   C2B  226   8.175  16.283  24.080  0.2094  0.2311  0.0909
   10BOLB   C3B  227   8.429  16.240  24.414 -0.0682  0.0134  0.1869
   10BOLB   C4B  228   8.675  16.410  24.673 -0.1487 -0.1604  0.1864
   10BOLB   NC2  229   7.020  18.714  26.533 -0.2798 -0.1702 -0.0364
   10BOLB   PO2  230   6.947  18.469  26.757 -0.0554 -0.2327 -0.1770
   10BOLB   GL3  231   7.065  18.232  26.450 -0.1184  0.2356 -0.2009
   10BOLB   GL4  232   7.142  17.943  26.473  0.1346  0.1277 -0.2740
   10BOLB   C1C  233   7.261  18.261  26.033 -0.0837 -0.1696 -0.0646
   10BOLB   C2C  234   7.495  18.035  25.683  0.1359 -0.0510 -0.1859
   10BOLB   C3C  235   7.378  17.775  25.445 -0.0662  0.2146 -0.0452
   10BOLB   C4C  236   7.539  17.509  25.090 -0.0623  0.5714 -0.0831
   10BOLB   C1D  237   7.086  17.796  26.065 -0.0575 -0.2528 -0.2473
   10BOLB   C2D  238   7.082  17.430  25.731 -0.1251  0.0377 -0.1403
   10BOLB   C3D  239   7.118  17.175  25.324 -0.0147 -0.0216  0.0725
   10BOLB   C4D  240   7.162  17.005  24.850 -0.0938  0.0720 -0.2341
   11BOLB   NC1  241   6.342  15.691  20.969  0.1379 -0.1639  0.0574
   11BOLB   PO1  242   6.065  15.371  21.045 -0.0746 -0.4413 -0.1745
   11BOLB   GL1  243   6.081  15.563  21.394  0.3037 -0.2119  0.0133
   11BOLB   GL2  244   6.356  15.386  21.516  0.0436 -0.0226 -0.0389
   11BOLB   C1A  245   6.105  15.749  21.833  0.1709 -0.0987 -0.2835
   11BOLB   C2A  246   6.027  15.653  22.353 -0.3563 -0.2715  0.0777
   11BOLB   C3A  247   5.850  15.453  22.758  0.1562 -0.0612  0.0630
   11BOLB   C4A  248   5.534  15.490  23.018 -0.0633 -0.3194  0.2962
   11BOLB   C1B  249   6.326  15.262  21.926  0.0088  0.4468 -0.0754
   11BOLB   C2B  250   6.048  15.143  22.246 -0.0966 -0.2149  0.1488
   11BOLB   C3B  251   5.923  14.962  22.656 -0.2864 -0.0706  0.1019
   11BOLB   C4B  252   5.621  14.998  22.967 -0.1202  0.1006  0.2568
   11BOLB   NC2  253   4.346  14.855  25.025 -0.2799 -0.2036  0.2749
   11BOLB   PO2  254   4.154  15.293  25.108  0.3917  0.0235 -0.1237
   11BOLB   GL3  255   4.281  15.298  24.634  0.4046 -0.2004 -0.1213
   11BOLB   GL4  256   4.217  15.575  24.500 -0.2202 -0.0403  0.2010
   11BOLB   C1C  257   4.734  15.303  24.563 -0.2867  0.2883  0.0765
   11BOLB   C2C  258   4.991  15.456  24.177  0.2411  0.0718 -0.0549
   11BOLB   C3C  259   5.127  15.413  23.826  0.1972  0.0684 -0.0693
   11BOLB   C4C  260   5.455  15.294  23.502  0.5499 -0.1147 -0.4149
   11BOLB   C1D  261   4.432  15.541  24.120  0.1229 -0.1555  0.2403
   11BOLB   C2D  262   4.628  15.641  23.749 -0.0658 -0.1909  0.4296
   11BOLB   C3D  263   4.737  15.435  23.394  0.1770  0.2189 -0.1318
   11BOLB   C4D  264   5.014  15.445  23.223 -0.1221  0.3208 -0.1100
   12BOLB   NC1  265   5.275  13.675  20.669  0.3940 -0.1575 -0.1876
   12BOLB   PO1  266   5.378  14.123  20.791 -0.3498 -0.0444  0.2044
   12BOLB   GL1  267   5.216  14.400  21.080  0.2446  0.0211 -0.0836
   12BOLB   GL2  268   5.377  14.703  21.258  0.0839 -0.0384  0.2189
   12BOLB   C1A  269   4.982  14.463  21.416 -0.0096  0.0706  0.0323
   12BOLB   C2A  270   4.976  14.797  21.691 -0.1782  0.1536  0.0405
   12BOLB   C3A  271   4.893  15.130  21.867 -0.0525 -0.4590  0.1003
   12BOLB   C4A  272   4.612  15.615  21.791  0.2874  0.1542 -0.2127
   12BOLB   C1B  273   5.460  15.216  21.449  0.2328  0.0440  0.0588
   12BOLB   C2B  274   5.599  15.657  21.586 -0.0308  0.0322 -0.0235
   12BOLB   C3B  275   5.687  15.678  22.032 -0.1267  0.0696 -0.1118
   12BOLB   C4B  276   5.562  15.773  22.443  0.2311  0.2019  0.0216
   12BOLB   NC2  277   2.908  17.465  23.071 -0.1007  0.0059 -0.2960
   12BOLB   PO2  278   3.052  17.040  22.966 -0.1839  0.0140  0.0620
   12BOLB   GL3  279   3.414  17.048  22.898 -0.0529  0.2159  0.0234
   12BOLB   GL4  280   3.388  17.224  22.622  0.2435 -0.1046  0.0076
   12BOLB   C1C  281   3.781  16.848  22.694 -0.1155  0.1234  0.1067
   12BOLB   C2C  282   4.097  16.631  22.624 -0.0743  0.0724  0.2030
   12BOLB   C3C  283   4.356  16.383  22.384 -0.0216 -0.0623  0.1664
   12BOLB   C4C  284   4.639  16.060  22.027  0.2732 -0.1004 -0.0643
   12BOLB   C1D  285   3.771  17.326  22.383  0.0741 -0.0254  0.1032
   12BOLB   C2D  286   3.990  17.151  22.014 -0.0557 -0.2253 -0.0296
   12BOLB   C3D  287   4.001  17.186  21.653 -0.2052 -0.2011 -0.0046
   12BOLB   C4D  288   3.754  17.156  21.244  0.3134 -0.0570  0.2278
   13BOLB   NC1  289   5.113  14.507  20.564  0.2773 -0.0927  0.1539
   13BOLB   PO1  290   5.418  14.764  20.752  0.2230 -0.0857  0.0748
   13BOLB   GL1  291   5.388  15.145  20.924 -0.1948 -0.0904 -0.2168
   13BOLB   GL2  292   5.195  15.336  20.686 -0.3983  0.0299  0.0698
   13BOLB   C1A  293   5.010  15.416  21.213 -0.3701  0.3615 -0.2098
   13BOLB   C2A  294   5.024  15.551  21.604 -0.1898  0.0578 -0.2515
   13BOLB   C3A  295   5.114  15.912  21.866 -0.1366  0.0479  0.1460
   13BOLB   C4A  296   5.069  15.917  22.305  0.1109  0.0285 -0.1782
   13BOLB   C1B  297   5.015  15.579  20.750  0.2975 -0.4348 -0.0129
   13BOLB   C2B  298   4.800  15.871  20.974 -0.1538 -0.0665  0.1667
   13BOLB   C3B  299   4.560  16.262  21.024 -0.4533  0.2292  0.0769
   13BOLB   C4B  300   4.062  16.424  21.017  0.0112 -0.0105 -0.1897
   13BOLB   NC2  301   3.035  15.993  23.840 -0.0752  0.2833 -0.0692
   13BOLB   PO2  302   2.948  15.733  23.586 -0.1093  0.0360 -0.0598
   13BOLB   GL3  303   3.398  15.795  23.486  0.0257  0.1314  0.1450
   13BOLB   GL4  304   3.665  15.558  23.541 -0.2035 -0.2097  0.2788
   13BOLB   C1C  305   3.775  15.954  23.238 -0.1567 -0.1978 -0.0529
   13BOLB   C2C  306   4.013  16.001  22.852 -0.2210  0.0498  0.0657
   13BOLB   C3C  307   4.288  15.949  22.647  0.1416  0.5799  0.2431
   13BOLB   C4C  308   4.733  15.937  22.612 -0.2564  0.1494 -0.2220
   13BOLB   C1D  309   4.007  15.170  23.459  0.1154 -0.1528  0.0060
   13BOLB   C2D  310   4.285  15.226  23.694  0.2007 -0.3312  0.1108
   13BOLB   C3D  311   4.729  15.083  23.796 -0.1876  0.1804 -0.2705
   13BOLB   C4D  312   4.960  14.964  24.198  0.0651 -0.0185 -0.0814
   14BOLB   NC1  313   6.904  10.593  22.602 -0.2888 -0.0938 -0.0519
   14BOLB   PO1  314   7.110  10.944  22.718 -0.0352 -0.1059 -0.1159
   14BOLB   GL1  315   6.969  10.834  23.130 -0.2318 -0.0400 -0.0992
   14BOLB   GL2  316   6.719  11.064  23.149 -0.1409 -0.2259  0.2171
   14BOLB   C1A  317   7.076  10.578  23.374 -0.1419  0.2952  0.0165
   14BOLB   C2A  318   7.141  10.695  23.828  0.3376 -0.3957  0.0654
   14BOLB   C3A  319   7.194  10.833  24.276 -0.1714  0.0195 -0.1170
   14BOLB   C4A  320   7.239  10.737  24.667 -0.2466  0.1193 -0.1296
   14BOLB   C1B  321   6.658  10.897  23.667 -0.3177  0.0824  0.0858
   14BOLB   C2B  322   6.723  10.725  24.029 -0.3810 -0.1383  0.0301
   14BOLB   C3B  323   6.823  10.574  24.406  0.0394 -0.1569 -0.3633
   14BOLB   C4B  324   6.917  10.311  24.793 -0.1947 -0.1503  0.1086
   14BOLB   NC2  325   7.030   9.663  26.440 -0.1433  0.4280 -0.1561
   14BOLB   PO2  326   6.647   9.642  26.241 -0.0600  0.0083 -0.0913
   14BOLB   GL3  327   6.982   9.911  25.953  0.1918 -0.5292 -0.1833
   14BOLB   GL4  328   7.060  10.285  26.038  0.1820 -0.2340  0.1632
   14BOLB   C1C  329   7.339   9.971  25.714 -0.2153 -0.2320  0.2418
   14BOLB   C2C  330   7.537  10.045  25.274 -0.0306  0.1003 -0.4303
   14BOLB   C3C  331   7.790  10.473  25.185 -0.2468 -0.3418  0.1559
   14BOLB   C4C  332   7.631  10.804  24.937 -0.1672  0.0034 -0.2973
   14BOLB   C1D  333   6.750  10.581  26.011  0.2451  0.0290 -0.2324
   14BOLB   C2D  334   6.470  10.880  25.846 -0.0763 -0.1177  0.2509
   14BOLB   C3D  335   6.138  11.210  25.677 -0.0979 -0.1714 -0.0164
   14BOLB   C4D  336   6.069  11.652  25.551 -0.1397 -0.0540 -0.1360
   15BOLB   NC1  337   7.403  14.056  22.469 -0.2285  0.2534  0.2466
   15BOLB   PO1  338   7.930  14.082  22.492  0.1743 -0.3849  0.2646
   15BOLB   GL1  339   7.717  14.059  22.840  0.1160 -0.2419 -0.0116
   15BOLB   GL2  340   8.014  13.970  23.064 -0.1369  0.3526  0.0006
   15BOLB   C1A  341   7.457  14.194  23.146  0.0301 -0.1333  0.1477
   15BOLB   C2A  342   7.286  14.281  23.602  0.0170 -0.2662 -0.2007
   15BOLB   C3A  343   7.053  14.430  23.905 -0.2060  0.0731 -0.1373
   15BOLB   C4A  344   7.032  14.781  24.088 -0.0779  0.2827 -0.3292
   15BOLB   C1B  345   7.855  13.922  23.351 -0.0442  0.1797  0.2734
   15BOLB   C2B  346   7.748  14.096  23.711  0.0300 -0.0112 -0.1046
   15BOLB   C3B  347   7.872  14.034  24.110 -0.0111 -0.0931 -0.2423
   15BOLB   C4B  348   7.890  14.446  24.325  0.0623 -0.2510 -0.1512
   15BOLB   NC2  349   5.707  15.911  26.399 -0.1312 -0.0364 -0.0864
   15BOLB   PO2  350   5.621  16.029  26.015 -0.2746  0.1260  0.1923
   15BOLB   GL3  351   5.795  15.720  25.569 -0.0481  0.0639 -0.2186
   15BOLB   GL4  352   5.776  15.337  25.690 -0.1563  0.1132 -0.2741
   15BOLB   C1C  353   6.047  15.515  25.245  0.2815  0.4156  0.2523
   15BOLB   C2C  354   6.193  15.310  24.935  0.3938 -0.4529  0.2122
   15BOLB   C3C  355   6.437  14.985  24.667  0.0569 -0.1003 -0.0621
   15BOLB   C4C  356   6.718  15.057  24.334 -0.1182  0.2380 -0.1791
   15BOLB   C1D  357   6.018  14.965  25.478 -0.0591  0.1455  0.0463
   15BOLB   C2D  358   6.320  14.777  25.121 -0.0372  0.0807  0.0985
   15BOLB   C3D  359   6.489  14.505  24.824 -0.0705 -0.3131 -0.2678
   15BOLB   C4D  360   6.846  14.595  24.540  0.0804 -0.0583  0.2641
   16BOLB   NC1  361   4.687  11.286  22.910  0.1267 -0.0723 -0.3894
   16BOLB   PO1  362   4.768  11.747  23.088  0.2629 -0.2886 -0.2486
   16BOLB   GL1  363   5.089  11.898  23.345  0.1805  0.5076 -0.3054
   16BOLB   GL2  364   4.965  11.926  23.699 -0.1655 -0.1632  0.0076
   16BOLB   C1A  365   5.474  11.992  23.680  0.1603 -0.2068 -0.0467
   16BOLB   C2A  366   5.642  12.190  24.013  0.1307  0.2305 -0.0199
   16BOLB   C3A  367   6.067  12.460  24.231 -0.5893  0.0540  0.0563
   16BOLB   C4A  368   6.394  12.336  24.537 -0.1383  0.0448  0.0061
   16BOLB   C1B  369   5.347  11.733  24.047  0.2692 -0.1987 -0.1101
   16BOLB   C2B  370   5.848  11.717  24.023 -0.0445  0.1004  0.1961
   16BOLB   C3B  371   6.114  11.494  24.355  0.1331 -0.0056  0.1302
   16BOLB   C4B  372   6.528  11.628  24.351 -0.0873 -0.0816  0.2062
   16BOLB   NC2  373   6.114  10.065  25.099 -0.2143 -0.2022 -0.2557
   16BOLB   PO2  374   6.090  10.295  24.732  0.0911 -0.3824  0.1771
   16BOLB   GL3  375   6.355  10.650  24.967  0.0775 -0.3134 -0.0356
   16BOLB   GL4  376   6.531  10.753  24.785  0.1173  0.1810  0.2317
   16BOLB   C1C  377   6.328  10.949  25.317 -0.2438  0.0030  0.0808
   16BOLB   C2C  378   6.433  11.400  25.259 -0.0422 -0.1148 -0.1462
   16BOLB   C3C  379   6.456  11.861  25.186  0.2512  0.1344 -0.1625
   16BOLB   C4C  380   6.442  12.064  24.763  0.3186  0.1748 -0.3765
   16BOLB   C1D  381   6.712  11.057  24.978  0.1481  0.0699 -0.0716
   16BOLB   C2D  382   6.618  11.393  24.793 -0.3024  0.1418  0.0042
   16BOLB   C3D  383   6.183  11.600  24.835 -0.3779  0.1234  0.0264
   16BOLB   C4D  384   5.978  11.903  24.957 -0.0037  0.0653 -0.0801
   17BOLB   NC1  385   6.491  16.940  20.389 -0.3854 -0.1545  0.2953
   17BOLB   PO1  386   6.128  17.118  20.322  0.0366 -0.0665 -0.1096
   17BOLB   GL1  387   5.810  17.302  20.531 -0.2660 -0.0614  0.0129
   17BOLB   GL2  388   5.692  17.494  20.404 -0.0418 -0.0601 -0.2202
   17BOLB   C1A  389   5.693  17.187  20.935 -0.4857  0.1164 -0.1622
   17BOLB   C2A  390   5.629  17.176  21.399  0.3331  0.1230 -0.0758
   17BOLB   C3A  391   5.337  17.410  21.651  0.2174 -0.1059 -0.1082
   17BOLB   C4A  392   5.107  17.306  22.056 -0.0457  0.1787 -0.0786
   17BOLB   C1B  393   5.390  17.725  20.554  0.0396  0.1229 -0.1911
   17BOLB   C2B  394   5.161  17.976  20.849  0.1632 -0.0025  0.0686
   17BOLB   C3B  395   4.976  18.185  21.216  0.0220  0.0089  0.1188
   17BOLB   C4B  396   4.734  18.321  21.499  0.0099 -0.0583  0.3608
   17BOLB   NC2  397   3.355  17.129  23.403  0.2873  0.0080  0.2343
   17BOLB   PO2  398   3.624  17.294  23.699  0.1086  0.1907 -0.3008
   17BOLB   GL3  399   3.795  17.480  23.421  0.3121 -0.1478 -0.2427
   17BOLB   GL4  400   4.041  17.700  23.560  0.0915  0.0884 -0.1461
   17BOLB   C1C  401   3.925  17.378  22.976 -0.0592 -0.0655 -0.2147
   17BOLB   C2C  402   4.199  17.177  22.617 -0.0134  0.1940 -0.1272
   17BOLB   C3C  403   4.427  16.967  22.313 -0.0237 -0.0767  0.0391
   17BOLB   C4C  404   4.783  16.968  22.193 -0.3238 -0.1886 -0.2205
   17BOLB   C1D  405   4.454  17.678  23.366 -0.0702 -0.1121 -0.2054
   17BOLB   C2D  406   4.391  17.357  23.145 -0.0087 -0.0021  0.1917
   17BOLB   C3D  407   4.634  17.252  22.796  0.2743  0.0247 -0.1889
   17BOLB   C4D  408   4.682  17.410  22.488  0.2398 -0.0263 -0.1217
   18BOLB   NC1  409   3.651  19.987  19.703 -0.3709  0.1289 -0.0803
   18BOLB   PO1  410   3.212  19.732  19.650 -0.1755  0.0045  0.1511
   18BOLB   GL1  411   3.273  19.431  19.879  0.3385 -0.0659 -0.1802
   18BOLB   GL2  412   3.683  19.525  19.975 -0.2028  0.1545  0.1151
   18BOLB   C1A  413   3.376  19.034  20.135 -0.6272 -0.0168  0.2076
   18BOLB   C2A  414   3.657  18.886  20.377  0.3003  0.0648 -0.2597
   18BOLB   C3A  415   4.076  19.028  20.614  0.4442  0.3394  0.1167
   18BOLB   C4A  416   4.245  19.408  20.690 -0.0372  0.0096 -0.0609
   18BOLB   C1B  417   4.001  19.451  20.186  0.1655  0.0729  0.2229
   18BOLB   C2B  418   4.411  19.174  20.308 -0.3093  0.2656  0.1207
   18BOLB   C3B  419   4.830  19.107  20.250 -0.0858 -0.2218 -0.2679
   18BOLB   C4B  420   5.082  19.078  20.592 -0.0862  0.2348 -0.1684
   18BOLB   NC2  421   4.101  21.414  21.983  0.0075  0.3718 -0.1173
   18BOLB   PO2  422   4.479  21.688  21.859  0.0745 -0.0119  0.0535
   18BOLB   GL3  423   4.557  21.195  21.828  0.3240  0.0377  0.0477
   18BOLB   GL4  424   4.525  21.112  22.112  0.3110 -0.0194  0.4967
   18BOLB   C1C  425   4.583  20.691  21.880  0.0774  0.6706  0.2089
   18BOLB   C2C  426   4.551  20.352  21.555  0.0775  0.1716  0.0607
   18BOLB   C3C  427   4.627  20.108  21.155  0.2637  0.1438 -0.1126
   18BOLB   C4C  428   4.559  19.668  20.951 -0.0943  0.1929 -0.4064
   18BOLB   C1D  429   4.971  20.856  22.207 -0.0638 -0.1856  0.1007
   18BOLB   C2D  430   5.467  20.982  22.143  0.1195 -0.0405  0.1490
   18BOLB   C3D  431   5.851  20.826  22.114  0.0238  0.2714  0.1990
   18BOLB   C4D  432   5.927  20.677  21.595  0.1199  0.1728 -0.3117
   19BOLB   NC1  433   7.026  15.449  21.680  0.0197  0.2006  0.0271
   19BOLB   PO1  434   7.165  15.897  21.815 -0.0467 -0.1478  0.0841
   19BOLB   GL1  435   7.265  16.010  22.365 -0.0210  0.1499  0.1182
   19BOLB   GL2  436   7.123  15.830  22.651  0.2758 -0.0537  0.0260
   19BOLB   C1A  437   6.965  16.327  22.677  0.1123 -0.2719  0.1193
   19BOLB   C2A  438   6.840  16.441  23.087 -0.0748  0.0863  0.2419
   19BOLB   C3A  439   6.835  16.543  23.560 -0.1909  0.0958  0.1621
   19BOLB   C4A  440   6.594  16.540  23.987  0.0397 -0.0264  0.0897
   19BOLB   C1B  441   7.045  15.954  23.000 -0.2682  0.4082  0.1826
   19BOLB   C2B  442   7.102  16.117  23.414 -0.0321  0.3571 -0.2544
   19BOLB   C3B  443   7.014  16.205  23.863  0.1254  0.0063  0.0772
   19BOLB   C4B  444   6.982  16.138  24.264 -0.3346 -0.0379 -0.1332
   19BOLB   NC2  445   5.115  16.993  26.070 -0.0188 -0.0256 -0.2260
   19BOLB   PO2  446   5.147  16.811  25.516  0.0681 -0.0483  0.0221
   19BOLB   GL3  447   5.406  16.505  25.368  0.0439  0.5428 -0.0129
   19BOLB   GL4  448   5.664  16.690  25.276 -0.3363 -0.1046 -0.0567
   19BOLB   C1C  449   5.699  16.173  25.123  0.1671  0.3466  0.1531
   19BOLB   C2C  450   5.988  15.929  24.920 -0.1309  0.1559  0.0670
   19BOLB   C3C  451   6.196  16.114  24.561 -0.0049  0.3411 -0.0483
   19BOLB   C4C  452   6.473  16.176  24.251  0.0917 -0.1402  0.4027
   19BOLB   C1D  453   5.497  16.471  24.831 -0.0537  0.0482 -0.0081
   19BOLB   C2D  454   5.648  16.223  24.577  0.3432  0.4819 -0.0930
   19BOLB   C3D  455   5.707  16.114  24.252 -0.2010  0.1087  0.1195
   19BOLB   C4D  456   5.505  16.001  23.876  0.2808 -0.2467 -0.1063
   20BOLB   NC1  457   7.390  17.306  22.092 -0.3250  0.1796 -0.2038
   20BOLB   PO1  458   7.376  16.903  21.717  0.2271  0.1235 -0.1447
   20BOLB   GL1  459   7.034  16.910  22.023 -0.0854  0.0836  0.1475
   20BOLB   GL2  460   7.088  16.762  22.407  0.0463  0.2859  0.1241
   20BOLB   C1A  461   6.800  17.180  22.272  0.0193  0.6133 -0.3988
   20BOLB   C2A  462   6.511  17.328  22.509  0.0538  0.1504 -0.2098
   20BOLB   C3A  463   6.098  17.429  22.683 -0.0215 -0.1052 -0.1982
   20BOLB   C4A  464   5.796  17.652  22.956 -0.1058  0.1883  0.1272
   20BOLB   C1B  465   6.899  16.883  22.781  0.1853 -0.0743  0.0413
   20BOLB   C2B  466   6.635  16.908  23.105  0.1853  0.0634 -0.2715
   20BOLB   C3B  467   6.360  16.641  23.256 -0.2116 -0.1567  0.2061
   20BOLB   C4B  468   6.186  16.563  23.563 -0.2562 -0.1346  0.2687
   20BOLB   NC2  469   3.681  17.831  24.418 -0.1243  0.0611  0.0930
   20BOLB   PO2  470   3.669  17.391  24.218  0.1235  0.0744 -0.1947
   20BOLB   GL3  471   4.039  17.622  24.139 -0.0137  0.0243  0.1179
   20BOLB   GL4  472   4.242  17.853  24.312 -0.2079  0.2115 -0.2794
   20BOLB   C1C  473   4.480  17.670  23.892 -0.2704 -0.1350 -0.3775
   20BOLB   C2C  474   4.832  17.450  23.709  0.1087  0.1628  0.2433
   20BOLB   C3C  475   5.152  17.563  23.481 -0.1154 -0.1823  0.1689
   20BOLB   C4C  476   5.393  17.712  23.089  0.2053 -0.0846 -0.0118
   20BOLB   C1D  477   4.679  18.073  24.153  0.1388 -0.1815  0.0447
   20BOLB   C2D  478   5.239  18.076  24.048  0.0080  0.0759 -0.0943
   20BOLB   C3D  479   5.709  17.903  24.186 -0.1430  0.1925 -0.1982
   20BOLB   C4D  480   6.078  17.737  24.358  0.1602 -0.3008  0.2032
   21BOLB   NC1  481   8.965  19.379  22.772  0.0795 -0.0017 -0.1330
   21BOLB   PO1  482   9.326  19.566  22.862  0.1003  0.1909  0.0412
   21BOLB   GL1  483   9.123  19.486  23.225 -0.3174 -0.1820 -0.0519
   21BOLB   GL2  484   9.091  19.768  23.408 -0.0780  0.0105  0.1510
   21BOLB   C1A  485   8.654  19.649  23.549  0.1522  0.0698  0.1248
   21BOLB   C2A  486   8.469  19.822  23.940  0.1694  0.1092  0.2804
   21BOLB   C3A  487   8.458  19.489  24.342  0.2100 -0.0401  0.2117
   21BOLB   C4A  488   8.042  19.405  24.528  0.0992  0.0628  0.0405
   21BOLB   C1B  489   8.783  20.121  23.596  0.2017 -0.5514  0.2214
   21BOLB   C2B  490   8.594  20.457  23.886 -0.2544  0.0198 -0.1684
   21BOLB   C3B  491   8.386  20.901  23.889  0.0739 -0.2574 -0.1465
   21BOLB   C4B  492   8.192  21.237  23.614  0.0402  0.1505  0.1873
   21BOLB   NC2  493   5.678  19.704  25.563 -0.1020 -0.0470  0.1522
   21BOLB   PO2  494   5.862  19.746  25.981 -0.3049 -0.1330  0.0563
   21BOLB   GL3  495   6.248  19.642  25.718 -0.1604  0.0154  0.0386
   21BOLB   GL4  496   6.511  19.499  25.744 -0.2389  0.0338  0.0562
   21BOLB   C1C  497   6.656  19.544  25.301  0.4145  0.3331  0.2359
   21BOLB   C2C  498   7.104  19.520  25.265 -0.2269 -0.1002  0.1185
   21BOLB   C3C  499   7.545  19.589  25.126  0.0179 -0.0098  0.1274
   21BOLB   C4C  500   7.892  19.500  24.874 -0.0089 -0.1703 -0.1839
   21BOLB   C1D  501   6.783  19.129  25.547 -0.1784  0.1804  0.1188
   21BOLB   C2D  502   6.534  18.699  25.495 -0.2649 -0.1396 -0.0431
   21BOLB   C3D  503   6.410  18.164  25.542 -0.0414 -0.0588 -0.0185
   21BOLB   C4D  504   6.036  17.930  25.287  0.2778  0.1350  0.0621
   22BOLB   NC1  505   6.855  11.242  22.274 -0.2054  0.1368  0.1682
   22BOLB   PO1  506   6.557  11.577  22.272 -0.0220  0.1402  0.0941
   22BOLB   GL1  507   6.390  11.726  22.781  0.0691 -0.0603 -0.2002
   22BOLB   GL2  508   6.031  11.841  22.899  0.0448  0.2725  0.0054
   22BOLB   C1A  509   6.381  11.846  23.258 -0.0042 -0.3645  0.0746
   22BOLB   C2A  510   6.488  12.066  23.556  0.3302 -0.0469  0.3980
   22BOLB   C3A  511   6.592  12.444  23.711 -0.0800 -0.0472 -0.1939
   22BOLB   C4A  512   6.574  12.607  24.119  0.1081  0.0252  0.0579
   22BOLB   C1B  513   5.814  12.098  23.162 -0.2726  0.2436  0.3163
   22BOLB   C2B  514   5.453  12.339  23.360  0.3029  0.2305 -0.0593
   22BOLB   C3B  515   5.294  12.427  23.782 -0.2025  0.0644 -0.1564
   22BOLB   C4B  516   5.061  12.392  24.026  0.1062 -0.2964 -0.2904
   22BOLB   NC2  517   4.630  11.234  24.115  0.2686  0.1144 -0.1618
   22BOLB   PO2  518   4.687  11.734  24.217  0.0794  0.2757  0.0658
   22BOLB   GL3  519   4.994  11.995  24.399  0.2231 -0.0434 -0.2452
   22BOLB   GL4  520   5.138  11.896  24.693 -0.2024  0.1369 -0.1319
   22BOLB   C1C  521   5.390  12.407  24.406  0.0144  0.1161  0.0345
   22BOLB   C2C  522   5.715  12.417  24.695 -0.3859 -0.1097  0.0192
   22BOLB   C3C  523   6.057  12.723  24.706  0.3720 -0.1025 -0.0793
   22BOLB   C4C  524   6.374  12.810  24.427  0.1394 -0.1573 -0.0688
   22BOLB   C1D  525   5.636  11.841  24.508 -0.2854 -0.0938  0.1113
   22BOLB   C2D  526   5.978  12.047  24.432 -0.4351  0.3408  0.1600
   22BOLB   C3D  527   6.182  12.082  23.941 -0.0236 -0.5186 -0.2564
   22BOLB   C4D  528   5.949  11.933  23.601  0.2218  0.0220 -0.1486
   23BOLB   NC1  529   6.786   9.767  23.468  0.1624  0.2500 -0.0435
   23BOLB   PO1  530   6.837   9.987  23.927  0.1589  0.0297  0.1753
   23BOLB   GL1  531   7.169  10.202  23.956  0.3318  0.3685 -0.0832
   23BOLB   GL2  532   7.321   9.940  24.046 -0.2520 -0.3062  0.0108
   23BOLB   C1A  533   7.245  10.318  24.351  0.1798 -0.3037  0.3474
   23BOLB   C2A  534   7.656  10.462  24.520  0.3418 -0.2616  0.1170
   23BOLB   C3A  535   7.943  10.222  24.690 -0.1649  0.0957 -0.0533
   23BOLB   C4A  536   8.087  10.053  25.159 -0.2548  0.3683 -0.1140
   23BOLB   C1B  537   7.628  10.263  24.069  0.0772  0.0875 -0.0994
   23BOLB   C2B  538   7.656  10.638  23.974 -0.1527  0.0515 -0.2952
   23BOLB   C3B  539   7.501  11.082  23.992 -0.3611  0.3639  0.1924
   23BOLB   C4B  540   7.434  11.499  23.919 -0.0065  0.1036  0.2849
   23BOLB   NC2  541   6.292   9.877  25.916  0.0118  0.0718  0.2422
   23BOLB   PO2  542   6.330   9.855  25.504 -0.0691 -0.1311  0.1823
   23BOLB   GL3  543   6.654  10.143  25.678  0.2313 -0.3754 -0.2293
   23BOLB   GL4  544   6.513  10.437  25.494 -0.0680 -0.1211 -0.3173
   23BOLB   C1C  545   7.054  10.360  25.483  0.1467 -0.2881  0.2206
   23BOLB   C2C  546   7.404  10.441  25.549 -0.1279  0.1315  0.4306
   23BOLB   C3C  547   7.758  10.284  25.649 -0.0567  0.3138 -0.0677
   23BOLB   C4C  548   7.978   9.979  25.515 -0.1817 -0.2587 -0.0188
   23BOLB   C1D  549   6.815  10.819  25.490 -0.0919  0.1822 -0.0061
   23BOLB   C2D  550   7.118  10.808  25.163 -0.3725  0.0626 -0.1158
   23BOLB   C3D  551   7.329  10.398  25.050 -0.1139 -0.3422 -0.1005
   23BOLB   C4D  552   7.437  10.034  24.752  0.2088 -0.3811 -0.4127
   24BOLB   NC1  553   6.037  13.761  21.659 -0.0937 -0.0634  0.1477
   24BOLB   PO1  554   5.862  13.942  21.315  0.1208 -0.2594  0.3049
   24BOLB   GL1  555   5.459  14.180  21.513 -0.2124  0.1988 -0.1562
   24BOLB   GL2  556   5.094  14.046  21.731 -0.0941  0.0938 -0.2928
   24BOLB   C1A  557   5.492  14.593  21.769  0.0023  0.2150  0.0130
   24BOLB   C2A  558   5.367  14.896  22.037  0.0155  0.2735 -0.1040
   24BOLB   C3A  559   5.259  15.353  22.004 -0.0028 -0.2200  0.2252
   24BOLB   C4A  560   4.802  15.477  22.225 -0.2070 -0.1602 -0.3860
   24BOLB   C1B  561   5.128  14.380  22.004  0.2829  0.3296 -0.1417
   24BOLB   C2B  562   4.988  14.514  22.473  0.0343 -0.0855 -0.0867
   24BOLB   C3B  563   5.180  14.678  22.969 -0.1480 -0.1538  0.1888
   24BOLB   C4B  564   5.447  14.674  23.337  0.0346  0.1573 -0.2574
   24BOLB   NC2  565   2.622  15.327  23.782 -0.1024 -0.1722  0.1938
   24BOLB   PO2  566   2.802  15.193  23.439  0.1973 -0.0450 -0.0575
   24BOLB   GL3  567   3.204  15.226  23.353  0.1127 -0.1227  0.3766
   24BOLB   GL4  568   3.231  14.825  23.399 -0.0459  0.2604 -0.0585
   24BOLB   C1C  569   3.619  15.275  23.053 -0.5199 -0.1994  0.1515
   24BOLB   C2C  570   4.011  15.500  23.067  0.1375 -0.0047  0.0006
   24BOLB   C3C  571   4.520  15.450  22.954  0.1280 -0.1437  0.1131
   24BOLB   C4C  572   4.626  15.389  22.590  0.0467 -0.4073 -0.2717
   24BOLB   C1D  573   3.733  14.802  23.167 -0.0783 -0.0888 -0.1496
   24BOLB   C2D  574   4.121  14.960  22.895 -0.0468  0.1224  0.1344
   24BOLB   C3D  575   4.585  14.937  22.708  0.0960  0.2299  0.2432
   24BOLB   C4D  576   4.893  15.055  22.880  0.1756 -0.2125  0.1568
   25BOLB   NC1  577   6.531  13.259  21.201  0.1327  0.0918  0.0121
   25BOLB   PO1  578   6.444  13.474  21.543  0.3424 -0.4901 -0.0491
   25BOLB   GL1  579   6.410  13.616  21.954  0.0624 -0.1248  0.0052
   25BOLB   GL2  580   6.720  13.825  22.051 -0.0933  0.1318  0.1608
   25BOLB   C1A  581   6.270  13.733  22.421  0.0788  0.0564  0.0095
   25BOLB   C2A  582   6.546  13.806  22.761 -0.3455 -0.0320  0.2081
   25BOLB   C3A  583   6.504  13.819  23.183  0.1276 -0.2856  0.1707
   25BOLB   C4A  584   6.339  13.730  23.641 -0.0750  0.0091  0.0997
   25BOLB   C1B  585   6.607  14.137  22.348  0.1624 -0.3278  0.2416
   25BOLB   C2B  586   6.638  14.457  22.637  0.0470  0.0516  0.2238
   25BOLB   C3B  587   6.617  14.371  23.020 -0.0111  0.1263 -0.4190
   25BOLB   C4B  588   6.484  14.487  23.451  0.2696  0.0367 -0.1116
   25BOLB   NC2  589   4.214  13.453  25.204 -0.5706 -0.3436  0.1514
   25BOLB   PO2  590   4.668  13.506  25.268  0.0631 -0.5782 -0.0018
   25BOLB   GL3  591   5.013  13.643  25.093  0.2941  0.0409  0.2080
   25BOLB   GL4  592   5.344  13.648  25.279 -0.1009  0.0116 -0.0480
   25BOLB   C1C  593   5.329  13.783  24.840 -0.0008  0.1251  0.3268
   25BOLB   C2C  594   5.697  13.685  24.553 -0.2786  0.1896 -0.0714
   25BOLB   C3C  595   6.152  13.618  24.446 -0.1077  0.1489  0.4502
   25BOLB   C4C  596   6.445  13.773  24.121  0.1085 -0.1129 -0.1591
   25BOLB   C1D  597   5.278  13.207  25.009  0.4986 -0.0471  0.0984
   25BOLB   C2D  598   5.236  13.365  24.607  0.2099  0.2004  0.1202
   25BOLB   C3D  599   5.502  13.263  24.232  0.0101  0.2766  0.2048
   25BOLB   C4D  600   5.970  13.079  24.219  0.0652  0.3280  0.0433
   26BOLB   NC1  601   3.192  18.597  18.542 -0.2014 -0.4724 -0.3482
   26BOLB   PO1  602   2.949  18.322  18.296  0.0118  0.0452 -0.2928
   26BOLB   GL1  603   3.133  18.135  18.731  0.1660  0.0188  0.2714
   26BOLB   GL2  604   3.377  18.133  18.516  0.0130  0.1769  0.1394
   26BOLB   C1A  605   3.238  18.138  19.051 -0.1011 -0.3286  0.1611
   26BOLB   C2A  606   3.510  17.811  19.260  0.1945 -0.1541 -0.2700
   26BOLB   C3A  607   3.745  17.666  19.631 -0.0581  0.1914  0.0887
   26BOLB   C4A  608   3.959  17.717  20.002 -0.0590  0.1898  0.1797
   26BOLB   C1B  609   3.596  17.779  18.719  0.0230 -0.0971  0.2214
   26BOLB   C2B  610   3.850  17.466  19.026 -0.2574 -0.1334  0.0912
   26BOLB   C3B  611   4.092  17.363  19.382  0.1785 -0.0402 -0.1402
   26BOLB   C4B  612   4.338  17.612  19.705 -0.0842  0.0918 -0.0748
   26BOLB   NC2  613   2.474  18.385  22.030 -0.2521  0.0116  0.0927
   26BOLB   PO2  614   2.713  18.189  22.288  0.0725 -0.0178  0.4562
   26BOLB   GL3  615   2.906  17.954  21.862  0.1725  0.0326 -0.0040
   26BOLB   GL4  616   3.079  17.734  21.943 -0.1828 -0.0572  0.2943
   26BOLB   C1C  617   2.955  17.927  21.483  0.0890  0.2008 -0.0376
   26BOLB   C2C  618   3.308  17.676  21.169  0.0788  0.0517  0.1855
   26BOLB   C3C  619   3.644  17.768  20.916  0.1381 -0.2436  0.2679
   26BOLB   C4C  620   3.796  17.636  20.472 -0.0963  0.0327  0.0954
   26BOLB   C1D  621   3.552  17.585  21.946  0.2173  0.3347  0.1748
   26BOLB   C2D  622   4.072  17.639  21.864  0.0856 -0.2493  0.2007
   26BOLB   C3D  623   4.521  17.890  21.941  0.2212  0.0937  0.4123
   26BOLB   C4D  624   4.908  17.615  21.736 -0.1041 -0.4091  0.1227
   27BOLB   NC1  625   4.045  14.557  19.312  0.0664  0.1264  0.1142
   27BOLB   PO1  626   3.646  14.934  19.317  0.0412 -0.2231  0.3012
   27BOLB   GL1  627   3.786  15.281  19.516 -0.1512 -0.2647  0.1844
   27BOLB   GL2  628   4.005  15.436  19.726 -0.0760 -0.2040 -0.1961
   27BOLB   C1A  629   3.683  15.788  19.655  0.0840  0.1165 -0.0222
   27BOLB   C2A  630   3.791  15.784  20.094  0.1831 -0.0798  0.3956
   27BOLB   C3A  631   4.069  15.625  20.288 -0.3544 -0.0639 -0.2049
   27BOLB   C4A  632   4.180  15.343  20.599 -0.3403  0.5290 -0.0366
   27BOLB   C1B  633   4.350  15.743  19.898  0.0609 -0.0650  0.0827
   27BOLB   C2B  634   4.585  16.067  20.184  0.0994 -0.1747  0.0558
   27BOLB   C3B  635   4.685  16.461  20.211 -0.0433  0.2520  0.0353
   27BOLB   C4B  636   4.406  16.871  20.413 -0.1997  0.0948 -0.1931
   27BOLB   NC2  637   2.709  13.946  21.630  0.0673  0.0042  0.2807
   27BOLB   PO2  638   2.599  14.410  21.823 -0.3335  0.1338  0.1254
   27BOLB   GL3  639   2.955  14.587  21.837 -0.1551 -0.0677  0.0235
   27BOLB   GL4  640   2.981  14.951  22.050 -0.0861  0.0313 -0.1781
   27BOLB   C1C  641   3.351  14.672  21.803  0.3234 -0.0666  0.2138
   27BOLB   C2C  642   3.471  14.607  21.368 -0.2969  0.0010  0.2381
   27BOLB   C3C  643   3.737  14.863  21.129 -0.0453  0.1257  0.0869
   27BOLB   C4C  644   3.930  15.119  20.939 -0.2112 -0.0937 -0.1393
   27BOLB   C1D  645   3.072  14.986  21.587 -0.1093 -0.1550  0.0679
   27BOLB   C2D  646   2.908  15.015  21.142  0.0899  0.0971 -0.0165
   27BOLB   C3D  647   2.870  15.060  20.659 -0.2833  0.0133  0.0622
   27BOLB   C4D  648   2.851  15.438  20.346 -0.0340  0.1187  0.0514
   28BOLB   NC1  649   5.613  10.797  22.887  0.1742  0.1411  0.2833
   28BOLB   PO1  650   5.553  11.255  22.600 -0.0313 -0.0162  0.1232
   28BOLB   GL1  651   5.698  11.393  22.993  0.3673  0.0932  0.1450
   28BOLB   GL2  652   5.523  11.726  23.217  0.3755  0.1534 -0.3785
   28BOLB   C1A  653   5.928  11.498  23.361  0.1410 -0.2112  0.1215
   28BOLB   C2A  654   6.274  11.554  23.738 -0.0062 -0.2257 -0.1556
   28BOLB   C3A  655   6.696  11.710  23.891 -0.2106  0.0433 -0.0493
   28BOLB   C4A  656   6.991  11.710  24.123  0.1921  0.1181  0.0593
   28BOLB   C1B  657   5.501  11.512  23.639 -0.0050 -0.2180 -0.1627
   28BOLB   C2B  658   5.706  11.215  23.986 -0.1282  0.0015 -0.0397
   28BOLB   C3B  659   5.585  11.295  24.403  0.0908  0.0091  0.2632
   28BOLB   C4B  660   5.260  11.496  24.477  0.1692 -0.0497 -0.1336
   28BOLB   NC2  661   5.451  11.696  26.188 -0.3182 -0.1125  0.1051
   28BOLB   PO2  662   5.844  11.931  26.347  0.2005 -0.3469 -0.1228
   28BOLB   GL3  663   6.146  12.014  26.012  0.3561 -0.1934  0.0072
   28BOLB   GL4  664   6.080  12.268  25.895 -0.1834  0.0632 -0.0445
   28BOLB   C1C  665   6.537  11.937  25.715 -0.2721 -0.2556 -0.0675
   28BOLB   C2C  666   6.912  11.825  25.443 -0.1810 -0.1666  0.0136
   28BOLB   C3C  667   6.938  11.766  25.011  0.0075  0.4119  0.2286
   28BOLB   C4C  668   7.093  11.657  24.561  0.1347 -0.2390 -0.2567
   28BOLB   C1D  669   6.148  12.173  25.456 -0.0663  0.0873 -0.0931
   28BOLB   C2D  670   6.142  12.309  25.125 -0.2859 -0.1346  0.1589
   28BOLB   C3D  671   6.465  12.693  24.933 -0.0442  0.2883 -0.2381
   28BOLB   C4D  672   6.661  13.070  25.249  0.0326  0.1047 -0.0854
   29BOLB   NC1  673   8.665  20.826  22.245 -0.2493  0.1380  0.0875
   29BOLB   PO1  674   8.809  20.496  22.449 -0.3169 -0.1650  0.5000
   29BOLB   GL1  675   8.948  20.437  22.822 -0.3200  0.0257 -0.0729
   29BOLB   GL2  676   9.106  20.175  23.033  0.1685  0.1537 -0.0769
   29BOLB   C1A  677   8.683  20.459  23.222  0.1909 -0.0001  0.1923
   29BOLB   C2A  678   8.389  20.674  23.426  0.1704 -0.2781  0.2354
   29BOLB   C3A  679   7.898  20.795  23.585 -0.0578  0.3835  0.0106
   29BOLB   C4A  680   7.738  21.103  23.792 -0.1533 -0.0451  0.0664
   29BOLB   C1B  681   9.261  20.278  23.420 -0.0745 -0.0603 -0.3345
   29BOLB   C2B  682   9.178  20.310  23.850  0.0880  0.1771  0.1826
   29BOLB   C3B  683   9.118  20.468  24.191  0.0414  0.0003 -0.1550
   29BOLB   C4B  684   9.096  20.419  24.571 -0.0120 -0.1557 -0.0007
   29BOLB   NC2  685   6.798  21.560  25.679 -0.1303 -0.0049  0.1021
   29BOLB   PO2  686   6.396  21.339  25.546  0.0181 -0.1981  0.1522
   29BOLB   GL3  687   6.708  21.306  25.225 -0.0224  0.1708  0.4784
   29BOLB   GL4  688   6.701  21.112  24.942 -0.0946  0.2827 -0.1699
   29BOLB   C1C  689   7.131  21.541  25.067  0.0430 -0.1946  0.4271
   29BOLB   C2C  690   7.479  21.453  24.805  0.2055  0.0942  0.1648
   29BOLB   C3C  691   7.582  21.162  24.392  0.1941 -0.0950 -0.2307
   29BOLB   C4C  692   7.662  21.114  24.069  0.0973 -0.1332 -0.0689
   29BOLB   C1D  693   6.625  20.924  24.628 -0.2120 -0.2076 -0.1906
   29BOLB   C2D  694   6.768  20.895  24.225 -0.0787 -0.0199  0.4771
   29BOLB   C3D  695   7.046  20.924  23.870  0.0054 -0.2493 -0.2264
   29BOLB   C4D  696   7.266  20.960  23.539 -0.0096  0.2699 -0.1578
   30BOLB   NC1  697   7.053  18.297  20.812 -0.1005 -0.6078 -0.1726
   30BOLB   PO1  698   6.652  18.364  20.845  0.3366 -0.2959 -0.1490
   30BOLB   GL1  699   6.440  18.681  21.014  0.1898  0.1819  0.2962
   30BOLB   GL2  700   6.343  18.588  21.310 -0.3782 -0.0975 -0.3092
   30BOLB   C1A  701   6.080  19.082  21.114  0.0715  0.0881 -0.2318
   30BOLB   C2A  702   5.798  19.237  21.341  0.0385 -0.3105 -0.0250
   30BOLB   C3A  703   5.775  19.100  21.763  0.1638  0.0819 -0.1317
   30BOLB   C4A  704   5.914  19.179  22.238 -0.1939 -0.0955  0.3637
   30BOLB   C1B  705   6.215  18.756  21.766  0.2192 -0.0058  0.0022
   30BOLB   C2B  706   5.884  18.677  22.011 -0.4877  0.1535  0.1019
   30BOLB   C3B  707   5.573  18.777  22.279 -0.0604 -0.1199  0.0408
   30BOLB   C4B  708   5.509  19.058  22.628  0.0719  0.1798 -0.0154
   30BOLB   NC2  709   4.558  20.761  23.912 -0.1673  0.0138 -0.1963
   30BOLB   PO2  710   4.456  20.308  23.842 -0.1532 -0.0029 -0.0738
   30BOLB   GL3  711   4.582  20.022  23.489 -0.0167 -0.1645 -0.0033
   30BOLB   GL4  712   4.490  19.654  23.426 -0.1769 -0.2234  0.2563
   30BOLB   C1C  713   5.006  19.836  23.513  0.2634 -0.3916 -0.1882
   30BOLB   C2C  714   5.312  19.493  23.274 -0.1019 -0.1102  0.5294
   30BOLB   C3C  715   5.512  19.608  22.845  0.3359  0.0636 -0.0288
   30BOLB   C4C  716   5.720  19.489  22.480 -0.4682  0.1980  0.3960
   30BOLB   C1D  717   4.482  19.327  23.079 -0.0594  0.2320 -0.2973
   30BOLB   C2D  718   4.655  19.156  22.609  0.0482  0.1243 -0.1165
   30BOLB   C3D  719   4.469  19.005  22.248 -0.1470  0.3014  0.0527
   30BOLB   C4D  720   4.327  18.719  21.976  0.0016 -0.1476  0.0766
   31BOLB   NC1  721   8.430  11.392  22.789  0.3442 -0.0397 -0.0210
   31BOLB   PO1  722   8.798  11.460  22.981 -0.1565  0.1110 -0.2016
   31BOLB   GL1  723   8.753  11.656  23.501 -0.1238  0.0790 -0.0033
   31BOLB   GL2  724   8.946  11.956  23.570  0.2311 -0.0887 -0.3217
   31BOLB   C1A  725   8.482  11.727  23.954  0.1950 -0.0182 -0.0624
   31BOLB   C2A  726   8.579  11.872  24.217  0.0508 -0.1064  0.2355
   31BOLB   C3A  727   8.277  12.035  24.428  0.2631  0.4327 -0.0765
   31BOLB   C4A  728   8.270  12.417  24.804 -0.2793  0.4289  0.1274
   31BOLB   C1B  729   9.180  12.283  23.906 -0.1818  0.3270  0.0322
   31BOLB   C2B  730   9.195  12.414  24.361 -0.0891  0.3178 -0.1821
   31BOLB   C3B  731   9.028  12.829  24.571  0.0244 -0.1489 -0.1462
   31BOLB   C4B  732   8.833  13.090  24.789 -0.3319 -0.0997  0.3038
   31BOLB   NC2  733   8.975  12.130  27.414  0.0885  0.0776 -0.0567
   31BOLB   PO2  734   8.649  11.897  27.235  0.3311 -0.3178 -0.1678
   31BOLB   GL3  735   8.729  12.299  26.897 -0.0880  0.1678 -0.0661
   31BOLB   GL4  736   8.386  12.478  26.883 -0.1369  0.2373  0.0099
   31BOLB   C1C  737   8.711  12.473  26.530 -0.0467  0.1815 -0.2081
   31BOLB   C2C  738   8.741  12.518  26.101  0.2111 -0.0562  0.0142
   31BOLB   C3C  739   8.512  12.514  25.652  0.0447  0.0177  0.3118
   31BOLB   C4C  740   8.349  12.430  25.266 -0.3073  0.1754 -0.1845
   31BOLB   C1D  741   8.148  12.503  26.479 -0.0757 -0.0577 -0.0589
   31BOLB   C2D  742   7.808  12.670  26.266 -0.2355 -0.1368 -0.0678
   31BOLB   C3D  743   7.477  12.884  26.170  0.3779 -0.0389 -0.5159
   31BOLB   C4D  744   6.962  12.822  26.065 -0.1118  0.2882 -0.2748
   32BOLB   NC1  745   5.944  12.283  22.082  0.0230 -0.0170  0.0405
   32BOLB   PO1  746   6.269  12.617  21.884  0.3157 -0.2176 -0.0273
   32BOLB   GL1  747   5.936  12.847  22.153  0.0080  0.3480 -0.0473
   32BOLB   GL2  748   5.664  13.007  22.092 -0.2427  0.0674 -0.0657
   32BOLB   C1A  749   5.812  12.835  22.599  0.0684 -0.3027 -0.0389
   32BOLB   C2A  750   5.822  13.169  22.931  0.2573  0.0141  0.2279
   32BOLB   C3A  751   5.589  13.380  23.273 -0.2548 -0.0814  0.1739
   32BOLB   C4A  752   5.381  13.411  23.685  0.2120  0.7172  0.1844
   32BOLB   C1B  753   5.542  13.206  22.444  0.1661  0.1491 -0.0902
   32BOLB   C2B  754   5.298  13.085  22.834 -0.4877 -0.2353 -0.3389
   32BOLB   C3B  755   5.096  13.212  23.178  0.3354 -0.1600 -0.2469
   32BOLB   C4B  756   4.897  13.382  23.486 -0.3939  0.0978 -0.3420
   32BOLB   NC2  757   3.277  14.459  23.740  0.0452 -0.0839  0.0824
   32BOLB   PO2  758   3.516  14.178  23.993 -0.0596  0.1467  0.0620
   32BOLB   GL3  759   3.871  14.312  23.821  0.1902 -0.0671  0.2329
   32BOLB   GL4  760   3.784  14.398  23.540 -0.5182  0.0620  0.1196
   32BOLB   C1C  761   4.230  14.268  23.853 -0.0894 -0.0009  0.0185
   32BOLB   C2C  762   4.590  14.046  24.172 -0.0172  0.1265  0.0609
   32BOLB   C3C  763   5.031  13.990  24.337 -0.2308  0.0308 -0.3874
   32BOLB   C4C  764   5.271  13.693  24.132 -0.1232 -0.3638  0.1072
   32BOLB   C1D  765   3.934  14.354  23.094  0.1126  0.3247  0.0574
   32BOLB   C2D  766   3.743  14.544  22.744 -0.0754  0.0726 -0.1159
   32BOLB   C3D  767   3.831  14.847  22.440 -0.0697 -0.0106  0.1686
   32BOLB   C4D  768   3.710  14.988  22.049  0.0462 -0.2572 -0.0962
   33BOLB   NC1  769   4.170  13.746  20.515  0.1720  0.0853 -0.1322
   33BOLB   PO1  770   4.296  14.133  20.713 -0.0556 -0.0491  0.0363
   33BOLB   GL1  771   4.402  14.347  21.053 -0.0341  0.1127  0.0369
   33BOLB   GL2  772   4.717  14.554  21.012  0.0264  0.2355 -0.3342
   33BOLB   C1A  773   4.275  14.763  21.150 -0.1100 -0.2039  0.0187
   33BOLB   C2A  774   4.391  15.034  20.953  0.3174  0.0037  0.0436
   33BOLB   C3A  775   4.606  15.354  20.893  0.2457 -0.4402 -0.0513
   33BOLB   C4A  776   4.425  15.730  21.209  0.1676  0.0201 -0.0724
   33BOLB   C1B  777   4.866  14.922  21.217 -0.2538 -0.2381 -0.0608
   33BOLB   C2B  778   4.530  15.213  21.419  0.3623 -0.1948 -0.1336
   33BOLB   C3B  779   4.051  15.352  21.339 -0.4226  0.2673  0.0400
   33BOLB   C4B  780   3.590  15.601  21.106  0.1173 -0.3117 -0.3095
   33BOLB   NC2  781   3.218  16.675  23.330  0.0647  0.2644  0.0123
   33BOLB   PO2  782   3.136  16.264  23.429  0.3020 -0.0417 -0.1036
   33BOLB   GL3  783   3.345  16.275  23.053 -0.0879 -0.3371 -0.1924
   33BOLB   GL4  784   3.193  16.557  22.826  0.0595  0.4446  0.4200
   33BOLB   C1C  785   3.647  16.336  22.753  0.3058  0.1609 -0.1864
   33BOLB   C2C  786   3.906  16.180  22.410 -0.1486 -0.1503 -0.0880
   33BOLB   C3C  787   4.086  16.105  21.937 -0.1037  0.0295 -0.2353
   33BOLB   C4C  788   4.164  15.877  21.576 -0.0860  0.3519 -0.0202
   33BOLB   C1D  789   3.301  16.785  22.458 -0.0706 -0.1386 -0.2689
   33BOLB   C2D  790   3.625  16.765  22.192  0.1364 -0.1236 -0.4745
   33BOLB   C3D  791   4.051  16.586  22.031 -0.0194  0.0848 -0.2278
   33BOLB   C4D  792   4.415  16.680  21.856 -0.1404 -0.0714 -0.0426
   34BOLB   NC1  793   7.803  25.226  23.197 -0.0033 -0.1530  0.2877
   34BOLB   PO1  794   8.024  24.832  23.205  0.1869  0.2750  0.1505
   34BOLB   GL1  795   8.075  24.591  22.915  0.1146  0.1958 -0.4431
   34BOLB   GL2  796   8.446  24.623  22.927  0.3353  0.0533 -0.0830
   34BOLB   C1A  797   8.252  24.159  22.933 -0.3451  0.1111  0.0024
   34BOLB   C2A  798   8.420  23.927  23.214 -0.1298  0.3631  0.2408
   34BOLB   C3A  799   8.506  23.604  23.389 -0.2518 -0.0150  0.1233
   34BOLB   C4A  800   8.599  23.293  23.757  0.0665  0.0188  0.1590
   34BOLB   C1B  801   8.711  24.263  22.874  0.1647 -0.1665 -0.0293
   34BOLB   C2B  802   8.974  24.029  23.233  0.0944 -0.0551  0.0804
   34BOLB   C3B  803   8.952  24.024  23.592  0.0855  0.0120 -0.2178
   34BOLB   C4B  804   8.739  23.943  23.923  0.2610 -0.0582  0.0602
   34BOLB   NC2  805   8.489  22.578  26.185 -0.0258 -0.2439 -0.0358
   34BOLB   PO2  806   8.234  22.624  25.742  0.1907 -0.2299  0.1363
   34BOLB   GL3  807   8.551  22.609  25.511  0.1258 -0.0120  0.0860
   34BOLB   GL4  808   8.527  22.917  25.427 -0.0403  0.1721  0.1124
   34BOLB   C1C  809   8.803  22.605  25.213 -0.0712  0.2170  0.0652
   34BOLB   C2C  810   9.036  22.777  24.912  0.0445 -0.0947  0.1417
   34BOLB   C3C  811   9.097  22.965  24.471  0.0255  0.0476  0.0374
   34BOLB   C4C  812   8.872  23.169  24.114  0.0814  0.0521  0.1247
   34BOLB   C1D  813   8.928  23.098  25.485  0.2619 -0.3696  0.0861
   34BOLB   C2D  814   9.155  23.288  25.180  0.0796 -0.0576  0.2210
   34BOLB   C3D  815   9.393  23.267  24.762  0.3558 -0.1119  0.3962
   34BOLB   C4D  816   9.627  23.108  24.426  0.0894 -0.1052 -0.0451
   35BOLB   NC1  817   9.860  22.917  21.734 -0.2018  0.0474  0.0112
   35BOLB   PO1  818   9.601  22.779  22.184  0.0431  0.0335 -0.3133
   35BOLB   GL1  819   9.419  22.689  22.559  0.0162  0.0596 -0.1283
   35BOLB   GL2  820   9.096  22.776  22.624 -0.2837  0.1190  0.1754
   35BOLB   C1A  821   9.444  22.460  22.951  0.0171  0.3748 -0.5388
   35BOLB   C2A  822   9.319  22.519  23.334  0.0937  0.2176 -0.1719
   35BOLB   C3A  823   9.183  22.339  23.714  0.0339  0.0245 -0.1900
   35BOLB   C4A  824   9.239  22.154  24.082  0.0597  0.0132  0.1337
   35BOLB   C1B  825   8.836  22.899  22.980  0.1274 -0.1300  0.2523
   35BOLB   C2B  826   8.736  23.121  23.304  0.1378  0.1400 -0.1344
   35BOLB   C3B  827   8.910  22.825  23.599  0.1389 -0.1475  0.0578
   35BOLB   C4B  828   9.224  22.787  23.933  0.3600  0.1058 -0.1827
   35BOLB   NC2  829   8.885  23.282  26.514  0.0864  0.2583 -0.0963
   35BOLB   PO2  830   8.845  22.931  26.357  0.5729 -0.1551 -0.1265
   35BOLB   GL3  831   8.969  22.830  25.966 -0.1641  0.0097 -0.2273
   35BOLB   GL4  832   9.076  22.525  26.099  0.4582  0.1152 -0.1375
   35BOLB   C1C  833   9.098  22.666  25.632  0.3478 -0.0917 -0.1069
   35BOLB   C2C  834   9.257  22.430  25.274 -0.1172 -0.3783 -0.0618
   35BOLB   C3C  835   9.402  22.149  24.950 -0.0558 -0.2932  0.0894
   35BOLB   C4C  836   9.369  22.015  24.461 -0.0573 -0.1026 -0.1161
   35BOLB   C1D  837   9.555  22.590  26.027 -0.2396  0.1079  0.1413
   35BOLB   C2D  838   9.828  22.350  26.084  0.2498  0.1922 -0.2125
   35BOLB   C3D  839   9.864  21.937  25.913  0.0181 -0.0428 -0.0233
   35BOLB   C4D  840  10.181  21.683  25.606  0.1880  0.2824  0.2840
   36BOLB   NC1  841   7.343  18.272  21.664  0.2818  0.3848  0.1200
   36BOLB   PO1  842   7.561  18.151  22.042  0.0060 -0.0334  0.2649
   36BOLB   GL1  843   7.135  18.173  22.243 -0.2710 -0.0616  0.1525
   36BOLB   GL2  844   7.150  18.565  22.434  0.0160  0.0095  0.1143
   36BOLB   C1A  845   6.790  18.174  22.597 -0.0910 -0.3088  0.4787
   36BOLB   C2A  846   6.793  18.352  23.092  0.3577 -0.3447  0.0355
   36BOLB   C3A  847   6.465  18.374  23.422 -0.1103  0.3247 -0.1742
   36BOLB   C4A  848   6.113  18.190  23.489 -0.0496 -0.0358  0.1179
   36BOLB   C1B  849   6.735  18.671  22.435  0.1391  0.0061 -0.3461
   36BOLB   C2B  850   6.443  18.570  22.815 -0.0969  0.0947 -0.4000
   36BOLB   C3B  851   6.162  18.405  23.008 -0.0452  0.1635  0.0877
   36BOLB   C4B  852   5.796  18.170  23.066 -0.1249 -0.0954  0.4152
   36BOLB   NC2  853   3.533  17.806  23.942  0.2985 -0.0383 -0.1904
   36BOLB   PO2  854   3.511  18.289  23.966 -0.1691  0.0793  0.4768
   36BOLB   GL3  855   3.900  18.252  23.782  0.3077  0.2597  0.0431
   36BOLB   GL4  856   3.974  18.341  23.440  0.2221  0.1549 -0.0643
   36BOLB   C1C  857   4.387  18.094  23.705  0.1786 -0.1073 -0.0307
   36BOLB   C2C  858   4.844  17.960  23.581  0.2902 -0.2993  0.0319
   36BOLB   C3C  859   5.371  17.963  23.582 -0.1648  0.0430 -0.0347
   36BOLB   C4C  860   5.767  17.958  23.536 -0.1238  0.0458  0.0716
   36BOLB   C1D  861   4.020  17.961  23.157 -0.1975 -0.0622  0.0580
   36BOLB   C2D  862   4.270  17.666  22.787  0.5347  0.0288 -0.1135
   36BOLB   C3D  863   4.653  17.750  22.886 -0.0329 -0.0350  0.0883
   36BOLB   C4D  864   4.951  17.870  23.135 -0.2254  0.1071 -0.1923
   37BOLB   NC1  865   7.270  24.813  22.669  0.1542 -0.0029 -0.0279
   37BOLB   PO1  866   7.516  24.835  23.058 -0.1259  0.0134 -0.2801
   37BOLB   GL1  867   7.685  24.360  23.130  0.4535  0.1566 -0.1876
   37BOLB   GL2  868   7.586  24.289  23.400 -0.1515  0.1429  0.0640
   37BOLB   C1A  869   7.844  23.955  23.118  0.0433 -0.0314  0.0365
   37BOLB   C2A  870   8.015  23.531  23.252  0.5006  0.0163  0.0141
   37BOLB   C3A  871   8.214  23.166  23.363 -0.2311  0.5304  0.1536
   37BOLB   C4A  872   8.399  22.827  23.542  0.1044 -0.0491  0.0243
   37BOLB   C1B  873   7.642  23.948  23.566 -0.2183 -0.1234  0.0416
   37BOLB   C2B  874   8.160  23.820  23.636  0.1717 -0.2750 -0.0817
   37BOLB   C3B  875   8.293  23.582  23.977  0.2182 -0.1703  0.1760
   37BOLB   C4B  876   8.651  23.621  24.261 -0.0960  0.1818  0.0427
   37BOLB   NC2  877   7.943  23.387  26.125 -0.4136 -0.2073 -0.1050
   37BOLB   PO2  878   8.220  23.459  25.848  0.1995 -0.1146 -0.1280
   37BOLB   GL3  879   8.650  23.489  25.544  0.0913  0.0549  0.1519
   37BOLB   GL4  880   8.631  23.796  25.350 -0.4238  0.0304  0.1716
   37BOLB   C1C  881   8.646  23.334  25.127 -0.2377  0.3523  0.2921
   37BOLB   C2C  882   8.668  23.103  24.722 -0.0648 -0.0595 -0.0722
   37BOLB   C3C  883   8.475  22.989  24.332  0.2160  0.0619 -0.2439
   37BOLB   C4C  884   8.384  22.761  23.962  0.2207 -0.1470  0.1165
   37BOLB   C1D  885   8.246  23.638  25.172  0.0233 -0.0622 -0.1029
   37BOLB   C2D  886   8.047  23.226  24.938 -0.0186  0.0913  0.2145
   37BOLB   C3D  887   7.999  22.932  24.640 -0.1048 -0.0104  0.1539
   37BOLB   C4D  888   8.162  22.604  24.417 -0.1415  0.1896  0.0368
   38BOLB   NC1  889   6.833  16.311  21.589 -0.0244 -0.2373  0.1151
   38BOLB   PO1  890   6.541  16.517  21.336  0.2858  0.3392 -0.1715
   38BOLB   GL1  891   6.411  16.640  21.845  0.0777 -0.1871 -0.0015
   38BOLB   GL2  892   6.532  16.923  21.894  0.3480  0.3324  0.2882
   38BOLB   C1A  893   6.064  16.570  22.002 -0.1982 -0.1220  0.1163
   38BOLB   C2A  894   5.799  16.630  22.280 -0.0548 -0.0062  0.0496
   38BOLB   C3A  895   5.509  16.746  22.602  0.1606  0.0393 -0.0620
   38BOLB   C4A  896   5.213  16.782  22.962  0.1322  0.1193 -0.3456
   38BOLB   C1B  897   6.281  16.961  22.332 -0.0848 -0.2081  0.1076
   38BOLB   C2B  898   6.098  16.918  22.768  0.0113  0.1569 -0.0943
   38BOLB   C3B  899   5.961  16.973  23.173  0.2190 -0.3603  0.0255
   38BOLB   C4B  900   5.855  17.013  23.583  0.6184 -0.3343 -0.1184
   38BOLB   NC2  901   3.611  16.035  24.516  0.0618 -0.3002  0.3613
   38BOLB   PO2  902   3.966  16.259  24.693  0.2002  0.2084 -0.3114
   38BOLB   GL3  903   4.309  16.193  24.548 -0.1484 -0.0079 -0.0888
   38BOLB   GL4  904   4.524  16.473  24.417  0.1372 -0.0835 -0.3389
   38BOLB   C1C  905   4.549  16.008  24.186 -0.0673  0.0062 -0.0075
   38BOLB   C2C  906   4.428  16.145  23.800  0.1199 -0.0062  0.1087
   38BOLB   C3C  907   4.580  16.377  23.554  0.2273  0.1607  0.0756
   38BOLB   C4C  908   4.865  16.610  23.232  0.2767  0.4387  0.3331
   38BOLB   C1D  909   4.485  16.644  23.957 -0.1738 -0.0148 -0.0869
   38BOLB   C2D  910   4.624  16.917  23.615  0.0167  0.3842  0.0667
   38BOLB   C3D  911   4.872  17.095  23.198 -0.0976  0.1778  0.1034
   38BOLB   C4D  912   5.040  17.398  23.016 -0.1077 -0.1275  0.1846
   39BOLB   NC1  913   7.832  23.903  21.679  0.0011  0.5393  0.2682
   39BOLB   PO1  914   7.931  23.732  22.016 -0.1636 -0.4041 -0.1807
   39BOLB   GL1  915   8.225  23.730  22.391  0.0034 -0.0687 -0.0630
   39BOLB   GL2  916   8.478  23.942  22.529 -0.1229  0.0516 -0.2666
   39BOLB   C1A  917   8.172  23.649  22.820  0.0661 -0.3260  0.1249
   39BOLB   C2A  918   8.429  23.229  22.901  0.1067  0.0239  0.3992
   39BOLB   C3A  919   8.338  22.734  23.079 -0.2950 -0.0809 -0.0445
   39BOLB   C4A  920   8.730  22.499  23.294 -0.4695 -0.1110  0.1805
   39BOLB   C1B  921   8.762  23.716  22.887 -0.1535 -0.2817  0.0322
   39BOLB   C2B  922   9.028  23.536  23.236 -0.2946 -0.2188 -0.2505
   39BOLB   C3B  923   9.097  23.382  23.561  0.1731  0.1588  0.2102
   39BOLB   C4B  924   9.303  23.249  23.868  0.1025 -0.1187  0.2852
   39BOLB   NC2  925   8.058  23.092  25.596  0.0837 -0.3078  0.2587
   39BOLB   PO2  926   7.666  23.013  25.401  0.1458 -0.2870  0.0239
   39BOLB   GL3  927   8.084  22.778  25.206  0.1657 -0.3146  0.2186
   39BOLB   GL4  928   8.113  22.465  25.294  0.0066  0.0198 -0.0287
   39BOLB   C1C  929   8.365  22.789  24.914  0.1751 -0.2092  0.3337
   39BOLB   C2C  930   8.601  22.608  24.621 -0.0668 -0.0269  0.0542
   39BOLB   C3C  931   8.817  22.408  24.179  0.1606  0.2797  0.0062
   39BOLB   C4C  932   8.652  22.370  23.700 -0.1240  0.0172  0.0092
   39BOLB   C1D  933   8.341  22.059  25.357  0.3274  0.2061  0.3898
   39BOLB   C2D  934   8.374  21.752  25.003  0.1142  0.0832 -0.1675
   39BOLB   C3D  935   8.479  21.661  24.530  0.0763 -0.6675  0.0610
   39BOLB   C4D  936   8.242  21.711  24.176 -0.2549  0.0697 -0.2216
   40BOLB   NC1  937   6.330  16.371  20.862  0.3954  0.3957  0.1386
   40BOLB   PO1  938   6.137  16.773  20.672 -0.0993  0.0507 -0.0563
   40BOLB   GL1  939   6.104  16.960  21.095  0.0820 -0.1330  0.0182
   40BOLB   GL2  940   6.101  17.261  21.226 -0.0890  0.0867  0.1572
   40BOLB   C1A  941   5.934  16.825  21.583  0.0686 -0.3035  0.1918
   40BOLB   C2A  942   5.741  17.034  21.919 -0.1781  0.1631  0.0928
   40BOLB   C3A  943   5.799  17.106  22.362  0.2077  0.0203 -0.2511
   40BOLB   C4A  944   5.609  17.176  22.819 -0.0235  0.1169  0.0893
   40BOLB   C1B  945   5.959  17.374  21.711  0.4347  0.0107 -0.6144
   40BOLB   C2B  946   5.700  17.638  21.969 -0.1390  0.0473  0.0159
   40BOLB   C3B  947   5.474  17.579  22.355 -0.2747 -0.2158  0.1159
   40BOLB   C4B  948   5.149  17.612  22.588 -0.0634 -0.0286  0.0172
   40BOLB   NC2  949   4.542  17.563  24.911 -0.0600 -0.2308 -0.3754
   40BOLB   PO2  950   4.072  17.464  24.669  0.1982 -0.3630 -0.1456
   40BOLB   GL3  951   4.462  17.441  24.402 -0.2381  0.4435  0.1513
   40BOLB   GL4  952   4.698  17.746  24.480 -0.1890  0.2235 -0.0317
   40BOLB   C1C  953   4.677  17.125  24.054 -0.1487 -0.1251 -0.0613
   40BOLB   C2C  954   5.065  16.991  23.790 -0.1321 -0.4645  0.2102
   40BOLB   C3C  955   5.349  16.917  23.430 -0.0268 -0.0178 -0.0518
   40BOLB   C4C  956   5.483  17.223  23.167  0.2226  0.1226  0.0666
   40BOLB   C1D  957   4.950  17.657  24.333 -0.3318 -0.0331  0.1333
   40BOLB   C2D  958   5.307  17.603  23.967 -0.0789  0.0367  0.3069
   40BOLB   C3D  959   5.636  17.493  23.681  0.2518 -0.2996 -0.1640
   40BOLB   C4D  960   5.886  17.444  23.369  0.1774 -0.2803 -0.1959
   41BOLB   NC1  961   6.350  17.262  20.778  0.2602 -0.3917  0.1394
   41BOLB   PO1  962   6.682  17.461  20.789 -0.0294 -0.1587  0.1111
   41BOLB   GL1  963   6.463  17.627  21.137 -0.0053 -0.1317  0.2005
   41BOLB   GL2  964   6.319  17.965  20.994  0.0391 -0.1671  0.3559
   41BOLB   C1A  965   6.095  17.703  21.342  0.0538 -0.0641  0.1300
   41BOLB   C2A  966   5.766  17.868  21.549  0.1592 -0.1292  0.1272
   41BOLB   C3A  967   5.403  18.086  21.619 -0.1574  0.1598  0.0472
   41BOLB   C4A  968   4.982  18.081  21.927 -0.0149  0.1349  0.1780
   41BOLB   C1B  969   6.061  18.174  21.184  0.3277 -0.3388 -0.3400
   41BOLB   C2B  970   5.887  18.344  21.608 -0.0177  0.1460  0.0600
   41BOLB   C3B  971   5.459  18.544  21.866 -0.0928  0.0331  0.0885
   41BOLB   C4B  972   5.017  18.596  21.978  0.0390  0.0155  0.1375
   41BOLB   NC2  973   3.388  18.918  23.983  0.3277  0.3160 -0.1046
   41BOLB   PO2  974   3.347  18.909  23.538  0.1166  0.1457 -0.0346
   41BOLB   GL3  975   3.545  18.569  23.338 -0.2029  0.4610  0.0824
   41BOLB   GL4  976   3.745  18.697  23.017 -0.2740 -0.0062 -0.0185
   41BOLB   C1C  977   3.570  18.223  22.953  0.2125 -0.1618  0.1370
   41BOLB   C2C  978   3.829  18.248  22.588  0.2396 -0.1184  0.1000
   41BOLB   C3C  979   4.258  18.181  22.246 -0.0444 -0.1997  0.1967
   41BOLB   C4C  980   4.607  18.329  22.045 -0.0597  0.1984  0.2386
   41BOLB   C1D  981   4.074  18.458  22.965  0.3891 -0.1841 -0.1448
   41BOLB   C2D  982   4.318  18.140  22.759  0.0866 -0.1896 -0.0017
   41BOLB   C3D  983   4.636  17.991  22.459 -0.0412  0.0283 -0.0639
   41BOLB   C4D  984   4.880  17.752  22.207 -0.1682  0.1549  0.0817
   42BOLB   NC1  985   8.669  17.885  22.569  0.4352  0.2102  0.0770
   42BOLB   PO1  986   8.485  17.714  22.860  0.2258 -0.2757 -0.3215
   42BOLB   GL1  987   8.372  17.821  23.289  0.0962  0.2922  0.3067
   42BOLB   GL2  988   7.993  17.847  23.178 -0.1887  0.0923  0.1650
   42BOLB   C1A  989   8.158  17.859  23.671  0.2803 -0.2425  0.0724
   42BOLB   C2A  990   7.810  17.891  23.939 -0.5319  0.1491 -0.1555
   42BOLB   C3A  991   7.740  18.134  24.199  0.0036 -0.1713  0.2846
   42BOLB   C4A  992   7.834  18.265  24.555 -0.0669 -0.1295 -0.2314
   42BOLB   C1B  993   7.810  17.556  23.480  0.0218 -0.2644 -0.2303
   42BOLB   C2B  994   7.699  17.401  23.791  0.0365 -0.1241 -0.1148
   42BOLB   C3B  995   7.566  17.380  24.166  0.3589  0.3920 -0.2360
   42BOLB   C4B  996   7.415  17.633  24.556  0.3516  0.0357  0.1935
   42BOLB   NC2  997   7.362  18.135  26.911 -0.0062  0.2479  0.5479
   42BOLB   PO2  998   7.811  18.254  26.953  0.0825 -0.4776  0.0267
   42BOLB   GL3  999   7.830  18.444  26.486  0.1879 -0.0710 -0.4128
   42BOLB   GL4 1000   7.597  18.324  26.412  0.1355 -0.3074 -0.0100
   42BOLB   C1C 1001   7.769  18.678  26.062  0.0719  0.1689 -0.1034
   42BOLB   C2C 1002   7.756  18.506  25.659  0.0201  0.0555 -0.1191
   42BOLB   C3C 1003   7.605  18.594  25.285  0.0921 -0.0249  0.2272
   42BOLB   C4C 1004   7.702  18.555  24.862 -0.0617  0.0157  0.1789
   42BOLB   C1D 1005   7.688  18.046  26.121  0.1463 -0.0810  0.3297
   42BOLB   C2D 1006   7.982  17.726  26.061 -0.1091 -0.3105  0.1065
   42BOLB   C3D 1007   8.390  17.548  26.109 -0.0698  0.0255 -0.0321
   42BOLB   C4D 1008   8.574  17.184  26.319  0.0322  0.1562  0.2749
   43BOLB   NC1 1009   3.767  15.326  18.116  0.0962  0.1295 -0.0447
   43BOLB   PO1 1010   3.355  15.564  18.138 -0.0833  0.2203 -0.2634
   43BOLB   GL1 1011   3.510  15.946  18.113 -0.0911 -0.1120 -0.0073
   43BOLB   GL2 1012   3.761  15.874  18.171 -0.0776 -0.0157 -0.3264
   43BOLB   C1A 1013   3.478  16.277  18.334 -0.2411  0.0816 -0.1219
   43BOLB   C2A 1014   3.653  16.598  18.534  0.2158 -0.4233 -0.0374
   43BOLB   C3A 1015   4.003  16.661  18.650  0.1641 -0.3164  0.1635
   43BOLB   C4A 1016   3.927  16.473  19.012  0.1577 -0.2020 -0.0466
   43BOLB   C1B 1017   3.907  15.984  17.842  0.0975  0.3296 -0.0622
   43BOLB   C2B 1018   3.848  16.417  17.464 -0.0419  0.0744  0.3112
   43BOLB   C3B 1019   3.596  16.617  17.183 -0.2311 -0.0444  0.3167
   43BOLB   C4B 1020   3.328  16.672  16.771 -0.1364  0.3761 -0.1938
   43BOLB   NC2 1021   1.920  16.126  19.488  0.0581 -0.0030 -0.1744
   43BOLB   PO2 1022   2.073  16.286  19.055 -0.1071 -0.0179 -0.0535
   43BOLB   GL3 1023   2.449  16.257  19.362 -0.0210 -0.0761  0.2930
   43BOLB   GL4 1024   2.709  16.014  19.248 -0.2741  0.1040  0.4585
   43BOLB   C1C 1025   2.883  16.478  19.490 -0.0516 -0.0399 -0.2240
   43BOLB   C2C 1026   3.150  16.373  19.951 -0.0677 -0.3414  0.1808
   43BOLB   C3C 1027   3.577  16.245  19.870 -0.0653  0.0521  0.1624
   43BOLB   C4C 1028   3.866  16.259  19.476  0.1856  0.1417  0.0521
   43BOLB   C1D 1029   3.017  16.246  19.084 -0.1238  0.1095 -0.1619
   43BOLB   C2D 1030   2.844  16.617  18.863 -0.0908 -0.0346  0.0241
   43BOLB   C3D 1031   2.630  16.801  18.540 -0.1358  0.1365  0.0080
   43BOLB   C4D 1032   2.860  17.102  18.275  0.1582  0.3295  0.0809
   44BOLB   NC1 1033   9.142  22.600  22.122 -0.1705  0.1350  0.0939
   44BOLB   PO1 1034   9.445  22.246  22.347  0.0944 -0.0178  0.2045
   44BOLB   GL1 1035   9.056  22.249  22.525 -0.1402  0.0893 -0.3329
   44BOLB   GL2 1036   8.952  22.171  22.794  0.0527 -0.0344 -0.0189
   44BOLB   C1A 1037   8.615  22.104  22.444 -0.2733  0.1073  0.2108
   44BOLB   C2A 1038   8.349  21.790  22.443  0.0831  0.4039  0.1356
   44BOLB   C3A 1039   7.998  21.554  22.750  0.1407 -0.0528  0.0640
   44BOLB   C4A 1040   7.495  21.684  22.981 -0.2055  0.3089  0.0432
   44BOLB   C1B 1041   8.634  22.486  22.767 -0.0719 -0.0270 -0.0225
   44BOLB   C2B 1042   8.536  22.870  22.548  0.2753 -0.0034  0.0331
   44BOLB   C3B 1043   8.110  23.206  22.519 -0.0818  0.3476 -0.1324
   44BOLB   C4B 1044   7.833  23.106  22.358 -0.0236  0.0748 -0.0770
   44BOLB   NC2 1045   5.330  22.343  23.200 -0.1381  0.0227  0.2552
   44BOLB   PO2 1046   5.078  22.343  23.604  0.1638 -0.0376 -0.0398
   44BOLB   GL3 1047   5.462  22.043  23.646 -0.1064  0.0563 -0.0851
   44BOLB   GL4 1048   5.506  21.904  23.904 -0.4474  0.2540 -0.0437
   44BOLB   C1C 1049   5.860  21.852  23.562 -0.1218 -0.2353 -0.0162
   44BOLB   C2C 1050   6.283  21.732  23.290  0.0263 -0.1657 -0.2339
   44BOLB   C3C 1051   6.625  21.544  23.277  0.0490  0.0056  0.2084
   44BOLB   C4C 1052   7.084  21.654  23.142  0.0365  0.2313  0.2515
   44BOLB   C1D 1053   5.859  21.778  24.065 -0.2070 -0.0640  0.3068
   44BOLB   C2D 1054   6.309  21.841  24.265 -0.0116  0.0766  0.1500
   44BOLB   C3D 1055   6.726  21.790  24.205 -0.1296 -0.3836 -0.1189
   44BOLB   C4D 1056   6.970  22.146  24.046  0.2119  0.0594  0.0179
   45BOLB   NC1 1057   6.222  14.259  21.416 -0.0151 -0.2140 -0.1067
   45BOLB   PO1 1058   6.471  14.119  21.613 -0.2887  0.4152  0.0429
   45BOLB   GL1 1059   6.257  14.084  21.988  0.3428 -0.2733  0.3813
   45BOLB   GL2 1060   5.979  14.231  21.914  0.0557  0.2170  0.1567
   45BOLB   C1A 1061   6.095  14.190  22.477  0.0045  0.0368 -0.1586
   45BOLB   C2A 1062   6.223  14.150  22.926 -0.0511  0.2999  0.1586
   45BOLB   C3A 1063   6.168  14.120  23.428  0.2834 -0.2878  0.0303
   45BOLB   C4A 1064   6.136  14.167  23.894  0.0119  0.0868  0.1076
   45BOLB   C1B 1065   5.757  14.531  22.228  0.0668  0.2583 -0.1428
   45BOLB   C2B 1066   5.541  14.644  22.507  0.0074  0.0466 -0.1929
   45BOLB   C3B 1067   5.331  14.948  22.590 -0.0103  0.0616  0.1215
   45BOLB   C4B 1068   4.962  15.047  22.404  0.0874  0.1517  0.0963
   45BOLB   NC2 1069   5.853  14.518  26.548  0.0575  0.0198 -0.3680
   45BOLB   PO2 1070   5.910  14.415  26.115  0.2243  0.0430  0.1509
   45BOLB   GL3 1071   6.209  14.526  25.789  0.2731 -0.1371  0.0791
   45BOLB   GL4 1072   6.394  14.878  25.946 -0.0815 -0.3327 -0.0712
   45BOLB   C1C 1073   6.466  14.453  25.439 -0.0059 -0.1651 -0.0972
   45BOLB   C2C 1074   6.361  14.060  25.051 -0.0041  0.0237 -0.3421
   45BOLB   C3C 1075   6.094  14.111  24.691 -0.2226  0.0758 -0.2641
   45BOLB   C4C 1076   6.055  14.057  24.283 -0.0993 -0.0417 -0.1311
   45BOLB   C1D 1077   6.385  15.248  25.644  0.2356 -0.0216 -0.0449
   45BOLB   C2D 1078   6.354  15.669  25.752 -0.0118 -0.0148  0.2243
   45BOLB   C3D 1079   6.612  16.031  25.700 -0.1710 -0.2116  0.0850
   45BOLB   C4D 1080   6.841  16.464  25.705  0.1662 -0.0569  0.2191
   46BOLB   NC1 1081   7.473  19.365  21.257 -0.0740  0.0740  0.1008
   46BOLB   PO1 1082   6.986  19.164  21.282 -0.2219  0.0681  0.0350
   46BOLB   GL1 1083   6.979  19.562  21.275  0.1199  0.2286 -0.1027
   46BOLB   GL2 1084   7.083  19.757  21.060 -0.2527 -0.0380 -0.1074
   46BOLB   C1A 1085   6.672  19.957  21.126  0.2143  0.0496 -0.0832
   46BOLB   C2A 1086   6.330  20.175  21.313  0.0985  0.1158  0.0173
   46BOLB   C3A 1087   6.115  20.278  21.743  0.3051  0.1194  0.0594
   46BOLB   C4A 1088   6.228  20.216  22.155 -0.1056 -0.0198  0.2900
   46BOLB   C1B 1089   7.048  20.098  20.831 -0.0829  0.2594 -0.0400
   46BOLB   C2B 1090   6.873  20.507  20.689 -0.0447 -0.0117 -0.1786
   46BOLB   C3B 1091   6.699  20.893  20.630  0.1440 -0.1961  0.2936
   46BOLB   C4B 1092   6.339  21.030  20.368  0.1023 -0.0647 -0.1231
   46BOLB   NC2 1093   4.626  21.361  22.688  0.0948 -0.1726 -0.3945
   46BOLB   PO2 1094   4.533  21.155  23.136 -0.2285  0.0809 -0.1782
   46BOLB   GL3 1095   5.006  21.154  23.106 -0.0407  0.1247 -0.2250
   46BOLB   GL4 1096   4.923  20.853  22.975 -0.2652  0.1057  0.0586
   46BOLB   C1C 1097   5.386  20.771  23.062 -0.3002  0.0317 -0.0897
   46BOLB   C2C 1098   5.571  20.436  22.924  0.1131  0.0657  0.0862
   46BOLB   C3C 1099   5.665  20.071  22.740 -0.0291  0.1891 -0.0925
   46BOLB   C4C 1100   5.917  19.996  22.485 -0.1053  0.0553  0.0350
   46BOLB   C1D 1101   5.128  20.584  22.674 -0.2602  0.0305 -0.1597
   46BOLB   C2D 1102   5.450  20.409  22.350 -0.0541  0.4187 -0.0576
   46BOLB   C3D 1103   5.453  19.940  22.148 -0.2575  0.0515 -0.0394
   46BOLB   C4D 1104   5.471  19.473  21.850 -0.0934  0.2863  0.2075
   47BOLB   NC1 1105   8.140  12.840  22.901 -0.0316  0.0360 -0.1034
   47BOLB   PO1 1106   8.292  12.445  22.962 -0.0648 -0.3139  0.1132
   47BOLB   GL1 1107   8.186  12.583  23.358 -0.3011  0.0728 -0.1617
   47BOLB   GL2 1108   8.068  12.842  23.430 -0.1157 -0.1269  0.1651
   47BOLB   C1A 1109   8.310  12.563  23.798 -0.1485  0.0854  0.0057
   47BOLB   C2A 1110   8.096  12.454  24.180 -0.2109  0.1536 -0.0641
   47BOLB   C3A 1111   7.882  12.297  24.458  0.2773 -0.3657 -0.1203
   47BOLB   C4A 1112   7.831  12.155  24.920 -0.2845 -0.2751  0.3379
   47BOLB   C1B 1113   7.812  12.824  23.777  0.0171  0.3037  0.1355
   47BOLB   C2B 1114   7.337  12.781  23.938  0.0336 -0.0929  0.0115
   47BOLB   C3B 1115   7.053  12.591  23.846 -0.2025  0.0844 -0.2501
   47BOLB   C4B 1116   6.988  12.337  23.462  0.2818 -0.1307  0.0996
   47BOLB   NC2 1117   7.189  10.941  27.255 -0.0855  0.0532  0.3922
   47BOLB   PO2 1118   7.549  11.034  26.970  0.3656  0.2439 -0.3064
   47BOLB   GL3 1119   7.747  11.289  26.659 -0.3394  0.0681 -0.1690
   47BOLB   GL4 1120   8.012  11.093  26.631  0.2497  0.4983  0.0153
   47BOLB   C1C 1121   7.821  11.581  26.353  0.1638  0.3974 -0.0043
   47BOLB   C2C 1122   7.875  11.753  25.996 -0.1287  0.1204  0.2626
   47BOLB   C3C 1123   7.719  11.953  25.659  0.0176 -0.0066 -0.0047
   47BOLB   C4C 1124   7.681  12.146  25.397 -0.1751 -0.0792  0.0971
   47BOLB   C1D 1125   8.099  11.178  26.186  0.1011  0.3869 -0.1207
   47BOLB   C2D 1126   8.242  11.393  25.828  0.1915 -0.0837 -0.1244
   47BOLB   C3D 1127   8.427  11.703  25.510  0.0468 -0.0310  0.1760
   47BOLB   C4D 1128   8.718  11.720  25.209  0.1182  0.0317  0.4780
   48BOLB   NC1 1129   8.696  20.051  22.186  0.0520 -0.1279 -0.1528
   48BOLB   PO1 1130   8.249  19.837  22.150  0.0575  0.1529  0.0049
   48BOLB   GL1 1131   7.945  19.828  22.430  0.0631 -0.0176 -0.2455
   48BOLB   GL2 1132   7.694  20.055  22.369  0.0616 -0.1714 -0.0990
   48BOLB   C1A 1133   7.735  19.881  22.925  0.0943  0.1005 -0.0293
   48BOLB   C2A 1134   7.476  19.681  23.073 -0.0447  0.1437  0.0012
   48BOLB   C3A 1135   7.039  19.778  23.262 -0.2910 -0.0365 -0.2243
   48BOLB   C4A 1136   6.842  19.729  23.545 -0.0438  0.0548  0.0991
   48BOLB   C1B 1137   7.565  20.223  22.658 -0.0456  0.0866  0.0636
   48BOLB   C2B 1138   7.374  20.575  22.807 -0.1546  0.1194  0.0140
   48BOLB   C3B 1139   7.010  20.808  22.738  0.4207  0.0054  0.2597
   48BOLB   C4B 1140   6.628  20.968  22.999 -0.1012  0.3663  0.5003
   48BOLB   NC2 1141   6.190  20.112  25.937 -0.1878 -0.2166 -0.0354
   48BOLB   PO2 1142   6.350  20.421  25.617 -0.2736 -0.0429 -0.0026
   48BOLB   GL3 1143   6.542  20.331  25.219  0.1691 -0.1832  0.0929
   48BOLB   GL4 1144   6.742  20.538  25.063 -0.1479  0.2069  0.0546
   48BOLB   C1C 1145   6.687  19.928  24.972  0.1443  0.1418  0.2399
   48BOLB   C2C 1146   6.959  19.741  24.767  0.0962 -0.0490  0.0880
   48BOLB   C3C 1147   7.082  19.742  24.272 -0.2532  0.0519  0.1754
   48BOLB   C4C 1148   6.859  19.868  23.992  0.4548 -0.1933  0.4004
   48BOLB   C1D 1149   6.991  20.313  24.813  0.2957  0.2692 -0.0010
   48BOLB   C2D 1150   7.334  20.095  24.609  0.2016 -0.0767  0.3732
   48BOLB   C3D 1151   7.664  20.047  24.269  0.2612 -0.1394  0.1615
   48BOLB   C4D 1152   7.967  19.837  24.245 -0.1026  0.2138 -0.5584
   49BOLB   NC1 1153   5.292  16.593  18.650 -0.1821  0.2275  0.0089
   49BOLB   PO1 1154   4.933  16.540  19.035  0.1269 -0.1086  0.2580
   49BOLB   GL1 1155   4.960  16.841  19.253 -0.0071 -0.0848  0.1084
   49BOLB   GL2 1156   4.958  17.116  19.187  0.1832  0.1134 -0.0376
   49BOLB   C1A 1157   4.608  16.975  19.445 -0.0663  0.0269  0.1780
   49BOLB   C2A 1158   4.356  16.967  19.722  0.1107 -0.0644 -0.3248
   49BOLB   C3A 1159   4.298  17.190  20.075 -0.1454 -0.0648 -0.1217
   49BOLB   C4A 1160   4.484  17.453  20.302 -0.4763  0.0247  0.0255
   49BOLB   C1B 1161   5.030  17.539  18.996  0.1358 -0.2254  0.0679
   49BOLB   C2B 1162   4.749  17.867  18.829 -0.3201 -0.0093 -0.0091
   49BOLB   C3B 1163   4.663  18.223  18.539  0.6373  0.0395  0.0032
   49BOLB   C4B 1164   4.539  18.581  18.097 -0.0987 -0.0452  0.3022
   49BOLB   NC2 1165   3.532  19.930  20.889  0.1745 -0.2003  0.5314
   49BOLB   PO2 1166   3.145  19.861  20.906 -0.0652  0.1126 -0.2464
   49BOLB   GL3 1167   3.464  19.436  20.903  0.1272 -0.0742 -0.0067
   49BOLB   GL4 1168   3.436  19.412  20.578 -0.0193 -0.1814  0.3014
   49BOLB   C1C 1169   3.670  18.956  20.852  0.0606 -0.0081  0.1496
   49BOLB   C2C 1170   3.745  18.462  20.673 -0.1897 -0.1731  0.2134
   49BOLB   C3C 1171   3.917  18.064  20.632 -0.2878 -0.3862 -0.0092
   49BOLB   C4C 1172   4.272  17.773  20.605 -0.2118 -0.4497 -0.4281
   49BOLB   C1D 1173   3.233  19.043  20.673 -0.1603  0.3071  0.2526
   49BOLB   C2D 1174   3.252  18.584  20.851  0.2809 -0.4238  0.1991
   49BOLB   C3D 1175   3.118  18.092  20.760  0.0082  0.1593  0.3033
   49BOLB   C4D 1176   3.294  17.745  20.540  0.0333 -0.2378 -0.0655
   50BOLB   NC1 1177   8.272  24.894  22.577 -0.3880  0.2303 -0.1163
   50BOLB   PO1 1178   8.629  24.886  22.323  0.0162  0.2956  0.3645
   50BOLB   GL1 1179   8.819  24.888  22.658 -0.2846  0.4361 -0.0814
   50BOLB   GL2 1180   8.939  25.151  22.852  0.1681 -0.0278  0.0292
   50BOLB   C1A 1181   9.135  24.600  22.910  0.3192  0.0502  0.1110
   50BOLB   C2A 1182   9.430  24.244  23.116  0.0705  0.2750 -0.1207
   50BOLB   C3A 1183   9.485  24.225  23.623 -0.0818 -0.0345 -0.2393
   50BOLB   C4A 1184   9.316  24.046  24.010  0.3463 -0.1881 -0.2573
   50BOLB   C1B 1185   8.787  24.865  23.207  0.0747  0.2336  0.2707
   50BOLB   C2B 1186   8.846  24.837  23.654  0.1059 -0.2097 -0.1212
   50BOLB   C3B 1187   8.887  24.848  24.150  0.1666  0.3209  0.2007
   50BOLB   C4B 1188   9.245  24.714  24.487 -0.0029 -0.2322  0.0278
   50BOLB   NC2 1189   8.881  25.148  25.363 -0.1143 -0.2337 -0.3060
   50BOLB   PO2 1190   9.048  24.746  25.421  0.2312  0.1785 -0.1202
   50BOLB   GL3 1191   8.936  24.375  25.223  0.1017  0.4375  0.2844
   50BOLB   GL4 1192   8.506  24.262  25.068 -0.0424  0.1079  0.4553
   50BOLB   C1C 1193   8.973  23.958  25.016  0.5046 -0.5041  0.2133
   50BOLB   C2C 1194   8.931  23.485  24.792  0.1522 -0.3296 -0.0361
   50BOLB   C3C 1195   9.134  23.453  24.367  0.0265 -0.0543  0.3695
   50BOLB   C4C 1196   9.132  23.674  24.027 -0.1035 -0.2345  0.0060
   50BOLB   C1D 1197   8.515  23.833  24.848 -0.0786 -0.2001  0.0404
   50BOLB   C2D 1198   8.290  23.508  24.648  0.0710  0.1194  0.2776
   50BOLB   C3D 1199   8.044  23.297  24.255  0.2360 -0.2356  0.0127
   50BOLB   C4D 1200   8.047  23.156  23.884  0.0776 -0.0447  0.2410
   51BOLB   NC1 1201   3.956  13.256  21.590 -0.0386 -0.3623  0.0188
   51BOLB   PO1 1202   4.241  13.334  21.930  0.2688 -0.3264 -0.3494
   51BOLB   GL1 1203   4.332  13.598  21.921 -0.0495  0.2262  0.3637
   51BOLB   GL2 1204   4.673  13.699  21.942 -0.1782  0.1446 -0.0297
   51BOLB   C1A 1205   4.346  13.983  21.743 -0.1494  0.4907  0.1893
   51BOLB   C2A 1206   4.394  14.441  21.526 -0.0839  0.2456 -0.2350
   51BOLB   C3A 1207   4.399  14.846  21.696 -0.2794 -0.3240  0.2540
   51BOLB   C4A 1208   4.177  15.194  21.802 -0.1367  0.3109 -0.0976
   51BOLB   C1B 1209   4.987  13.887  22.214  0.2095  0.1003  0.0683
   51BOLB   C2B 1210   4.900  13.990  22.627 -0.0435  0.1686 -0.1153
   51BOLB   C3B 1211   4.841  14.181  23.016 -0.2287  0.1225 -0.1357
   51BOLB   C4B 1212   4.723  14.549  23.041  0.1505  0.0225  0.1478
   51BOLB   NC2 1213   2.414  14.833  22.004  0.2488 -0.0548  0.0680
   51BOLB   PO2 1214   2.520  14.984  22.419  0.1146  0.1645  0.1693
   51BOLB   GL3 1215   2.916  15.168  22.578 -0.0722  0.0341 -0.1361
   51BOLB   GL4 1216   3.106  15.311  22.899  0.0427  0.2588 -0.0513
   51BOLB   C1C 1217   3.162  15.576  22.490 -0.0655  0.0401  0.0186
   51BOLB   C2C 1218   3.374  15.810  22.226  0.0438 -0.0219  0.0606
   51BOLB   C3C 1219   3.651  15.839  21.967  0.0129  0.0585 -0.0114
   51BOLB   C4C 1220   3.840  15.527  21.843  0.3189 -0.0569  0.0076
   51BOLB   C1D 1221   3.333  14.911  22.721  0.0371  0.1726 -0.3668
   51BOLB   C2D 1222   3.337  14.723  22.402 -0.3016 -0.1276  0.0781
   51BOLB   C3D 1223   3.678  14.341  22.222  0.2430  0.0736  0.2226
   51BOLB   C4D 1224   4.111  13.988  22.189  0.4414 -0.0104 -0.0998
   52BOLB   NC1 1225   8.344  18.932  22.334  0.1983  0.1121 -0.0535
   52BOLB   PO1 1226   8.364  18.624  22.543 -0.0279 -0.3248 -0.0389
   52BOLB   GL1 1227   8.026  18.710  22.818  0.2942 -0.1224  0.0813
   52BOLB   GL2 1228   7.905  18.888  22.653  0.0297  0.0943 -0.1766
   52BOLB   C1A 1229   7.815  18.815  23.302  0.0532  0.2827  0.1934
   52BOLB   C2A 1230   7.507  18.948  23.483  0.0920  0.2217 -0.1042
   52BOLB   C3A 1231   7.195  18.828  23.864  0.0984 -0.1033 -0.0213
   52BOLB   C4A 1232   6.994  18.794  24.132 -0.0141 -0.4210 -0.3268
   52BOLB   C1B 1233   7.569  19.059  22.976  0.1908 -0.1491  0.2158
   52BOLB   C2B 1234   7.213  19.254  23.174  0.2128 -0.3885 -0.0858
   52BOLB   C3B 1235   6.741  19.430  23.098  0.1028  0.1290  0.1247
   52BOLB   C4B 1236   6.317  19.325  22.827  0.3934  0.1288  0.4197
   52BOLB   NC2 1237   5.996  20.480  25.250 -0.0318 -0.0388  0.0365
   52BOLB   PO2 1238   5.829  20.168  25.577 -0.0490  0.0018 -0.2715
   52BOLB   GL3 1239   6.111  19.891  25.256 -0.0226  0.0699  0.1678
   52BOLB   GL4 1240   6.151  20.047  24.943 -0.2141  0.1241  0.1736
   52BOLB   C1C 1241   6.164  19.442  25.179 -0.3389  0.0067 -0.1386
   52BOLB   C2C 1242   6.183  19.016  24.999  0.0759 -0.1028  0.2398
   52BOLB   C3C 1243   6.426  18.772  24.689  0.0593 -0.1142  0.0060
   52BOLB   C4C 1244   6.811  18.942  24.502 -0.0450 -0.2026 -0.3046
   52BOLB   C1D 1245   6.355  19.647  24.707 -0.1080 -0.2977  0.0602
   52BOLB   C2D 1246   6.688  19.466  24.437  0.0173 -0.2486 -0.0677
   52BOLB   C3D 1247   7.096  19.295  24.653  0.3263 -0.0269  0.0780
   52BOLB   C4D 1248   7.372  19.036  24.845 -0.0615 -0.3292 -0.3177
   53BOLB   NC1 1249   5.455  15.829  19.817 -0.6946 -0.0310 -0.2368
   53BOLB   PO1 1250   5.047  15.785  19.636  0.1447 -0.1453 -0.3405
   53BOLB   GL1 1251   4.704  16.150  19.662  0.1957  0.3141 -0.0777
   53BOLB   GL2 1252   4.836  16.443  19.658  0.3127  0.0564  0.0126
   53BOLB   C1A 1253   4.364  16.403  19.732 -0.0706 -0.0495 -0.1972
   53BOLB   C2A 1254   4.055  16.397  19.997 -0.0764  0.1005  0.0992
   53BOLB   C3A 1255   3.754  16.709  19.985 -0.3514 -0.0706 -0.2392
   53BOLB   C4A 1256   3.438  16.823  19.711  0.0211  0.2406 -0.0728
   53BOLB   C1B 1257   4.873  16.855  19.912  0.4331 -0.0942 -0.0706
   53BOLB   C2B 1258   4.767  17.250  19.850  0.0380  0.0151 -0.0585
   53BOLB   C3B 1259   4.750  17.671  19.949 -0.2390 -0.0337 -0.0366
   53BOLB   C4B 1260   4.534  17.942  20.178 -0.0816 -0.0341 -0.1422
   53BOLB   NC2 1261   2.588  15.719  17.328  0.2719  0.0205  0.1598
   53BOLB   PO2 1262   2.551  16.116  17.339 -0.0359 -0.3714 -0.0314
   53BOLB   GL3 1263   2.869  16.208  17.764  0.2658  0.0053 -0.5199
   53BOLB   GL4 1264   3.186  15.903  17.794  0.0482  0.0834  0.1525
   53BOLB   C1C 1265   3.018  16.269  18.128  0.1651 -0.0842  0.3649
   53BOLB   C2C 1266   3.089  16.255  18.593  0.5222 -0.1222 -0.1217
   53BOLB   C3C 1267   3.391  16.481  18.954  0.0685  0.3607  0.0119
   53BOLB   C4C 1268   3.386  16.490  19.395 -0.0152 -0.0865  0.2142
   53BOLB   C1D 1269   3.408  16.344  17.732 -0.2488 -0.0659  0.2157
   53BOLB   C2D 1270   3.650  16.777  17.751 -0.2024 -0.2450  0.0301
   53BOLB   C3D 1271   3.874  17.154  17.816 -0.1859  0.0570  0.1597
   53BOLB   C4D 1272   4.172  17.310  17.622 -0.4206  0.0205  0.0714
   54BOLB   NC1 1273   7.446  15.498  22.306  0.4261  0.0062 -0.0627
   54BOLB   PO1 1274   7.692  15.965  22.203 -0.1461 -0.0724  0.1552
   54BOLB   GL1 1275   7.756  16.126  22.656 -0.1652 -0.0751 -0.0764
   54BOLB   GL2 1276   7.549  16.058  22.826  0.0006  0.1956  0.0818
   54BOLB   C1A 1277   7.818  16.378  23.083 -0.1670  0.1527  0.2155
   54BOLB   C2A 1278   7.716  16.495  23.418 -0.0938 -0.0039  0.2068
   54BOLB   C3A 1279   7.341  16.633  23.588  0.0026  0.2384  0.1089
   54BOLB   C4A 1280   7.156  16.677  24.035 -0.1312 -0.0435 -0.4554
   54BOLB   C1B 1281   7.322  16.362  22.988  0.0449  0.0828 -0.0901
   54BOLB   C2B 1282   7.325  16.739  23.025 -0.3320  0.2880  0.1035
   54BOLB   C3B 1283   7.100  16.969  23.261 -0.0838  0.3119  0.1677
   54BOLB   C4B 1284   6.832  17.322  23.374 -0.2556  0.0638 -0.0803
   54BOLB   NC2 1285   5.776  17.112  26.804  0.0512 -0.0707 -0.5461
   54BOLB   PO2 1286   6.028  16.958  26.465  0.0407 -0.4830  0.1032
   54BOLB   GL3 1287   6.292  16.861  26.137  0.1188 -0.2321 -0.1195
   54BOLB   GL4 1288   6.003  16.885  25.941 -0.4558 -0.1025  0.0391
   54BOLB   C1C 1289   6.503  16.776  25.734 -0.1635  0.1722  0.0174
   54BOLB   C2C 1290   6.835  16.762  25.309  0.4909  0.1022 -0.2038
   54BOLB   C3C 1291   7.002  16.534  24.853  0.1694 -0.2569  0.4651
   54BOLB   C4C 1292   7.167  16.644  24.417 -0.0536 -0.2038 -0.4914
   54BOLB   C1D 1293   6.131  17.087  25.618 -0.1527 -0.0314 -0.0711
   54BOLB   C2D 1294   6.255  16.956  25.232 -0.3060  0.2116  0.1321
   54BOLB   C3D 1295   6.543  16.835  24.822 -0.4822 -0.1596 -0.0538
   54BOLB   C4D 1296   6.588  16.555  24.529  0.1882  0.0473  0.0521
   55BOLB   NC1 1297   7.252  11.488  22.688  0.0196  0.1097 -0.1568
   55BOLB   PO1 1298   7.431  11.859  22.482 -0.1603  0.0245  0.3914
   55BOLB   GL1 1299   7.340  12.113  22.805  0.2302  0.1113 -0.1489
   55BOLB   GL2 1300   7.058  11.877  22.993  0.3011 -0.2217  0.4242
   55BOLB   C1A 1301   7.237  12.479  23.007 -0.2750  0.1946  0.0684
   55BOLB   C2A 1302   7.124  12.844  23.204  0.2034  0.0438 -0.1561
   55BOLB   C3A 1303   6.926  13.003  23.499  0.2738  0.1114 -0.0079
   55BOLB   C4A 1304   6.839  13.084  23.965 -0.1719  0.2274  0.1082
   55BOLB   C1B 1305   6.680  12.137  22.902  0.3125  0.0561 -0.1369
   55BOLB   C2B 1306   6.264  12.296  23.068 -0.2096  0.3521  0.0437
   55BOLB   C3B 1307   6.159  12.445  23.421 -0.0791  0.1037  0.3644
   55BOLB   C4B 1308   5.816  12.528  23.676  0.1304  0.0052 -0.0611
   55BOLB   NC2 1309   5.678  12.467  26.180 -0.3591 -0.1244 -0.0809
   55BOLB   PO2 1310   5.975  12.861  26.126  0.0527  0.0245 -0.1693
   55BOLB   GL3 1311   6.305  12.712  25.827  0.1250 -0.1037  0.1383
   55BOLB   GL4 1312   6.542  12.482  25.880 -0.0748 -0.0613  0.2939
   55BOLB   C1C 1313   6.170  12.742  25.393  0.3097  0.1966  0.1516
   55BOLB   C2C 1314   6.089  13.036  25.090 -0.0984  0.1724  0.4841
   55BOLB   C3C 1315   6.261  13.199  24.699  0.0111  0.2426  0.2017
   55BOLB   C4C 1316   6.476  13.296  24.285 -0.1822  0.0444  0.1338
   55BOLB   C1D 1317   6.596  12.403  25.447 -0.0300 -0.5657 -0.1111
   55BOLB   C2D 1318   6.794  12.284  25.019 -0.1447 -0.3269 -0.0008
   55BOLB   C3D 1319   6.918  12.196  24.628 -0.2028  0.1110  0.2250
   55BOLB   C4D 1320   6.734  12.123  24.174  0.0030 -0.0356  0.0433
   56BOLB   NC1 1321   7.626  18.550  22.343  0.4953  0.1145 -0.1517
   56BOLB   PO1 1322   7.414  18.680  21.997  0.0387 -0.0765 -0.2220
   56BOLB   GL1 1323   7.095  18.918  21.977 -0.2370  0.1535 -0.0529
   56BOLB   GL2 1324   7.128  19.157  21.728 -0.2989  0.1738 -0.0057
   56BOLB   C1A 1325   6.889  19.198  22.312  0.1120 -0.0623  0.1281
   56BOLB   C2A 1326   6.832  19.557  22.520  0.3343 -0.2185  0.0058
   56BOLB   C3A 1327   6.652  19.831  22.770  0.1943 -0.1582 -0.0284
   56BOLB   C4A 1328   6.531  19.878  23.095  0.0061 -0.2947 -0.0750
   56BOLB   C1B 1329   6.707  19.376  21.892  0.0241  0.1044 -0.1696
   56BOLB   C2B 1330   6.342  19.395  22.129 -0.2403  0.1707 -0.1006
   56BOLB   C3B 1331   6.282  19.652  22.469  0.0273 -0.0849  0.2055
   56BOLB   C4B 1332   6.108  19.702  22.851 -0.2249 -0.0038 -0.0132
   56BOLB   NC2 1333   5.176  19.915  25.312  0.1275  0.2296  0.1529
   56BOLB   PO2 1334   5.418  19.600  25.114 -0.0990 -0.0522  0.1143
   56BOLB   GL3 1335   5.792  19.605  24.865 -0.2461 -0.0820 -0.1112
   56BOLB   GL4 1336   5.779  19.397  24.715  0.3346 -0.0575 -0.1572
   56BOLB   C1C 1337   5.935  19.833  24.557 -0.2589 -0.1168 -0.1136
   56BOLB   C2C 1338   6.133  20.174  24.368 -0.1025  0.1496 -0.1543
   56BOLB   C3C 1339   6.456  20.213  24.016  0.3036 -0.0099  0.1755
   56BOLB   C4C 1340   6.399  20.139  23.502  0.3997  0.2269  0.0095
   56BOLB   C1D 1341   6.102  19.282  24.585  0.1977 -0.1195 -0.0565
   56BOLB   C2D 1342   6.383  19.010  24.263 -0.1307 -0.1123 -0.4924
   56BOLB   C3D 1343   6.721  19.174  24.043 -0.0684 -0.2585 -0.1672
   56BOLB   C4D 1344   7.133  19.408  23.794 -0.0365  0.4153 -0.1802
   57BOLB   NC1 1345   4.905  21.433  19.845  0.3095  0.1638 -0.1893
   57BOLB   PO1 1346   4.975  21.523  20.362  0.1556  0.2984  0.0210
   57BOLB   GL1 1347   5.165  21.286  20.603  0.0876 -0.1262  0.4885
   57BOLB   GL2 1348   5.254  20.921  20.520 -0.2987 -0.1646 -0.1134
   57BOLB   C1A 1349   5.623  21.252  20.844 -0.1447  0.1847  0.2156
   57BOLB   C2A 1350   5.872  21.129  21.184  0.1773 -0.2187  0.0660
   57BOLB   C3A 1351   6.247  21.124  21.495 -0.5050 -0.0625  0.1063
   57BOLB   C4A 1352   6.415  21.160  21.922  0.2388 -0.0779  0.2473
   57BOLB   C1B 1353   5.235  20.955  20.977  0.2816  0.0111  0.0236
   57BOLB   C2B 1354   5.342  21.181  21.273 -0.2834 -0.1643  0.1092
   57BOLB   C3B 1355   5.533  21.403  21.600  0.1252 -0.1062  0.1906
   57BOLB   C4B 1356   5.755  21.128  21.659 -0.0353  0.1527 -0.1171
   57BOLB   NC2 1357   5.094  21.390  24.178  0.0214  0.0401  0.4324
   57BOLB   PO2 1358   4.982  21.589  23.850 -0.0526 -0.0178  0.0080
   57BOLB   GL3 1359   5.210  21.379  23.515 -0.1334  0.1522  0.0602
   57BOLB   GL4 1360   5.426  21.556  23.540 -0.1171  0.0273  0.2520
   57BOLB   C1C 1361   5.470  21.332  23.043  0.0872 -0.1432  0.3460
   57BOLB   C2C 1362   5.661  21.281  22.644 -0.2092  0.1316 -0.1893
   57BOLB   C3C 1363   5.980  21.128  22.510 -0.2376  0.2321  0.1744
   57BOLB   C4C 1364   6.221  21.209  22.190  0.1781  0.0864  0.0193
   57BOLB   C1D 1365   5.726  21.258  23.649  0.0370 -0.2253 -0.0835
   57BOLB   C2D 1366   6.055  21.265  23.501 -0.0089  0.2820 -0.0867
   57BOLB   C3D 1367   6.372  21.130  23.475  0.1038 -0.0344 -0.0459
   57BOLB   C4D 1368   6.775  21.038  23.437 -0.0904  0.1764 -0.3012
   58BOLB   NC1 1369   7.523  18.894  21.523  0.3458 -0.2008 -0.3338
   58BOLB   PO1 1370   7.643  19.185  21.741  0.1240 -0.0141 -0.2041
   58BOLB   GL1 1371   7.423  19.601  21.672  0.0260  0.2814 -0.1330
   58BOLB   GL2 1372   7.518  19.885  21.377 -0.0521  0.0515  0.0965
   58BOLB   C1A 1373   7.095  19.888  21.653  0.0382 -0.2356  0.0787
   58BOLB   C2A 1374   7.156  20.356  21.690  0.2793  0.1460  0.2626
   58BOLB   C3A 1375   6.947  20.782  21.988  0.1160  0.3059 -0.1194
   58BOLB   C4A 1376   6.806  20.908  22.328 -0.0427 -0.0792  0.1867
   58BOLB   C1B 1377   7.322  20.292  21.223 -0.2954 -0.3139 -0.0669
   58BOLB   C2B 1378   6.954  20.441  21.214  0.1998  0.1665 -0.0199
   58BOLB   C3B 1379   6.582  20.593  21.043 -0.1626  0.1985  0.0956
   58BOLB   C4B 1380   6.135  20.618  21.131  0.3074  0.2121  0.2340
   58BOLB   NC2 1381   4.875  21.926  22.095  0.3183  0.1281 -0.0579
   58BOLB   PO2 1382   4.980  21.814  22.530 -0.0800  0.1510 -0.0472
   58BOLB   GL3 1383   5.092  21.452  22.556 -0.0771 -0.2773  0.0040
   58BOLB   GL4 1384   5.364  21.457  22.303 -0.3975  0.1437  0.3364
   58BOLB   C1C 1385   5.225  21.070  22.672 -0.1088 -0.2946 -0.1589
   58BOLB   C2C 1386   5.588  20.824  22.546  0.0019  0.0922  0.1173
   58BOLB   C3C 1387   5.942  20.544  22.532 -0.0982 -0.0024  0.2401
   58BOLB   C4C 1388   6.423  20.735  22.512 -0.0316 -0.3782  0.3919
   58BOLB   C1D 1389   5.732  21.405  22.118 -0.3049  0.0783  0.0890
   58BOLB   C2D 1390   5.990  21.571  21.768 -0.0099  0.1274  0.0814
   58BOLB   C3D 1391   6.110  22.026  21.849  0.0306  0.1075  0.2010
   58BOLB   C4D 1392   6.233  22.358  22.013  0.5477  0.2422 -0.0020
   59BOLB   NC1 1393   5.690  23.026  23.475  0.0789  0.0001 -0.0213
   59BOLB   PO1 1394   5.663  22.719  23.015 -0.1357 -0.1497  0.1046
   59BOLB   GL1 1395   5.953  22.465  22.989  0.0420  0.1332  0.2997
   59BOLB   GL2 1396   5.854  22.201  23.178 -0.1668  0.2521 -0.3434
   59BOLB   C1A 1397   6.395  22.354  22.897  0.0053  0.0334  0.1911
   59BOLB   C2A 1398   6.919  22.454  23.089 -0.0257  0.0190 -0.3564
   59BOLB   C3A 1399   7.327  22.498  23.258 -0.0807 -0.3234 -0.2521
   59BOLB   C4A 1400   7.610  22.369  23.504  0.0233  0.1186 -0.0379
   59BOLB   C1B 1401   6.223  21.891  22.870  0.3128  0.0961  0.2918
   59BOLB   C2B 1402   6.493  21.586  22.748 -0.1442  0.0833  0.1244
   59BOLB   C3B 1403   6.641  21.582  22.417  0.1783  0.0077  0.0719
   59BOLB   C4B 1404   6.811  21.354  22.161  0.0263 -0.1437 -0.1447
   59BOLB   NC2 1405   7.105  22.836  25.133  0.1732 -0.4118 -0.2029
   59BOLB   PO2 1406   7.209  22.691  25.639  0.1761 -0.0300 -0.0560
   59BOLB   GL3 1407   7.277  22.392  25.263  0.4830  0.1996 -0.0206
   59BOLB   GL4 1408   7.575  22.514  25.139 -0.0054  0.1140  0.0729
   59BOLB   C1C 1409   7.351  22.013  25.075 -0.1544  0.2319  0.2190
   59BOLB   C2C 1410   7.564  22.108  24.677  0.0553 -0.2880 -0.0813
   59BOLB   C3C 1411   7.850  22.142  24.315  0.2859  0.1120  0.0703
   59BOLB   C4C 1412   7.819  22.129  23.858 -0.0360  0.1068  0.0319
   59BOLB   C1D 1413   7.877  22.477  24.863 -0.3214 -0.0546 -0.1074
   59BOLB   C2D 1414   8.254  22.282  24.812  0.2076 -0.2721 -0.1192
   59BOLB   C3D 1415   8.452  22.163  24.505 -0.0476  0.3921  0.1332
   59BOLB   C4D 1416   8.389  22.206  24.110  0.1513 -0.1363  0.0600
   60BOLB   NC1 1417   8.872   9.785  23.126  0.0735  0.0926 -0.1307
   60BOLB   PO1 1418   8.626  10.097  23.229  0.0020 -0.1210 -0.1132
   60BOLB   GL1 1419   8.507  10.278  23.495  0.2255 -0.0526 -0.2151
   60BOLB   GL2 1420   8.515  10.589  23.729  0.0979  0.4417 -0.0478
   60BOLB   C1A 1421   8.787  10.304  23.977 -0.2162 -0.1253  0.0315
   60BOLB   C2A 1422   8.675  10.618  24.250  0.1157  0.0857 -0.3230
   60BOLB   C3A 1423   8.711  10.841  24.706 -0.0387  0.1223  0.1878
   60BOLB   C4A 1424   8.533  10.983  25.123  0.0878 -0.0841  0.2624
   60BOLB   C1B 1425   8.133  10.754  23.717  0.2783 -0.2565 -0.0146
   60BOLB   C2B 1426   8.021  11.076  23.925  0.0298 -0.0297  0.0417
   60BOLB   C3B 1427   7.870  11.170  24.318 -0.2615  0.3154  0.0959
   60BOLB   C4B 1428   7.423  11.275  24.444  0.1619  0.0645 -0.0120
   60BOLB   NC2 1429   7.826  11.496  27.058 -0.0304 -0.0165  0.0177
   60BOLB   PO2 1430   7.799  11.991  27.183  0.2139 -0.1627  0.1603
   60BOLB   GL3 1431   8.027  11.838  26.740 -0.2385  0.0582 -0.1036
   60BOLB   GL4 1432   8.267  12.013  26.816  0.0102 -0.3516  0.0171
   60BOLB   C1C 1433   8.285  11.628  26.417  0.0032  0.1561  0.1792
   60BOLB   C2C 1434   8.601  11.542  26.163  0.0983  0.0467  0.0480
   60BOLB   C3C 1435   8.749  11.496  25.790 -0.0790  0.2450  0.0542
   60BOLB   C4C 1436   8.611  11.230  25.495  0.1444  0.0586  0.1117
   60BOLB   C1D 1437   8.414  12.068  26.327  0.0032  0.0691  0.0730
   60BOLB   C2D 1438   8.602  11.996  25.965  0.2333  0.0812 -0.1098
   60BOLB   C3D 1439   8.889  11.974  25.668  0.1519 -0.0349  0.0101
   60BOLB   C4D 1440   9.127  11.737  25.552  0.2355 -0.1743  0.0819
   61BOLB   NC1 1441   5.719  17.040  19.397  0.2774  0.3804 -0.0171
   61BOLB   PO1 1442   5.654  17.462  19.663  0.2923  0.2950  0.4238
   61BOLB   GL1 1443   5.851  17.929  19.641  0.0573 -0.0367 -0.2022
   61BOLB   GL2 1444   6.119  17.975  19.438 -0.5006 -0.2926  0.0501
   61BOLB   C1A 1445   5.527  18.181  19.803 -0.1790  0.0923 -0.3445
   61BOLB   C2A 1446   5.702  18.530  19.951 -0.1415  0.0853  0.3175
   61BOLB   C3A 1447   5.614  18.811  20.289 -0.0049  0.1287  0.1070
   61BOLB   C4A 1448   5.679  18.901  20.686  0.1197 -0.0718 -0.1881
   61BOLB   C1B 1449   5.933  18.301  19.232 -0.0849 -0.3514  0.0781
   61BOLB   C2B 1450   5.978  18.797  19.178  0.3337  0.0208 -0.0310
   61BOLB   C3B 1451   5.922  19.213  19.191 -0.1090  0.1233  0.0816
   61BOLB   C4B 1452   6.136  19.625  19.279 -0.0544 -0.0864 -0.1585
   61BOLB   NC2 1453   3.034  19.697  21.390  0.0448 -0.1329  0.2107
   61BOLB   PO2 1454   3.461  19.751  21.331 -0.1992  0.1698  0.0508
   61BOLB   GL3 1455   3.847  19.658  21.108  0.1378 -0.1102  0.1584
   61BOLB   GL4 1456   4.121  19.948  21.047  0.3112  0.0533 -0.4271
   61BOLB   C1C 1457   4.267  19.425  21.254 -0.0668 -0.1377 -0.0680
   61BOLB   C2C 1458   4.649  19.151  21.169 -0.0614  0.2754 -0.2111
   61BOLB   C3C 1459   5.057  19.095  21.065  0.0020  0.5376 -0.0398
   61BOLB   C4C 1460   5.406  18.946  20.983 -0.1474 -0.0333  0.0193
   61BOLB   C1D 1461   4.265  19.970  21.432  0.0649 -0.2615 -0.0792
   61BOLB   C2D 1462   4.592  19.833  21.767  0.1828 -0.0866 -0.3018
   61BOLB   C3D 1463   4.983  19.825  22.033 -0.0924  0.6368  0.0139
   61BOLB   C4D 1464   5.125  19.847  22.470  0.0278  0.1639 -0.2259
   62BOLB   NC1 1465   5.020  21.905  20.675 -0.1653 -0.2081  0.0552
   62BOLB   PO1 1466   5.231  22.108  20.970  0.0669  0.0235  0.0489
   62BOLB   GL1 1467   5.530  22.338  21.225  0.0147 -0.4091  0.1281
   62BOLB   GL2 1468   5.805  22.244  21.020  0.0232  0.0230  0.1300
   62BOLB   C1A 1469   5.932  22.376  21.517 -0.0771 -0.3184  0.1018
   62BOLB   C2A 1470   6.414  22.431  21.445  0.1245  0.1822 -0.0410
   62BOLB   C3A 1471   6.866  22.497  21.560  0.2771  0.0693 -0.0961
   62BOLB   C4A 1472   7.137  22.167  21.753  0.2937  0.0198 -0.0930
   62BOLB   C1B 1473   5.920  21.818  20.833  0.2055 -0.2209 -0.1589
   62BOLB   C2B 1474   6.173  21.568  21.159 -0.1590 -0.0271  0.3101
   62BOLB   C3B 1475   6.626  21.469  21.346 -0.0419  0.0971 -0.1153
   62BOLB   C4B 1476   6.769  21.198  21.580 -0.2276  0.3171  0.1712
   62BOLB   NC2 1477   4.523  22.037  22.717  0.1652  0.0604  0.0720
   62BOLB   PO2 1478   4.740  21.661  23.044 -0.0478  0.0872 -0.0730
   62BOLB   GL3 1479   5.220  21.722  22.913  0.1618 -0.3210  0.0902
   62BOLB   GL4 1480   5.503  21.869  23.090  0.0731 -0.2314  0.1266
   62BOLB   C1C 1481   5.686  21.774  22.591  0.2692  0.1091  0.2756
   62BOLB   C2C 1482   6.142  21.723  22.301 -0.1378  0.1255  0.3104
   62BOLB   C3C 1483   6.506  21.722  21.970  0.0466  0.0124 -0.0299
   62BOLB   C4C 1484   6.991  21.796  21.892  0.1115 -0.0871  0.1072
   62BOLB   C1D 1485   5.806  21.745  23.063  0.2238  0.0705 -0.2788
   62BOLB   C2D 1486   6.030  21.387  23.011 -0.2801  0.2892 -0.2405
   62BOLB   C3D 1487   5.794  21.014  23.115 -0.0276 -0.2545 -0.2894
   62BOLB   C4D 1488   6.081  20.679  23.004  0.0486  0.1393 -0.0254
   63BOLB   NC1 1489   4.189  12.988  22.695 -0.0162  0.2909  0.2153
   63BOLB   PO1 1490   4.619  12.868  23.013 -0.0909  0.2303 -0.0772
   63BOLB   GL1 1491   4.640  12.870  23.479  0.1675 -0.1551  0.0271
   63BOLB   GL2 1492   4.503  12.622  23.578  0.2473  0.1408  0.0287
   63BOLB   C1A 1493   5.027  12.916  23.657  0.0965 -0.0568  0.2251
   63BOLB   C2A 1494   5.296  12.960  23.929  0.1820  0.1093  0.0353
   63BOLB   C3A 1495   5.569  12.751  24.011 -0.1357 -0.2904  0.0705
   63BOLB   C4A 1496   5.603  12.909  24.515  0.3913  0.0698  0.0967
   63BOLB   C1B 1497   4.687  12.750  24.066 -0.1566 -0.1039 -0.1577
   63BOLB   C2B 1498   4.993  12.864  24.440 -0.2128  0.3427 -0.0968
   63BOLB   C3B 1499   5.196  12.718  24.801 -0.0057  0.1208 -0.3280
   63BOLB   C4B 1500   5.657  12.812  25.042 -0.0412  0.2107  0.3296
   63BOLB   NC2 1501   5.577  13.663  26.236 -0.0761  0.1146  0.0349
   63BOLB   PO2 1502   5.850  13.456  26.501  0.2623 -0.0382  0.1003
   63BOLB   GL3 1503   6.145  13.517  26.169 -0.1755 -0.0339  0.2391
   63BOLB   GL4 1504   6.311  13.221  26.063  0.1101 -0.1915 -0.1011
   63BOLB   C1C 1505   6.172  13.602  25.760  0.1452  0.0149 -0.0119
   63BOLB   C2C 1506   5.854  13.586  25.466 -0.0861  0.1216 -0.3197
   63BOLB   C3C 1507   5.730  13.324  25.135 -0.1798 -0.0095  0.0537
   63BOLB   C4C 1508   5.752  13.216  24.706 -0.0053  0.3314  0.1103
   63BOLB   C1D 1509   6.659  13.062  25.763  0.1817 -0.1241 -0.7967
   63BOLB   C2D 1510   6.891  12.794  25.563 -0.0443  0.0135  0.3194
   63BOLB   C3D 1511   7.165  13.073  25.387 -0.2112 -0.0840 -0.0371
   63BOLB   C4D 1512   7.466  13.361  25.126  0.0195  0.2251  0.1678
   64BOLB   NC1 1513   7.610  17.896  21.167 -0.1128 -0.0813 -0.3862
   64BOLB   PO1 1514   7.223  17.914  21.320 -0.1811 -0.1086  0.0447
   64BOLB   GL1 1515   6.940  18.181  21.391 -0.0771 -0.0494  0.3028
   64BOLB   GL2 1516   6.877  18.259  21.742 -0.1754  0.1680  0.2875
   64BOLB   C1A 1517   6.428  18.116  21.549 -0.3301  0.0523  0.2513
   64BOLB   C2A 1518   6.099  17.943  21.891 -0.0149 -0.2864  0.4055
   64BOLB   C3A 1519   5.689  18.134  22.050  0.0497 -0.1088  0.0797
   64BOLB   C4A 1520   5.334  18.267  22.226 -0.2981 -0.3293  0.0558
   64BOLB   C1B 1521   6.638  18.336  22.055  0.3302  0.0328  0.3497
   64BOLB   C2B 1522   6.275  18.544  22.300  0.3515  0.0909 -0.2154
   64BOLB   C3B 1523   5.956  18.483  22.528 -0.1454  0.0050  0.1952
   64BOLB   C4B 1524   5.464  18.449  22.649 -0.1518 -0.1700 -0.3063
   64BOLB   NC2 1525   3.812  18.657  24.036 -0.0460  0.1872  0.4013
   64BOLB   PO2 1526   3.802  19.118  23.816  0.2580  0.1688 -0.3821
   64BOLB   GL3 1527   4.063  18.872  23.507  0.2211 -0.2068  0.0014
   64BOLB   GL4 1528   4.142  19.009  23.299  0.0231  0.2232  0.1525
   64BOLB   C1C 1529   4.443  18.534  23.493 -0.2987  0.1212  0.1643
   64BOLB   C2C 1530   4.560  18.209  23.181 -0.4152  0.0010 -0.3377
   64BOLB   C3C 1531   4.806  18.240  22.861 -0.0892  0.2219  0.0048
   64BOLB   C4C 1532   5.111  18.096  22.505 -0.2527 -0.3584  0.5122
   64BOLB   C1D 1533   4.557  19.031  23.474 -0.1903  0.1310 -0.3550
   64BOLB   C2D 1534   4.949  18.837  23.602  0.0144  0.1187  0.1239
   64BOLB   C3D 1535   5.375  18.597  23.684 -0.0410  0.2305  0.3581
   64BOLB   C4D 1536   5.647  18.473  23.425  0.1904  0.2619 -0.0608
   65BOLB   NC1 1537   9.618  20.349  21.951  0.0439  0.0525  0.0141
   65BOLB   PO1 1538   9.652  20.400  22.353  0.0993 -0.1881 -0.1547
   65BOLB   GL1 1539   9.482  20.539  22.796 -0.2851  0.1275  0.4235
   65BOLB   GL2 1540   9.650  20.644  22.999  0.0603  0.0635  0.0688
   65BOLB   C1A 1541   9.190  20.688  23.212 -0.0263 -0.1599 -0.0737
   65BOLB   C2A 1542   8.958  20.683  23.617  0.0659 -0.1513  0.1756
   65BOLB   C3A 1543   8.841  20.878  24.087 -0.0689 -0.0557  0.1215
   65BOLB   C4A 1544   8.838  20.844  24.472  0.1815 -0.2018  0.3395
   65BOLB   C1B 1545   9.660  20.757  23.422 -0.1706 -0.0377 -0.1119
   65BOLB   C2B 1546   9.485  20.858  23.802  0.0841  0.1152  0.2641
   65BOLB   C3B 1547   9.358  20.952  24.192  0.1842  0.5869 -0.1570
   65BOLB   C4B 1548   9.405  21.308  24.491 -0.1591 -0.1308 -0.1916
   65BOLB   NC2 1549   7.672  21.737  26.602  0.1103  0.1120 -0.2780
   65BOLB   PO2 1550   8.057  21.591  26.393  0.0163  0.2398 -0.1251
   65BOLB   GL3 1551   8.378  21.469  26.133 -0.1476 -0.0452 -0.2201
   65BOLB   GL4 1552   8.683  21.478  26.192 -0.2182  0.2746  0.1466
   65BOLB   C1C 1553   8.616  21.262  25.774  0.0691 -0.1021  0.0127
   65BOLB   C2C 1554   8.880  21.260  25.528  0.3516 -0.0254  0.0221
   65BOLB   C3C 1555   8.919  21.241  25.175 -0.2962 -0.1549 -0.1082
   65BOLB   C4C 1556   9.084  21.017  24.791 -0.0831  0.2606  0.1203
   65BOLB   C1D 1557   9.044  21.085  25.977 -0.1963 -0.0435  0.1850
   65BOLB   C2D 1558   9.357  20.970  25.577 -0.0672  0.1674  0.1716
   65BOLB   C3D 1559   9.477  21.091  25.174 -0.3299 -0.1951  0.1301
   65BOLB   C4D 1560   9.799  21.386  24.992 -0.2019  0.1254 -0.1446
   66BOLB   NC1 1561   3.307  14.186  20.856 -0.1911 -0.1587 -0.1331
   66BOLB   PO1 1562   3.543  14.244  20.547 -0.2034  0.1296 -0.0082
   66BOLB   GL1 1563   3.846  14.421  20.760  0.0409 -0.1591 -0.1051
   66BOLB   GL2 1564   3.991  14.589  20.600  0.0413  0.0971  0.0973
   66BOLB   C1A 1565   3.952  14.311  21.201 -0.1088  0.2021  0.0739
   66BOLB   C2A 1566   3.963  14.239  21.605  0.1857  0.1131 -0.2560
   66BOLB   C3A 1567   4.119  14.452  22.040 -0.1008 -0.1780  0.1084
   66BOLB   C4A 1568   4.219  14.592  22.484 -0.3176 -0.2919 -0.2958
   66BOLB   C1B 1569   3.831  14.961  20.496  0.3574  0.1560  0.2446
   66BOLB   C2B 1570   3.687  15.228  20.207 -0.4119 -0.2675  0.1091
   66BOLB   C3B 1571   3.455  15.353  19.942  0.0798 -0.1203  0.1431
   66BOLB   C4B 1572   3.100  15.572  19.802 -0.0043 -0.0209 -0.0821
   66BOLB   NC2 1573   3.473  12.763  24.588 -0.2004  0.0059 -0.1350
   66BOLB   PO2 1574   3.766  12.944  24.223  0.0811 -0.0185  0.3497
   66BOLB   GL3 1575   4.042  13.266  24.027 -0.2562  0.0909  0.0613
   66BOLB   GL4 1576   4.383  13.171  24.121 -0.0324 -0.0845  0.2730
   66BOLB   C1C 1577   4.083  13.550  23.654 -0.2661 -0.0502 -0.0476
   66BOLB   C2C 1578   4.001  13.867  23.284  0.0566 -0.2301  0.0314
   66BOLB   C3C 1579   4.351  14.082  23.070 -0.0133 -0.2534  0.0552
   66BOLB   C4C 1580   4.339  14.438  22.771  0.0859  0.2618 -0.1207
   66BOLB   C1D 1581   4.471  13.216  23.783 -0.0312 -0.0266  0.6819
   66BOLB   C2D 1582   4.420  13.467  23.343  0.2923  0.2568 -0.2031
   66BOLB   C3D 1583   4.209  13.621  22.876 -0.0713  0.1445 -0.1380
   66BOLB   C4D 1584   3.980  14.029  22.737  0.3335 -0.0308  0.1539
   67BOLB   NC1 1585   6.836  24.068  23.157 -0.0100 -0.1530  0.1646
   67BOLB   PO1 1586   6.902  23.574  23.221  0.2986 -0.2458 -0.1289
   67BOLB   GL1 1587   7.279  23.339  23.276  0.1483 -0.1986 -0.0242
   67BOLB   GL2 1588   7.567  23.351  23.401 -0.1097  0.0873 -0.1481
   67BOLB   C1A 1589   7.412  22.965  23.059  0.1384 -0.1195  0.0512
   67BOLB   C2A 1590   7.491  22.613  22.754  0.0176 -0.0905  0.0743
   67BOLB   C3A 1591   7.425  22.161  22.892 -0.3650  0.0479 -0.1864
   67BOLB   C4A 1592   7.190  22.070  23.290 -0.0137  0.2235  0.1120
   67BOLB   C1B 1593   7.708  23.440  23.834  0.0124 -0.0187  0.2177
   67BOLB   C2B 1594   7.832  23.800  24.003 -0.0264  0.1950 -0.5128
   67BOLB   C3B 1595   8.033  23.848  24.384  0.2719 -0.0843  0.0458
   67BOLB   C4B 1596   8.438  24.116  24.436 -0.0240  0.5359  0.2103
   67BOLB   NC2 1597   6.523  20.864  25.376 -0.1478  0.0229 -0.2368
   67BOLB   PO2 1598   6.223  20.950  25.114  0.0916 -0.0189 -0.1440
   67BOLB   GL3 1599   6.167  21.104  24.694  0.0319  0.0530 -0.0548
   67BOLB   GL4 1600   5.871  21.054  24.460 -0.1840 -0.0675  0.1021
   67BOLB   C1C 1601   6.429  21.288  24.370  0.1236 -0.0807  0.2621
   67BOLB   C2C 1602   6.677  21.274  23.962  0.1243 -0.1525  0.1360
   67BOLB   C3C 1603   6.806  21.452  23.708 -0.2771 -0.4708  0.2300
   67BOLB   C4C 1604   6.995  21.814  23.608 -0.3126  0.3931 -0.0811
   67BOLB   C1D 1605   6.266  20.826  24.294 -0.0244 -0.2190  0.1196
   67BOLB   C2D 1606   6.405  20.721  23.934 -0.1280  0.1025  0.0625
   67BOLB   C3D 1607   6.691  20.549  23.761 -0.2126  0.1922 -0.0628
   67BOLB   C4D 1608   6.886  20.222  23.471  0.1078  0.1477  0.0914
   68BOLB   NC1 1609   3.622  18.809  16.564  0.0601 -0.0473 -0.1266
   68BOLB   PO1 1610   3.212  18.527  16.719 -0.2189  0.1349 -0.3335
   68BOLB   GL1 1611   3.265  18.239  16.965 -0.0119 -0.4272  0.0960
   68BOLB   GL2 1612   3.142  18.003  16.810 -0.1414 -0.0721 -0.1700
   68BOLB   C1A 1613   3.496  18.060  17.258 -0.1025 -0.2072 -0.4022
   68BOLB   C2A 1614   3.925  18.022  17.220 -0.1108  0.0237 -0.2827
   68BOLB   C3A 1615   4.208  17.810  16.872  0.1712 -0.2435 -0.1708
   68BOLB   C4A 1616   4.324  17.381  16.697  0.1756 -0.1680  0.0891
   68BOLB   C1B 1617   3.568  17.908  16.721 -0.1801 -0.0918 -0.2442
   68BOLB   C2B 1618   3.802  17.797  16.369 -0.0199 -0.3679  0.0251
   68BOLB   C3B 1619   4.167  17.520  16.238 -0.0101 -0.0786 -0.1113
   68BOLB   C4B 1620   4.663  17.331  16.347 -0.1628 -0.1223 -0.1629
   68BOLB   NC2 1621   2.760  15.320  15.888  0.2332  0.2220  0.0742
   68BOLB   PO2 1622   3.233  15.326  15.915  0.4206 -0.0127 -0.1279
   68BOLB   GL3 1623   3.421  15.643  16.017  0.0085  0.0389 -0.1072
   68BOLB   GL4 1624   3.594  15.738  15.812  0.2479  0.1964 -0.0522
   68BOLB   C1C 1625   3.590  16.035  16.211 -0.2834 -0.2138 -0.1055
   68BOLB   C2C 1626   3.772  16.325  16.609 -0.1951 -0.0386  0.1189
   68BOLB   C3C 1627   3.890  16.833  16.708 -0.0111  0.1399 -0.1968
   68BOLB   C4C 1628   4.172  16.997  16.854 -0.2025 -0.1879  0.4401
   68BOLB   C1D 1629   3.754  16.215  15.780  0.0593  0.2067 -0.1194
   68BOLB   C2D 1630   3.661  16.627  15.734  0.1730 -0.0946 -0.1734
   68BOLB   C3D 1631   3.654  16.647  16.264  0.1094 -0.0929 -0.0546
   68BOLB   C4D 1632   3.354  16.995  16.448  0.2030  0.0800 -0.2975
   69BOLB   NC1 1633   7.625  16.913  22.277  0.1302  0.1612  0.4711
   69BOLB   PO1 1634   7.893  17.265  22.310 -0.0362  0.2019 -0.1652
   69BOLB   GL1 1635   7.626  17.328  22.614  0.0074 -0.1558  0.4516
   69BOLB   GL2 1636   7.374  17.119  22.670  0.1183 -0.1648  0.1219
   69BOLB   C1A 1637   7.605  17.512  23.018 -0.0622  0.0352 -0.1621
   69BOLB   C2A 1638   7.248  17.546  23.397 -0.1163 -0.1020  0.0833
   69BOLB   C3A 1639   6.852  17.633  23.764  0.2323 -0.2036  0.0236
   69BOLB   C4A 1640   6.580  17.402  24.078  0.0127 -0.1208  0.1068
   69BOLB   C1B 1641   7.107  17.414  22.922 -0.1630  0.3655  0.0882
   69BOLB   C2B 1642   6.749  17.384  22.919  0.0963 -0.0959  0.2751
   69BOLB   C3B 1643   6.386  17.391  23.072 -0.1518 -0.1639  0.3230
   69BOLB   C4B 1644   6.321  17.230  23.414  0.0731  0.1712 -0.3038
   69BOLB   NC2 1645   4.791  18.897  24.944 -0.0065 -0.0614  0.2800
   69BOLB   PO2 1646   4.606  18.589  24.672 -0.1574 -0.3127 -0.0191
   69BOLB   GL3 1647   4.906  18.162  24.613  0.1312  0.2045 -0.1885
   69BOLB   GL4 1648   5.163  18.183  24.493  0.3642  0.0373 -0.0855
   69BOLB   C1C 1649   5.278  17.766  24.752 -0.0580 -0.0733 -0.6539
   69BOLB   C2C 1650   5.642  17.495  24.560  0.0835 -0.1653  0.1080
   69BOLB   C3C 1651   5.880  17.143  24.470 -0.0253  0.2137  0.0538
   69BOLB   C4C 1652   6.308  17.082  24.325 -0.2661  0.0484 -0.0076
   69BOLB   C1D 1653   5.411  18.208  24.599 -0.2403  0.1200 -0.2357
   69BOLB   C2D 1654   5.829  18.286  24.609 -0.0480 -0.2090 -0.1315
   69BOLB   C3D 1655   6.274  18.265  24.520  0.1618  0.0594 -0.3811
   69BOLB   C4D 1656   6.767  18.352  24.534  0.3874  0.1436  0.3342
   70BOLB   NC1 1657   7.305  23.647  24.715  0.1072 -0.1495  0.0798
   70BOLB   PO1 1658   7.048  23.288  24.828  0.0606  0.1769  0.0878
   70BOLB   GL1 1659   7.293  23.149  24.511 -0.2769  0.1513 -0.0659
   70BOLB   GL2 1660   7.541  23.306  24.458 -0.3356  0.0457  0.1217
   70BOLB   C1A 1661   7.153  22.796  24.197  0.0725  0.1900  0.3017
   70BOLB   C2A 1662   6.859  22.709  23.974  0.0754 -0.3122  0.1838
   70BOLB   C3A 1663   6.507  22.464  23.894  0.2567  0.3522  0.4066
   70BOLB   C4A 1664   6.512  21.958  23.827  0.1863 -0.0170 -0.0042
   70BOLB   C1B 1665   7.703  22.953  24.245  0.0338 -0.0119  0.2804
   70BOLB   C2B 1666   7.930  22.637  23.862 -0.4147  0.2407  0.0307
   70BOLB   C3B 1667   8.132  22.387  23.564  0.0772 -0.2378 -0.1343
   70BOLB   C4B 1668   8.326  22.255  23.291 -0.0169  0.2144  0.0580
   70BOLB   NC2 1669   4.494  20.377  24.670 -0.1329  0.1507 -0.0858
   70BOLB   PO2 1670   4.685  20.460  24.283 -0.0527 -0.2044  0.0565
   70BOLB   GL3 1671   5.139  20.518  24.216 -0.2635 -0.1122  0.1428
   70BOLB   GL4 1672   5.344  20.338  24.469 -0.2034 -0.2195 -0.0618
   70BOLB   C1C 1673   5.459  20.611  23.963 -0.3060  0.1937  0.3099
   70BOLB   C2C 1674   5.842  20.866  23.991  0.0003  0.3414  0.1977
   70BOLB   C3C 1675   6.114  21.213  23.997  0.0757  0.0370  0.0337
   70BOLB   C4C 1676   6.285  21.573  23.766  0.1657 -0.0815 -0.3268
   70BOLB   C1D 1677   5.582  20.122  24.144 -0.3861 -0.0443  0.0369
   70BOLB   C2D 1678   5.568  19.784  23.800 -0.2954 -0.3251  0.0352
   70BOLB   C3D 1679   5.578  19.394  23.695 -0.0010 -0.1678 -0.0022
   70BOLB   C4D 1680   5.381  19.035  23.450  0.0251 -0.1202  0.4622
   71BOLB   NC1 1681   8.432  26.071  23.192 -0.1478 -0.2009 -0.1172
   71BOLB   PO1 1682   8.852  25.965  23.339 -0.1671  0.1962 -0.0413
   71BOLB   GL1 1683   9.168  25.589  23.326 -0.3141 -0.0746  0.0135
   71BOLB   GL2 1684   9.096  25.233  23.348 -0.3227 -0.3559 -0.0058
   71BOLB   C1A 1685   9.615  25.482  23.185  0.1401 -0.1822 -0.0647
   71BOLB   C2A 1686   9.934  25.765  23.059  0.1133  0.1679  0.2898
   71BOLB   C3A 1687  10.266  25.983  23.112  0.0014 -0.2332 -0.0537
   71BOLB   C4A 1688  10.425  26.380  23.191 -0.0526 -0.0196  0.1331
   71BOLB   C1B 1689   9.284  25.108  23.657  0.2113  0.0386  0.0762
   71BOLB   C2B 1690   9.485  25.046  24.097  0.2200 -0.1576 -0.1416
   71BOLB   C3B 1691   9.783  24.929  24.304 -0.2311  0.5138 -0.1321
   71BOLB   C4B 1692  10.180  24.775  24.305  0.1451 -0.3129  0.1047
   71BOLB   NC2 1693  11.120  27.050  24.608  0.1042  0.1422  0.4343
   71BOLB   PO2 1694  10.695  27.122  24.447  0.1894 -0.1042 -0.0252
   71BOLB   GL3 1695  10.911  26.889  24.102  0.5586 -0.1167  0.1851
   71BOLB   GL4 1696  10.595  26.736  24.155 -0.0657  0.1009 -0.0813
   71BOLB   C1C 1697  11.033  27.187  23.820  0.1624 -0.2309 -0.4763
   71BOLB   C2C 1698  11.137  27.303  23.356 -0.0231  0.1922  0.1630
   71BOLB   C3C 1699  10.937  27.145  23.099 -0.1916  0.1112 -0.1930
   71BOLB   C4C 1700  10.626  26.771  22.998  0.1684  0.2469 -0.1228
   71BOLB   C1D 1701  10.642  26.243  24.234  0.2297  0.0422 -0.0792
   71BOLB   C2D 1702  10.375  25.934  24.351 -0.3304 -0.1544 -0.2093
   71BOLB   C3D 1703  10.104  25.747  24.361 -0.2092 -0.4633  0.1889
   71BOLB   C4D 1704   9.757  25.452  24.227 -0.0147 -0.0370  0.2273
   72BOLB   NC1 1705   6.025  17.519  19.929 -0.0903 -0.1120  0.4382
   72BOLB   PO1 1706   6.140  17.722  20.386  0.3889 -0.0603  0.3165
   72BOLB   GL1 1707   5.934  17.851  20.643  0.1182  0.0029  0.3251
   72BOLB   GL2 1708   5.984  17.607  20.884  0.3532  0.0776 -0.0170
   72BOLB   C1A 1709   5.718  18.168  20.761 -0.0904 -0.0969 -0.2051
   72BOLB   C2A 1710   5.447  18.373  21.173 -0.1064  0.1264 -0.1206
   72BOLB   C3A 1711   5.142  18.571  21.423  0.1725 -0.2982  0.0140
   72BOLB   C4A 1712   4.813  18.849  21.622  0.1689  0.0565  0.0972
   72BOLB   C1B 1713   5.586  17.666  21.078  0.0943 -0.3063 -0.1717
   72BOLB   C2B 1714   5.230  17.745  21.289  0.1102 -0.4001 -0.1218
   72BOLB   C3B 1715   4.718  17.713  21.270 -0.3279 -0.3084 -0.0499
   72BOLB   C4B 1716   4.395  17.473  21.472 -0.2124 -0.0404 -0.2077
   72BOLB   NC2 1717   3.694  19.202  23.162  0.0929 -0.1692  0.2285
   72BOLB   PO2 1718   3.297  18.940  23.026  0.1652 -0.1316 -0.4876
   72BOLB   GL3 1719   3.308  18.876  22.619 -0.0151 -0.0090  0.0531
   72BOLB   GL4 1720   3.308  18.576  22.653  0.0976 -0.0352  0.0574
   72BOLB   C1C 1721   3.464  19.076  22.351  0.3137  0.0407  0.3679
   72BOLB   C2C 1722   3.893  19.196  22.152  0.1743 -0.0802  0.0453
   72BOLB   C3C 1723   4.296  19.325  21.865 -0.1175 -0.1286 -0.1779
   72BOLB   C4C 1724   4.504  19.184  21.672 -0.0957 -0.0927  0.3555
   72BOLB   C1D 1725   3.797  18.770  22.553 -0.2301  0.1074 -0.1414
   72BOLB   C2D 1726   4.151  18.660  22.441 -0.0933  0.3610  0.0225
   72BOLB   C3D 1727   4.616  18.518  22.470 -0.0446  0.2195  0.0065
   72BOLB   C4D 1728   5.066  18.609  22.462  0.0882 -0.1244  0.1627
   73BOLB   NC1 1729   6.639  17.970  20.052  0.1052  0.5115  0.0194
   73BOLB   PO1 1730   6.169  18.109  20.010 -0.0013 -0.4594  0.2133
   73BOLB   GL1 1731   5.785  18.070  20.204 -0.0732  0.1706  0.3536
   73BOLB   GL2 1732   5.556  17.784  20.071  0.2026  0.0801  0.1060
   73BOLB   C1A 1733   5.461  18.276  20.350 -0.0456  0.0862  0.0404
   73BOLB   C2A 1734   5.357  18.513  20.660 -0.0371  0.1513  0.1074
   73BOLB   C3A 1735   4.994  18.601  20.920 -0.0006  0.1757  0.0340
   73BOLB   C4A 1736   4.632  18.551  21.113  0.0400 -0.0751 -0.3553
   73BOLB   C1B 1737   5.209  17.875  20.112 -0.2556 -0.1381  0.0016
   73BOLB   C2B 1738   4.958  18.138  20.345 -0.3166 -0.0159  0.2305
   73BOLB   C3B 1739   4.750  18.543  20.481 -0.3357  0.1035 -0.2268
   73BOLB   C4B 1740   4.576  18.977  20.727 -0.3376 -0.2034 -0.0182
   73BOLB   NC2 1741   2.684  19.280  21.275 -0.2035  0.2242 -0.0620
   73BOLB   PO2 1742   2.483  18.988  21.448  0.1686 -0.2462 -0.1951
   73BOLB   GL3 1743   2.791  18.807  21.146 -0.1546  0.2129 -0.1694
   73BOLB   GL4 1744   2.735  18.768  20.808 -0.1403  0.0763  0.1267
   73BOLB   C1C 1745   3.267  18.743  21.386 -0.0052  0.0478  0.3641
   73BOLB   C2C 1746   3.539  18.904  21.662  0.0738  0.1052  0.1146
   73BOLB   C3C 1747   3.996  18.932  21.620  0.1598  0.0606  0.0181
   73BOLB   C4C 1748   4.378  18.691  21.488  0.1170  0.0383  0.2646
   73BOLB   C1D 1749   2.729  18.437  20.705 -0.1989  0.1153  0.3532
   73BOLB   C2D 1750   2.858  18.153  20.364  0.3106 -0.0820  0.0050
   73BOLB   C3D 1751   3.071  18.198  19.977  0.1441  0.1787  0.0839
   73BOLB   C4D 1752   3.219  17.781  19.681 -0.0163 -0.0894 -0.0312
   74BOLB   NC1 1753   5.743  15.092  20.615  0.3288 -0.0154  0.2608
   74BOLB   PO1 1754   5.527  15.479  20.352 -0.0168  0.3420  0.1922
   74BOLB   GL1 1755   5.673  15.555  20.777 -0.1205 -0.2510 -0.3577
   74BOLB   GL2 1756   5.910  15.923  20.861  0.1371 -0.0894  0.1727
   74BOLB   C1A 1757   5.474  15.613  21.095 -0.0997 -0.2612 -0.0383
   74BOLB   C2A 1758   5.288  15.945  21.370  0.0123 -0.5636  0.0720
   74BOLB   C3A 1759   4.828  15.967  21.488 -0.0385 -0.2365  0.0021
   74BOLB   C4A 1760   4.539  16.335  21.582 -0.1106  0.1829  0.2896
   74BOLB   C1B 1761   5.761  16.028  21.229  0.1919 -0.1226 -0.4257
   74BOLB   C2B 1762   5.886  16.101  21.568 -0.3664  0.0211 -0.0062
   74BOLB   C3B 1763   5.796  16.187  21.976 -0.1151  0.0562 -0.0365
   74BOLB   C4B 1764   5.349  16.302  22.071 -0.1073 -0.0628 -0.0399
   74BOLB   NC2 1765   2.690  16.879  22.563  0.0666  0.0967  0.1399
   74BOLB   PO2 1766   2.373  16.656  22.169  0.1586 -0.1184 -0.0761
   74BOLB   GL3 1767   2.718  16.541  21.995  0.2588 -0.1875  0.2816
   74BOLB   GL4 1768   2.918  16.215  21.952 -0.1333 -0.1912 -0.2968
   74BOLB   C1C 1769   3.127  16.692  22.035  0.1070 -0.0032  0.0988
   74BOLB   C2C 1770   3.474  16.916  21.757  0.0067 -0.0844 -0.0787
   74BOLB   C3C 1771   3.722  16.722  21.496 -0.0861 -0.5061  0.0656
   74BOLB   C4C 1772   4.092  16.405  21.558 -0.3559 -0.1006  0.4369
   74BOLB   C1D 1773   3.165  15.990  21.779  0.2153 -0.2177 -0.0248
   74BOLB   C2D 1774   3.435  15.714  21.578 -0.2237 -0.1403  0.0733
   74BOLB   C3D 1775   3.559  15.259  21.537 -0.0863  0.1619  0.3216
   74BOLB   C4D 1776   3.902  14.836  21.600 -0.0561 -0.2608 -0.0649
   75BOLB   NC1 1777   1.906  18.218  19.048  0.0619 -0.1665  0.0774
   75BOLB   PO1 1778   2.319  18.248  18.889  0.0633 -0.0324  0.0522
   75BOLB   GL1 1779   2.641  18.256  19.183 -0.1092  0.1288 -0.0834
   75BOLB   GL2 1780   2.558  18.311  19.508  0.0727 -0.1215 -0.2787
   75BOLB   C1A 1781   2.853  17.894  19.153  0.1416 -0.0044 -0.0330
   75BOLB   C2A 1782   2.983  17.646  18.768  0.1166 -0.0102 -0.1847
   75BOLB   C3A 1783   2.995  17.208  18.702 -0.2041  0.1278 -0.3233
   75BOLB   C4A 1784   3.191  16.852  18.593  0.1258 -0.0031 -0.1248
   75BOLB   C1B 1785   2.746  18.608  19.712 -0.1899  0.1231  0.1578
   75BOLB   C2B 1786   3.124  18.716  19.840  0.1737  0.3968  0.0697
   75BOLB   C3B 1787   3.574  18.649  19.877  0.0051  0.1489 -0.2785
   75BOLB   C4B 1788   3.786  18.464  20.140 -0.2660 -0.0700  0.1053
   75BOLB   NC2 1789   2.783  15.951  16.858 -0.1651  0.1084 -0.2600
   75BOLB   PO2 1790   2.635  16.329  16.843  0.2758  0.0751 -0.3757
   75BOLB   GL3 1791   2.897  16.668  17.045 -0.0728  0.1550 -0.1381
   75BOLB   GL4 1792   2.657  16.645  17.374 -0.0062  0.0949 -0.0250
   75BOLB   C1C 1793   3.165  16.959  17.309 -0.2746  0.2700 -0.0968
   75BOLB   C2C 1794   3.410  17.224  17.563  0.0927  0.0516 -0.1150
   75BOLB   C3C 1795   3.332  17.166  18.006  0.1164  0.3799 -0.3079
   75BOLB   C4C 1796   3.243  16.757  18.233 -0.0516 -0.0634 -0.1309
   75BOLB   C1D 1797   2.934  16.820  17.750 -0.2144 -0.1772 -0.0959
   75BOLB   C2D 1798   2.915  17.256  17.661 -0.2423  0.1018 -0.1450
   75BOLB   C3D 1799   3.040  17.604  17.321 -0.0860  0.0619 -0.1952
   75BOLB   C4D 1800   3.375  17.575  17.085  0.3639  0.0462 -0.2466
   76BOLB   NC1 1801   8.895  18.172  22.251  0.1583  0.0930 -0.2561
   76BOLB   PO1 1802   8.870  18.497  22.553 -0.4049 -0.1227  0.2288
   76BOLB   GL1 1803   8.607  18.638  22.954  0.1812 -0.0903  0.0580
   76BOLB   GL2 1804   8.541  18.493  23.197  0.1000  0.2542 -0.1283
   76BOLB   C1A 1805   8.351  18.932  23.266 -0.1405  0.0981 -0.0433
   76BOLB   C2A 1806   8.232  19.258  23.506  0.2725 -0.0794  0.1097
   76BOLB   C3A 1807   8.086  19.461  23.800  0.1752 -0.2509 -0.0115
   76BOLB   C4A 1808   7.611  19.522  24.129  0.1584 -0.0377 -0.2268
   76BOLB   C1B 1809   8.210  18.400  23.352  0.0687 -0.0631 -0.0926
   76BOLB   C2B 1810   7.852  18.234  23.478 -0.0244 -0.0712  0.0981
   76BOLB   C3B 1811   7.588  18.417  23.800  0.2608 -0.0155  0.0592
   76BOLB   C4B 1812   7.533  18.598  24.095  0.1807  0.1151 -0.4097
   76BOLB   NC2 1813   6.703  20.146  26.059 -0.2318  0.0709 -0.4390
   76BOLB   PO2 1814   7.076  20.137  26.355 -0.0335  0.1746 -0.0137
   76BOLB   GL3 1815   7.229  20.113  25.918  0.0505  0.2380 -0.0297
   76BOLB   GL4 1816   7.459  19.850  25.910  0.0629 -0.2712 -0.0921
   76BOLB   C1C 1817   7.441  20.212  25.600 -0.0145  0.0113  0.0635
   76BOLB   C2C 1818   7.737  20.045  25.316 -0.0555  0.2244  0.0673
   76BOLB   C3C 1819   7.774  19.985  24.858  0.0854 -0.0276  0.4386
   76BOLB   C4C 1820   7.562  19.625  24.528  0.0169  0.0262  0.1619
   76BOLB   C1D 1821   7.663  19.656  25.697  0.2749 -0.1666 -0.3078
   76BOLB   C2D 1822   7.954  19.448  25.435  0.1436 -0.0675 -0.0052
   76BOLB   C3D 1823   8.358  19.370  25.350  0.3034 -0.0827 -0.2119
   76BOLB   C4D 1824   8.665  18.982  25.148  0.0844 -0.0817 -0.1252
   77BOLB   NC1 1825   8.180  16.086  22.360 -0.0890 -0.0657 -0.4684
   77BOLB   PO1 1826   8.202  15.872  22.816 -0.0131 -0.0118  0.3104
   77BOLB   GL1 1827   7.903  15.795  23.080 -0.2411  0.0251  0.0479
   77BOLB   GL2 1828   8.037  15.706  23.375 -0.2262 -0.1104 -0.0859
   77BOLB   C1A 1829   7.606  16.039  23.323  0.2786 -0.1605 -0.0424
   77BOLB   C2A 1830   7.509  16.161  23.687  0.2104  0.2209  0.0588
   77BOLB   C3A 1831   7.665  16.330  24.063 -0.1789 -0.1444 -0.3834
   77BOLB   C4A 1832   7.621  16.634  24.413 -0.0988  0.1700  0.0294
   77BOLB   C1B 1833   7.679  15.657  23.673  0.0868 -0.2866  0.0315
   77BOLB   C2B 1834   7.404  15.920  24.094  0.1980 -0.0447  0.0800
   77BOLB   C3B 1835   7.469  16.091  24.534 -0.0644 -0.0120  0.0071
   77BOLB   C4B 1836   7.285  16.104  24.936 -0.2509  0.2474 -0.1347
   77BOLB   NC2 1837   6.297  16.827  26.837 -0.2554 -0.2565  0.1227
   77BOLB   PO2 1838   6.585  17.166  26.601 -0.0853  0.1200 -0.0246
   77BOLB   GL3 1839   6.737  16.911  26.227  0.2230 -0.1648 -0.0435
   77BOLB   GL4 1840   6.770  16.571  26.261  0.1943 -0.3676 -0.0927
   77BOLB   C1C 1841   7.083  16.925  25.750 -0.0339  0.1340 -0.2658
   77BOLB   C2C 1842   7.295  16.729  25.465  0.1575 -0.1139 -0.2228
   77BOLB   C3C 1843   7.407  16.548  25.165 -0.0534 -0.0255  0.1526
   77BOLB   C4C 1844   7.594  16.556  24.776  0.1658  0.4649  0.1946
   77BOLB   C1D 1845   7.241  16.500  25.975 -0.4877  0.3074 -0.4564
   77BOLB   C2D 1846   7.532  16.324  25.624  0.3021 -0.0264  0.2642
   77BOLB   C3D 1847   7.695  16.200  25.181 -0.2128  0.0684 -0.2737
   77BOLB   C4D 1848   7.724  15.693  24.951 -0.2997 -0.3441  0.3116
   78BOLB   NC1 1849   4.810  12.702  22.197  0.0190  0.0727 -0.3047
   78BOLB   PO1 1850   4.454  12.950  22.237  0.2313 -0.3555 -0.2984
   78BOLB   GL1 1851   4.436  13.401  22.459 -0.0636  0.0079  0.0108
   78BOLB   GL2 1852   4.802  13.482  22.381 -0.3075  0.1531 -0.1470
   78BOLB   C1A 1853   4.450  13.802  22.471 -0.1973  0.1214  0.2538
   78BOLB   C2A 1854   4.623  14.214  22.220 -0.0422 -0.1695 -0.3730
   78BOLB   C3A 1855   4.665  14.630  22.048 -0.0635  0.2831 -0.2498
   78BOLB   C4A 1856   4.347  14.966  22.249  0.2132  0.1483  0.2272
   78BOLB   C1B 1857   4.729  13.540  22.802 -0.2234 -0.2034  0.1934
   78BOLB   C2B 1858   4.751  13.720  23.046  0.1119  0.1960  0.0643
   78BOLB   C3B 1859   4.711  13.968  23.433  0.3162 -0.2050  0.6512
   78BOLB   C4B 1860   4.484  14.323  23.441  0.1516  0.1351  0.1243
   78BOLB   NC2 1861   2.352  16.135  21.847  0.0637 -0.2709  0.1326
   78BOLB   PO2 1862   2.294  15.776  22.060  0.0229  0.2406  0.2527
   78BOLB   GL3 1863   2.642  15.743  21.840  0.2150  0.0819  0.2689
   78BOLB   GL4 1864   2.766  15.569  21.614  0.2828  0.4484  0.0282
   78BOLB   C1C 1865   2.960  15.446  22.027  0.0769  0.0913 -0.1696
   78BOLB   C2C 1866   3.340  15.317  22.014 -0.0601 -0.1866 -0.1790
   78BOLB   C3C 1867   3.581  15.317  22.385 -0.0971  0.0588  0.0217
   78BOLB   C4C 1868   4.135  15.268  22.544 -0.0237  0.1821  0.1316
   78BOLB   C1D 1869   2.921  15.824  21.311  0.0399 -0.0991 -0.1121
   78BOLB   C2D 1870   3.251  16.053  21.168  0.1082  0.0470  0.0569
   78BOLB   C3D 1871   3.514  16.107  20.771 -0.0697  0.1503  0.0941
   78BOLB   C4D 1872   3.778  16.181  20.463  0.0833  0.0508 -0.1860
   79BOLB   NC1 1873   9.620  18.009  23.512  0.0589 -0.0158  0.0841
   79BOLB   PO1 1874   9.248  18.084  23.247 -0.4386  0.0374 -0.0592
   79BOLB   GL1 1875   8.872  18.163  23.490  0.1255 -0.1596 -0.1597
   79BOLB   GL2 1876   8.955  18.381  23.688 -0.2927  0.2129  0.2631
   79BOLB   C1A 1877   8.549  18.153  23.654 -0.2596  0.0138  0.2665
   79BOLB   C2A 1878   8.259  18.287  23.917 -0.0256 -0.1393  0.0944
   79BOLB   C3A 1879   8.084  18.627  24.144 -0.2713  0.1038 -0.2040
   79BOLB   C4A 1880   7.893  18.849  24.474 -0.0938  0.2334  0.2133
   79BOLB   C1B 1881   8.776  18.153  24.114  0.0718 -0.0240 -0.0846
   79BOLB   C2B 1882   8.773  18.252  24.597 -0.1016 -0.1075  0.1616
   79BOLB   C3B 1883   8.860  18.451  25.009 -0.0906 -0.2721 -0.0985
   79BOLB   C4B 1884   8.577  18.449  25.310 -0.1631  0.1031  0.2439
   79BOLB   NC2 1885   6.428  19.121  26.352  0.0505 -0.0536 -0.0151
   79BOLB   PO2 1886   6.791  19.251  26.373 -0.0409  0.1342  0.2092
   79BOLB   GL3 1887   7.038  19.387  26.143  0.2618  0.3406 -0.0516
   79BOLB   GL4 1888   7.004  19.671  26.096 -0.0966 -0.0670 -0.3563
   79BOLB   C1C 1889   7.316  19.326  25.772  0.4663  0.0023  0.2038
   79BOLB   C2C 1890   7.442  19.132  25.430  0.0212 -0.0913 -0.0929
   79BOLB   C3C 1891   7.715  19.056  25.181  0.1092 -0.3536  0.1371
   79BOLB   C4C 1892   7.877  19.005  24.860  0.0510  0.1580  0.1151
   79BOLB   C1D 1893   6.954  19.691  25.726 -0.1811 -0.2164  0.1048
   79BOLB   C2D 1894   7.031  20.041  25.428 -0.2727  0.0796  0.0408
   79BOLB   C3D 1895   7.276  20.071  25.116 -0.2254 -0.1409  0.0236
   79BOLB   C4D 1896   7.492  20.469  24.839  0.0076 -0.3426  0.0685
   80BOLB   NC1 1897   6.936  14.212  21.468  0.2040  0.1046  0.0793
   80BOLB   PO1 1898   7.150  14.589  21.692 -0.0141 -0.0598  0.0217
   80BOLB   GL1 1899   7.033  14.773  22.081  0.0914  0.2860 -0.1520
   80BOLB   GL2 1900   7.024  14.711  22.417 -0.3941 -0.4114  0.0685
   80BOLB   C1A 1901   6.643  14.979  22.269  0.2274 -0.2418  0.1357
   80BOLB   C2A 1902   6.418  15.365  22.550  0.0164  0.2776  0.2175
   80BOLB   C3A 1903   6.290  15.293  23.039 -0.3801 -0.0204  0.0268
   80BOLB   C4A 1904   5.983  15.308  23.331  0.0054 -0.1738 -0.1759
   80BOLB   C1B 1905   6.753  14.906  22.756 -0.1192 -0.0216 -0.0189
   80BOLB   C2B 1906   6.554  14.946  23.195 -0.2583 -0.1695 -0.0454
   80BOLB   C3B 1907   6.258  14.942  23.587 -0.0571 -0.2352  0.1383
   80BOLB   C4B 1908   6.090  14.744  23.836 -0.0223  0.1730 -0.1810
   80BOLB   NC2 1909   4.945  16.323  25.171 -0.2973 -0.0236 -0.1787
   80BOLB   PO2 1910   4.575  16.045  25.247  0.1800  0.0503 -0.2493
   80BOLB   GL3 1911   4.749  16.097  24.767  0.2067  0.1754  0.0367
   80BOLB   GL4 1912   4.976  16.340  24.588  0.0643  0.3269 -0.1488
   80BOLB   C1C 1913   4.969  15.845  24.470  0.1452 -0.0800  0.0816
   80BOLB   C2C 1914   5.407  15.763  24.325  0.2902  0.1492 -0.0977
   80BOLB   C3C 1915   5.770  15.618  23.956  0.4397 -0.0456 -0.1318
   80BOLB   C4C 1916   5.895  15.268  23.701 -0.2189  0.0309  0.4399
   80BOLB   C1D 1917   5.166  16.227  24.245 -0.0092  0.0960  0.0673
   80BOLB   C2D 1918   4.989  15.937  23.843 -0.0772  0.0088 -0.2071
   80BOLB   C3D 1919   5.264  15.824  23.489 -0.0148 -0.3486 -0.0111
   80BOLB   C4D 1920   5.734  15.821  23.458  0.0507  0.1588 -0.3279
   81BOLB   NC1 1921   7.165  17.329  21.028  0.0049  0.0460 -0.0683
   81BOLB   PO1 1922   6.646  17.230  21.292  0.0958 -0.1281  0.0595
   81BOLB   GL1 1923   6.567  17.361  21.617 -0.1727 -0.2284  0.2151
   81BOLB   GL2 1924   6.684  17.711  21.581  0.3551 -0.0722  0.0550
   81BOLB   C1A 1925   6.352  17.390  22.020  0.1255 -0.0532 -0.0084
   81BOLB   C2A 1926   6.065  17.574  22.229 -0.0092 -0.0666  0.0216
   81BOLB   C3A 1927   5.929  17.954  22.455  0.0911 -0.0832 -0.0463
   81BOLB   C4A 1928   5.511  17.974  22.663 -0.0779  0.1168  0.1878
   81BOLB   C1B 1929   6.693  17.813  21.966  0.1502  0.0386  0.1429
   81BOLB   C2B 1930   6.477  17.840  22.387 -0.0609 -0.0768 -0.0043
   81BOLB   C3B 1931   6.520  17.881  22.897  0.3921  0.0450  0.1139
   81BOLB   C4B 1932   6.463  17.796  23.320  0.1173 -0.1239  0.4015
   81BOLB   NC2 1933   4.959  19.487  24.565  0.0625 -0.2821 -0.1074
   81BOLB   PO2 1934   4.666  19.328  24.728 -0.0316 -0.0056 -0.0230
   81BOLB   GL3 1935   4.907  19.021  24.449 -0.0096  0.0130  0.2215
   81BOLB   GL4 1936   4.792  19.156  24.083 -0.1971 -0.0233  0.1130
   81BOLB   C1C 1937   4.833  18.688  24.089 -0.1838  0.0025  0.0514
   81BOLB   C2C 1938   4.873  18.363  23.778 -0.0727  0.0046 -0.2563
   81BOLB   C3C 1939   5.033  18.367  23.387  0.1775  0.1101 -0.0633
   81BOLB   C4C 1940   5.279  18.212  23.053 -0.1753 -0.2199  0.0335
   81BOLB   C1D 1941   5.229  19.071  24.096 -0.3523 -0.1955 -0.3517
   81BOLB   C2D 1942   5.670  18.928  23.890 -0.1474 -0.0445 -0.2086
   81BOLB   C3D 1943   5.838  19.091  23.415  0.0439  0.0498  0.0686
   81BOLB   C4D 1944   5.786  19.357  23.098  0.0909  0.0347  0.2935
   82BOLB   NC1 1945   5.926  16.620  20.252  0.1578 -0.0091 -0.1568
   82BOLB   PO1 1946   6.009  16.273  20.415 -0.0287 -0.1224  0.1640
   82BOLB   GL1 1947   5.749  16.458  20.732 -0.1935  0.1100  0.0414
   82BOLB   GL2 1948   5.923  16.458  21.086  0.1035 -0.1117  0.0990
   82BOLB   C1A 1949   5.432  16.682  20.856  0.2263  0.1419 -0.3245
   82BOLB   C2A 1950   5.259  16.895  21.116  0.1637  0.0204 -0.0812
   82BOLB   C3A 1951   5.158  16.958  21.669 -0.2813  0.4610 -0.2373
   82BOLB   C4A 1952   4.692  17.111  21.772 -0.0432  0.2887 -0.0525
   82BOLB   C1B 1953   5.529  16.538  21.315 -0.0609 -0.0084  0.2324
   82BOLB   C2B 1954   5.500  16.625  21.708  0.2211  0.0387  0.1118
   82BOLB   C3B 1955   5.320  16.827  22.127  0.1101  0.1142 -0.0399
   82BOLB   C4B 1956   5.169  17.079  22.545  0.0514 -0.0846 -0.0462
   82BOLB   NC2 1957   2.892  18.370  22.715 -0.0161  0.0371 -0.3403
   82BOLB   PO2 1958   2.719  17.942  22.857  0.1227 -0.3362 -0.3249
   82BOLB   GL3 1959   3.166  17.883  22.790 -0.1034 -0.0186  0.0155
   82BOLB   GL4 1960   3.183  17.792  22.517 -0.1308  0.1336 -0.1020
   82BOLB   C1C 1961   3.698  17.749  22.706  0.0732 -0.2504 -0.1325
   82BOLB   C2C 1962   3.896  17.809  22.355 -0.0712  0.0603 -0.0769
   82BOLB   C3C 1963   4.271  17.636  22.298 -0.0740  0.0153 -0.1078
   82BOLB   C4C 1964   4.525  17.365  21.993  0.4094 -0.0824 -0.2076
   82BOLB   C1D 1965   3.416  18.084  22.272 -0.4110 -0.0533 -0.2369
   82BOLB   C2D 1966   3.752  18.135  22.002  0.0097  0.1891 -0.2225
   82BOLB   C3D 1967   3.745  18.387  21.594  0.2068 -0.0260 -0.0254
   82BOLB   C4D 1968   3.804  18.592  21.251  0.0907  0.1125 -0.0524
   83BOLB   NC1 1969   3.179  14.497  20.028 -0.0523 -0.1070  0.1474
   83BOLB   PO1 1970   3.073  14.382  20.472  0.1678  0.1974  0.0774
   83BOLB   GL1 1971   3.333  14.717  20.489  0.2797  0.0885  0.0451
   83BOLB   GL2 1972   3.420  14.761  20.749  0.0164 -0.0523 -0.0649
   83BOLB   C1A 1973   3.349  15.170  20.567 -0.0287  0.0437  0.0322
   83BOLB   C2A 1974   3.566  15.567  20.587  0.1197 -0.0010 -0.0871
   83BOLB   C3A 1975   3.863  15.762  20.725 -0.0275 -0.1803  0.0904
   83BOLB   C4A 1976   3.955  15.934  21.145 -0.1130 -0.3563 -0.1299
   83BOLB   C1B 1977   3.373  15.149  21.059 -0.3050  0.1731 -0.0493
   83BOLB   C2B 1978   3.087  15.530  20.888  0.1809  0.1632 -0.1979
   83BOLB   C3B 1979   3.169  15.790  20.609  0.1636 -0.0774 -0.1884
   83BOLB   C4B 1980   3.192  15.902  20.202 -0.2165 -0.1607  0.0859
   83BOLB   NC2 1981   2.551  15.615  22.757 -0.0943 -0.1404  0.0170
   83BOLB   PO2 1982   2.493  16.035  22.873 -0.0389 -0.1067  0.0048
   83BOLB   GL3 1983   2.899  16.077  22.876  0.2087  0.1858 -0.0540
   83BOLB   GL4 1984   2.976  15.813  22.959  0.1198  0.0124  0.1173
   83BOLB   C1C 1985   3.207  16.122  22.568 -0.0153 -0.1644  0.1481
   83BOLB   C2C 1986   3.403  16.322  22.210  0.0834 -0.0068 -0.1807
   83BOLB   C3C 1987   3.642  16.394  21.815  0.1856  0.2966 -0.0983
   83BOLB   C4C 1988   3.662  16.168  21.437  0.1372  0.5423 -0.1094
   83BOLB   C1D 1989   3.396  15.677  22.963  0.1629  0.0479 -0.1838
   83BOLB   C2D 1990   3.590  15.827  22.667 -0.1652  0.1770  0.0423
   83BOLB   C3D 1991   3.899  15.709  22.362  0.2494  0.2776  0.0552
   83BOLB   C4D 1992   4.295  15.699  22.209  0.3060 -0.2046 -0.3619
   84BOLB   NC1 1993   6.896  18.635  21.154 -0.0049  0.1520  0.3665
   84BOLB   PO1 1994   7.111  18.662  21.469  0.0656  0.0086 -0.3436
   84BOLB   GL1 1995   6.732  18.809  21.632 -0.2204 -0.2311 -0.5579
   84BOLB   GL2 1996   6.586  19.036  21.484 -0.0870 -0.3936  0.2113
   84BOLB   C1A 1997   6.570  18.932  22.079  0.2841  0.1531 -0.2047
   84BOLB   C2A 1998   6.328  18.969  22.472 -0.2222  0.1947 -0.0832
   84BOLB   C3A 1999   6.055  18.877  22.884 -0.1116 -0.0888  0.1904
   84BOLB   C4A 2000   5.638  18.754  23.035  0.0925  0.4030  0.0675
   84BOLB   C1B 2001   6.352  19.405  21.589  0.0880 -0.0469 -0.0251
   84BOLB   C2B 2002   6.496  19.815  21.680 -0.3213 -0.0973  0.2797
   84BOLB   C3B 2003   6.652  20.204  21.686 -0.0521 -0.5831  0.2461
   84BOLB   C4B 2004   6.525  20.556  21.512 -0.3098 -0.1857 -0.3089
   84BOLB   NC2 2005   3.280  19.970  23.286  0.4538  0.1261  0.0922
   84BOLB   PO2 2006   3.663  19.761  23.096  0.2958 -0.0518 -0.0439
   84BOLB   GL3 2007   3.899  19.476  22.798 -0.0879 -0.5307  0.1922
   84BOLB   GL4 2008   4.118  19.613  22.546 -0.3288 -0.3586  0.1960
   84BOLB   C1C 2009   4.176  19.078  22.707  0.3591 -0.0044 -0.0279
   84BOLB   C2C 2010   4.462  18.783  22.906  0.1192 -0.1400  0.0752
   84BOLB   C3C 2011   4.810  18.719  23.092 -0.2256 -0.0075  0.4079
   84BOLB   C4C 2012   5.228  18.677  23.027 -0.0846  0.0256  0.0784
   84BOLB   C1D 2013   4.480  19.522  22.291  0.0213 -0.2378  0.3074
   84BOLB   C2D 2014   4.787  19.359  22.058  0.1241  0.0606  0.1139
   84BOLB   C3D 2015   4.916  19.465  21.663 -0.5065  0.0279 -0.0607
   84BOLB   C4D 2016   4.943  19.638  21.235  0.4163 -0.4661 -0.0811
   85BOLB   NC1 2017   5.283  12.738  21.316  0.0054  0.4506  0.2698
   85BOLB   PO1 2018   5.429  13.051  21.635 -0.0077 -0.1570 -0.1000
   85BOLB   GL1 2019   5.452  13.469  22.021 -0.0954 -0.5234 -0.0415
   85BOLB   GL2 2020   5.841  13.655  22.081 -0.0060  0.1964 -0.0850
   85BOLB   C1A 2021   5.363  13.695  22.467 -0.0717 -0.0780  0.4360
   85BOLB   C2A 2022   5.251  13.699  22.830  0.0688  0.2730  0.0759
   85BOLB   C3A 2023   5.228  13.862  23.233 -0.1974  0.0988 -0.0038
   85BOLB   C4A 2024   5.237  13.872  23.675  0.3837 -0.0060 -0.1966
   85BOLB   C1B 2025   5.514  14.000  22.015 -0.2802  0.0989  0.2818
   85BOLB   C2B 2026   5.338  14.182  22.373  0.1785 -0.2115  0.0731
   85BOLB   C3B 2027   5.352  14.220  22.773 -0.1289 -0.0738  0.1091
   85BOLB   C4B 2028   5.758  14.361  22.946 -0.1607 -0.1539  0.4794
   85BOLB   NC2 2029   3.315  14.866  25.118  0.0400 -0.0735 -0.1283
   85BOLB   PO2 2030   3.430  14.782  24.696  0.0703  0.4620 -0.0525
   85BOLB   GL3 2031   3.768  14.658  24.433 -0.0018 -0.0972 -0.0623
   85BOLB   GL4 2032   3.645  14.674  24.118  0.2695  0.3089 -0.0035
   85BOLB   C1C 2033   4.195  14.562  24.251 -0.1436  0.0011 -0.0663
   85BOLB   C2C 2034   4.606  14.547  24.360 -0.1220 -0.1120  0.0263
   85BOLB   C3C 2035   5.065  14.485  24.279  0.0530 -0.1471 -0.0880
   85BOLB   C4C 2036   5.272  14.199  23.966 -0.2136  0.1991 -0.4419
   85BOLB   C1D 2037   3.919  14.789  23.795 -0.2898  0.0205  0.0845
   85BOLB   C2D 2038   4.266  14.751  23.601 -0.0348 -0.0655 -0.0637
   85BOLB   C3D 2039   4.529  14.985  23.299 -0.1934  0.2443 -0.1834
   85BOLB   C4D 2040   4.959  14.875  23.347 -0.0771 -0.1497  0.2148
   86BOLB   NC1 2041   6.558  15.065  21.208  0.2638 -0.1872 -0.0637
   86BOLB   PO1 2042   6.627  14.622  21.400  0.1018 -0.2149 -0.0391
   86BOLB   GL1 2043   6.285  14.780  21.490  0.2826 -0.1610  0.2067
   86BOLB   GL2 2044   6.114  14.788  21.850 -0.0966  0.1012  0.1378
   86BOLB   C1A 2045   5.941  15.155  21.597 -0.3507  0.1444 -0.6299
   86BOLB   C2A 2046   5.734  15.217  21.904  0.1347  0.1433 -0.0003
   86BOLB   C3A 2047   5.552  15.276  22.378  0.0413  0.0092 -0.0144
   86BOLB   C4A 2048   5.193  15.501  22.578  0.0906 -0.2411  0.0097
   86BOLB   C1B 2049   6.262  14.630  22.262  0.1951 -0.0956 -0.0172
   86BOLB   C2B 2050   6.147  14.576  22.713  0.1955  0.0864 -0.2080
   86BOLB   C3B 2051   6.118  14.725  23.079 -0.0889  0.1285  0.2332
   86BOLB   C4B 2052   5.966  14.624  23.381  0.1357  0.3507  0.4075
   86BOLB   NC2 2053   3.779  15.150  24.566 -0.2066 -0.1516  0.0958
   86BOLB   PO2 2054   3.646  15.490  24.423  0.0285 -0.0400 -0.0064
   86BOLB   GL3 2055   3.882  15.408  23.986  0.1115 -0.1983  0.1624
   86BOLB   GL4 2056   4.021  15.127  24.173 -0.2341  0.0701 -0.2047
   86BOLB   C1C 2057   4.080  15.770  23.671 -0.1330 -0.1883  0.0568
   86BOLB   C2C 2058   4.397  15.850  23.254 -0.1403  0.2960  0.1801
   86BOLB   C3C 2059   4.833  16.000  23.135 -0.1051  0.0337  0.0142
   86BOLB   C4C 2060   5.094  15.748  22.848  0.1353  0.0988 -0.0705
   86BOLB   C1D 2061   4.425  15.009  24.197  0.1152  0.0387  0.3016
   86BOLB   C2D 2062   4.687  14.636  23.898 -0.0173  0.2971  0.3637
   86BOLB   C3D 2063   4.842  14.303  23.787 -0.0661  0.4015 -0.0416
   86BOLB   C4D 2064   5.012  14.357  23.444 -0.1876 -0.1479 -0.0165
   87BOLB   NC1 2065   4.549  15.515  19.250 -0.0991  0.0926 -0.1094
   87BOLB   PO1 2066   4.124  15.387  18.975 -0.0900  0.1648 -0.3192
   87BOLB   GL1 2067   4.008  15.711  19.253  0.0464 -0.1595 -0.2018
   87BOLB   GL2 2068   4.032  15.977  19.071  0.1165 -0.1119 -0.3218
   87BOLB   C1A 2069   3.559  15.995  19.146  0.1140  0.0133  0.3692
   87BOLB   C2A 2070   3.223  16.003  19.512 -0.0297  0.3072  0.0117
   87BOLB   C3A 2071   2.795  16.046  19.821  0.0461 -0.0885 -0.0916
   87BOLB   C4A 2072   2.748  16.301  20.243 -0.0811 -0.2863  0.2729
   87BOLB   C1B 2073   3.921  16.170  18.621  0.0852  0.1127  0.2051
   87BOLB   C2B 2074   3.990  16.324  18.248 -0.1073  0.0192  0.0082
   87BOLB   C3B 2075   3.857  16.736  18.157 -0.2674  0.0780  0.4926
   87BOLB   C4B 2076   3.818  17.051  18.295  0.1469  0.1020 -0.0324
   87BOLB   NC2 2077   2.730  17.728  22.409  0.0910  0.0364 -0.3182
   87BOLB   PO2 2078   2.378  17.373  22.257  0.3302 -0.1019  0.1923
   87BOLB   GL3 2079   2.724  17.241  22.044  0.1172  0.4330 -0.2449
   87BOLB   GL4 2080   2.888  17.273  22.413 -0.2368  0.0922  0.0259
   87BOLB   C1C 2081   2.826  16.946  21.737  0.1403 -0.0450 -0.0989
   87BOLB   C2C 2082   2.645  16.731  21.345  0.0369  0.0556  0.2319
   87BOLB   C3C 2083   2.763  16.897  21.050  0.0794 -0.0933  0.0267
   87BOLB   C4C 2084   2.703  16.688  20.580  0.0720 -0.0512 -0.3045
   87BOLB   C1D 2085   3.273  17.231  22.118 -0.2801 -0.0594 -0.1707
   87BOLB   C2D 2086   3.266  17.352  21.592  0.1053 -0.1146  0.0960
   87BOLB   C3D 2087   3.159  17.047  21.292 -0.1474  0.1518  0.0769
   87BOLB   C4D 2088   3.205  16.857  20.822  0.3525  0.0867 -0.0659
   88BOLB   NC1 2089   8.421  14.017  22.618 -0.1700  0.3861 -0.0078
   88BOLB   PO1 2090   8.248  14.390  22.734  0.0240  0.1191  0.2607
   88BOLB   GL1 2091   7.908  14.445  23.040 -0.1493  0.1114 -0.3324
   88BOLB   GL2 2092   7.671  14.664  23.045 -0.1050  0.1428 -0.1737
   88BOLB   C1A 2093   8.048  14.457  23.519 -0.2599  0.3442 -0.1924
   88BOLB   C2A 2094   7.998  14.707  23.884  0.2448  0.0033  0.2756
   88BOLB   C3A 2095   7.770  14.873  24.206  0.1263  0.0534 -0.0173
   88BOLB   C4A 2096   7.498  14.960  24.286  0.2132 -0.1003  0.2516
   88BOLB   C1B 2097   7.493  14.725  23.483 -0.3056  0.0962  0.1055
   88BOLB   C2B 2098   7.529  14.563  23.937 -0.3800  0.0661 -0.0269
   88BOLB   C3B 2099   7.291  14.446  24.326  0.3057  0.1431  0.1204
   88BOLB   C4B 2100   7.260  14.549  24.851 -0.3239 -0.2469  0.1536
   88BOLB   NC2 2101   6.621  14.944  26.457  0.0598  0.1084 -0.1405
   88BOLB   PO2 2102   6.880  14.577  26.656  0.0508 -0.1536 -0.2425
   88BOLB   GL3 2103   7.045  14.713  26.222 -0.1240 -0.0081 -0.0250
   88BOLB   GL4 2104   7.324  15.049  26.275  0.1120  0.0870  0.0448
   88BOLB   C1C 2105   6.925  14.676  25.779  0.4291 -0.2102 -0.5263
   88BOLB   C2C 2106   6.906  14.801  25.328 -0.0456 -0.4171  0.1481
   88BOLB   C3C 2107   6.868  14.977  24.945 -0.1921  0.4814 -0.1060
   88BOLB   C4C 2108   7.178  14.986  24.505  0.1245  0.0750 -0.3270
   88BOLB   C1D 2109   7.435  14.907  25.908  0.0654 -0.1663  0.0757
   88BOLB   C2D 2110   7.380  14.715  25.559  0.0015  0.3767  0.1483
   88BOLB   C3D 2111   7.689  14.536  25.224 -0.1892 -0.0733 -0.1331
   88BOLB   C4D 2112   8.046  14.858  25.122 -0.2657  0.2391  0.1693
   89BOLB   NC1 2113   1.720  17.549  20.051  0.1728  0.1020 -0.3912
   89BOLB   PO1 2114   1.853  17.906  19.960 -0.0244  0.1888  0.1881
   89BOLB   GL1 2115   2.234  17.949  20.107  0.2789  0.1213  0.4499
   89BOLB   GL2 2116   2.559  17.997  19.929 -0.1146 -0.2153 -0.2000
   89BOLB   C1A 2117   2.394  18.316  20.287  0.1184  0.0545  0.1722
   89BOLB   C2A 2118   2.831  18.610  20.245 -0.1705 -0.2511 -0.0254
   89BOLB   C3A 2119   3.279  18.498  20.311  0.3689 -0.0158 -0.0838
   89BOLB   C4A 2120   3.423  18.224  20.371  0.1416 -0.0796 -0.0781
   89BOLB   C1B 2121   2.669  17.775  19.609  0.1998  0.0071  0.1562
   89BOLB   C2B 2122   3.019  17.478  19.404 -0.0130  0.1695  0.4405
   89BOLB   C3B 2123   3.332  17.422  19.028  0.0249  0.0082  0.2177
   89BOLB   C4B 2124   3.508  17.252  18.660  0.0829  0.1591  0.2421
   89BOLB   NC2 2125   2.141  17.175  21.153  0.0289  0.0559 -0.2925
   89BOLB   PO2 2126   1.871  17.158  20.722 -0.2058 -0.1479 -0.2344
   89BOLB   GL3 2127   2.320  17.133  20.636 -0.0134 -0.0645  0.1618
   89BOLB   GL4 2128   2.375  17.517  20.774  0.0338 -0.2266  0.0411
   89BOLB   C1C 2129   2.806  17.143  20.470 -0.2074 -0.2503 -0.1061
   89BOLB   C2C 2130   3.196  17.289  20.287  0.2740 -0.0758  0.0381
   89BOLB   C3C 2131   3.441  17.468  20.014 -0.0213  0.1481 -0.3389
   89BOLB   C4C 2132   3.496  17.942  20.028 -0.0500 -0.1485  0.3202
   89BOLB   C1D 2133   2.631  17.727  20.442  0.1680  0.0011  0.0838
   89BOLB   C2D 2134   2.846  17.640  20.148  0.2878 -0.0633  0.0469
   89BOLB   C3D 2135   2.600  17.333  19.815  0.2044  0.2971 -0.1180
   89BOLB   C4D 2136   2.481  17.320  19.465 -0.2880  0.0614  0.0364
   90BOLB   NC1 2137   7.888  11.696  22.472 -0.1492 -0.1262 -0.2676
   90BOLB   PO1 2138   8.162  11.808  22.873 -0.2579  0.1189  0.0061
   90BOLB   GL1 2139   8.136  11.675  23.161 -0.0873 -0.0264  0.0425
   90BOLB   GL2 2140   7.990  12.020  23.281 -0.2901 -0.2833 -0.0095
   90BOLB   C1A 2141   8.206  11.595  23.596 -0.0514 -0.2231 -0.0680
   90BOLB   C2A 2142   8.049  11.542  23.970  0.1052  0.0609  0.0855
   90BOLB   C3A 2143   8.114  11.575  24.385  0.0457  0.2159 -0.0813
   90BOLB   C4A 2144   8.031  11.737  24.768  0.2337  0.2579  0.1504
   90BOLB   C1B 2145   7.851  12.368  23.627 -0.0917 -0.0321  0.4106
   90BOLB   C2B 2146   7.598  12.426  23.991 -0.1947  0.1677  0.3248
   90BOLB   C3B 2147   7.629  12.720  24.315 -0.1230  0.1303  0.2526
   90BOLB   C4B 2148   7.797  13.154  24.319 -0.1762 -0.1268 -0.0338
   90BOLB   NC2 2149   7.166  12.563  26.684  0.1079 -0.2718 -0.0152
   90BOLB   PO2 2150   6.821  12.241  26.496  0.1918 -0.0940 -0.2708
   90BOLB   GL3 2151   7.259  12.196  26.388  0.0288  0.0069 -0.3239
   90BOLB   GL4 2152   7.321  12.017  26.109  0.0884 -0.0715 -0.0147
   90BOLB   C1C 2153   7.756  12.197  26.407 -0.1379  0.2874 -0.1300
   90BOLB   C2C 2154   8.051  12.229  26.090 -0.0627 -0.2445 -0.1069
   90BOLB   C3C 2155   8.170  12.156  25.660  0.2954  0.1672 -0.1433
   90BOLB   C4C 2156   8.239  11.993  25.109  0.4056 -0.1052  0.0410
   90BOLB   C1D 2157   7.574  12.384  25.978  0.5555  0.0717 -0.0104
   90BOLB   C2D 2158   7.386  12.629  25.661  0.1155  0.1452 -0.2828
   90BOLB   C3D 2159   7.393  12.650  25.262  0.2262  0.0315 -0.1441
   90BOLB   C4D 2160   7.053  12.757  25.004  0.2790  0.1484  0.2017
   91BOLB   NC1 2161   8.544  19.600  21.339  0.1357  0.1150  0.4468
   91BOLB   PO1 2162   8.332  19.622  21.744 -0.1893  0.0193  0.2654
   91BOLB   GL1 2163   7.963  20.036  21.724 -0.0799  0.0078  0.2735
   91BOLB   GL2 2164   7.748  20.276  21.549  0.1292  0.0263 -0.1035
   91BOLB   C1A 2165   7.493  20.116  21.925 -0.0937  0.0805  0.1663
   91BOLB   C2A 2166   7.232  20.406  22.149 -0.1348  0.3871  0.0680
   91BOLB   C3A 2167   6.998  20.268  22.461  0.1117  0.0630 -0.1141
   91BOLB   C4A 2168   6.892  20.347  22.688  0.0230  0.2769 -0.0771
   91BOLB   C1B 2169   7.491  20.685  21.323 -0.3069 -0.0126  0.0327
   91BOLB   C2B 2170   7.130  20.861  21.499  0.1586  0.2683  0.1243
   91BOLB   C3B 2171   7.234  21.173  21.811 -0.1423 -0.4722 -0.0464
   91BOLB   C4B 2172   7.403  21.586  21.707  0.2642  0.0778  0.0215
   91BOLB   NC2 2173   4.559  20.707  23.357  0.3184  0.1101 -0.1331
   91BOLB   PO2 2174   4.803  21.038  23.574  0.1120 -0.2977 -0.0955
   91BOLB   GL3 2175   5.124  20.822  23.494 -0.1393  0.0806  0.3657
   91BOLB   GL4 2176   5.005  20.500  23.678  0.3076 -0.1860  0.1586
   91BOLB   C1C 2177   5.572  20.768  23.519  0.1404  0.3406 -0.2846
   91BOLB   C2C 2178   6.003  20.755  23.506 -0.1913  0.1142 -0.1771
   91BOLB   C3C 2179   6.464  20.590  23.328  0.0251 -0.1775  0.0630
   91BOLB   C4C 2180   6.570  20.422  23.001  0.1523 -0.1750 -0.2653
   91BOLB   C1D 2181   5.332  20.291  23.570  0.1056 -0.3559  0.0418
   91BOLB   C2D 2182   5.797  20.317  23.384 -0.0147 -0.2731  0.1693
   91BOLB   C3D 2183   6.065  20.216  23.040  0.0271  0.1858 -0.1591
   91BOLB   C4D 2184   6.322  20.170  22.638 -0.2458 -0.3972 -0.0173
   92BOLB   NC1 2185   7.697   8.952  23.300  0.0033 -0.2188  0.1923
   92BOLB   PO1 2186   7.619   9.396  23.374 -0.1229 -0.1866 -0.0395
   92BOLB   GL1 2187   7.888   9.139  23.730  0.1659  0.0199 -0.2678
   92BOLB   GL2 2188   7.763   8.867  24.023 -0.0199 -0.0185  0.2079
   92BOLB   C1A 2189   8.122   9.239  24.154 -0.0063  0.0234  0.0955
   92BOLB   C2A 2190   8.450   9.188  24.488  0.0044 -0.0424 -0.1217
   92BOLB   C3A 2191   8.830   9.001  24.639  0.0337  0.2659  0.1096
   92BOLB   C4A 2192   9.031   9.247  24.927 -0.2070  0.3027  0.2457
   92BOLB   C1B 2193   7.653   9.151  24.314  0.0160 -0.3648  0.0696
   92BOLB   C2B 2194   7.934   9.224  24.658  0.0378  0.0486  0.0004
   92BOLB   C3B 2195   8.285   9.377  24.984 -0.1831  0.0915  0.0335
   92BOLB   C4B 2196   8.651   9.497  25.115 -0.2439  0.1037 -0.0354
   92BOLB   NC2 2197  10.164   8.496  26.742 -0.3116  0.1718 -0.0650
   92BOLB   PO2 2198   9.768   8.707  26.906  0.0771  0.1140 -0.1547
   92BOLB   GL3 2199   9.869   8.731  26.437 -0.0011 -0.0130 -0.0093
   92BOLB   GL4 2200   9.593   8.599  26.313 -0.2932  0.1309 -0.2618
   92BOLB   C1C 2201   9.934   8.794  26.013 -0.3223  0.1966  0.1127
   92BOLB   C2C 2202   9.962   8.777  25.560 -0.2243  0.3400  0.0916
   92BOLB   C3C 2203   9.911   8.942  25.118 -0.2766  0.1377  0.1219
   92BOLB   C4C 2204   9.478   9.168  25.108  0.0779 -0.0842 -0.1526
   92BOLB   C1D 2205   9.542   9.121  26.184 -0.0652  0.0878  0.3295
   92BOLB   C2D 2206   9.741   9.461  26.020 -0.1634 -0.0114  0.2175
   92BOLB   C3D 2207  10.029   9.668  25.794  0.0233  0.0376  0.0205
   92BOLB   C4D 2208  10.215   9.482  25.355 -0.2233  0.1338  0.2796
   93BOLB   NC1 2209   7.608  14.665  21.898 -0.1362 -0.1456 -0.2557
   93BOLB   PO1 2210   7.465  14.471  22.202 -0.0837 -0.3478 -0.0693
   93BOLB   GL1 2211   7.407  14.530  22.647  0.3981  0.2394  0.1937
   93BOLB   GL2 2212   7.174  14.405  22.787  0.1156  0.2731  0.0170
   93BOLB   C1A 2213   7.259  14.876  22.849 -0.0988 -0.3357 -0.1050
   93BOLB   C2A 2214   7.063  15.139  23.217 -0.0423 -0.1582 -0.1312
   93BOLB   C3A 2215   6.816  15.210  23.584  0.0823  0.0504 -0.3265
   93BOLB   C4A 2216   6.381  15.516  23.542 -0.2337 -0.0569 -0.1356
   93BOLB   C1B 2217   7.072  14.529  23.139 -0.2709  0.0261  0.1482
   93BOLB   C2B 2218   6.939  14.738  23.551  0.0601  0.1281 -0.2176
   93BOLB   C3B 2219   6.557  14.683  23.931  0.2990 -0.2121  0.0395
   93BOLB   C4B 2220   6.439  14.512  24.255  0.1309  0.0308 -0.0469
   93BOLB   NC2 2221   5.382  15.059  25.916 -0.0407 -0.1198  0.3088
   93BOLB   PO2 2222   5.286  15.021  25.441 -0.0905  0.0153 -0.0206
   93BOLB   GL3 2223   5.531  15.344  25.162  0.0084  0.1088 -0.1264
   93BOLB   GL4 2224   5.222  15.273  24.942 -0.1858  0.1185  0.0985
   93BOLB   C1C 2225   5.675  15.601  24.769  0.0921  0.3027  0.1800
   93BOLB   C2C 2226   6.033  15.650  24.431 -0.1537  0.3469 -0.0185
   93BOLB   C3C 2227   6.236  15.807  24.094  0.1892 -0.2129  0.0000
   93BOLB   C4C 2228   6.201  15.683  23.773  0.4377 -0.0228 -0.2651
   93BOLB   C1D 2229   5.305  15.272  24.524 -0.2010  0.1539  0.3707
   93BOLB   C2D 2230   5.566  15.286  24.234  0.1377  0.1000  0.1278
   93BOLB   C3D 2231   5.574  14.951  23.964  0.0057  0.3908  0.0666
   93BOLB   C4D 2232   5.288  14.705  23.824  0.0482 -0.1262 -0.0503
   94BOLB   NC1 2233   7.713  17.729  22.230 -0.1079  0.0197  0.2883
   94BOLB   PO1 2234   7.239  17.726  22.315  0.2107  0.2446  0.4439
   94BOLB   GL1 2235   7.193  17.886  22.699 -0.1311  0.1572 -0.2008
   94BOLB   GL2 2236   7.311  18.118  22.743  0.1160 -0.2432 -0.2020
   94BOLB   C1A 2237   6.944  17.800  23.106  0.0444 -0.1232 -0.0427
   94BOLB   C2A 2238   6.954  18.012  23.420  0.0955  0.0235  0.0538
   94BOLB   C3A 2239   6.692  18.106  23.788 -0.1559 -0.2095  0.0126
   94BOLB   C4A 2240   6.610  17.970  24.211 -0.0827  0.2279 -0.0869
   94BOLB   C1B 2241   7.509  17.973  23.155  0.0193  0.1073  0.0301
   94BOLB   C2B 2242   7.465  17.958  23.600 -0.6134  0.1384 -0.0442
   94BOLB   C3B 2243   7.292  17.796  23.992  0.0584 -0.1314  0.0438
   94BOLB   C4B 2244   7.050  17.594  24.207  0.1517  0.0025 -0.1799
   94BOLB   NC2 2245   5.628  17.876  26.143  0.0501  0.2193 -0.3945
   94BOLB   PO2 2246   5.417  17.507  26.225  0.0511  0.2063 -0.0021
   94BOLB   GL3 2247   5.856  17.354  25.977 -0.0411 -0.2239  0.0530
   94BOLB   GL4 2248   6.223  17.379  26.214 -0.1090  0.0624  0.1863
   94BOLB   C1C 2249   6.186  17.577  25.688  0.1392  0.0798 -0.3008
   94BOLB   C2C 2250   6.400  17.531  25.209  0.2031 -0.1244  0.2103
   94BOLB   C3C 2251   6.388  17.819  24.821 -0.2241 -0.3705  0.2445
   94BOLB   C4C 2252   6.708  17.845  24.528  0.2218  0.0987  0.1876
   94BOLB   C1D 2253   6.560  17.277  25.933  0.0172 -0.0756 -0.1048
   94BOLB   C2D 2254   6.674  17.215  25.491 -0.1937  0.3746  0.0651
   94BOLB   C3D 2255   6.758  17.291  25.033  0.4419  0.0854 -0.1170
   94BOLB   C4D 2256   7.020  17.463  24.790 -0.1096  0.0650  0.1687
   95BOLB   NC1 2257   5.095  16.066  19.255  0.0469 -0.3259  0.0454
   95BOLB   PO1 2258   4.629  16.016  19.192 -0.0264  0.0169  0.0671
   95BOLB   GL1 2259   4.471  16.395  19.218  0.2754  0.0999 -0.0642
   95BOLB   GL2 2260   4.432  16.645  18.853  0.1638 -0.0747 -0.1221
   95BOLB   C1A 2261   4.239  16.766  19.279 -0.2378 -0.0131  0.0392
   95BOLB   C2A 2262   3.880  16.805  19.507 -0.1539  0.0964  0.2151
   95BOLB   C3A 2263   3.880  17.145  19.766  0.1269  0.0841 -0.1382
   95BOLB   C4A 2264   3.791  17.157  20.181  0.2147 -0.1031 -0.0372
   95BOLB   C1B 2265   4.566  17.002  18.949 -0.0808  0.2815 -0.1133
   95BOLB   C2B 2266   4.543  17.425  19.052  0.0947  0.0979  0.1454
   95BOLB   C3B 2267   4.717  17.554  19.447  0.4638 -0.0070  0.2205
   95BOLB   C4B 2268   5.092  17.649  19.539 -0.0868  0.1514 -0.0948
   95BOLB   NC2 2269   1.806  17.558  22.092 -0.2862  0.0012  0.0046
   95BOLB   PO2 2270   2.076  17.604  21.765 -0.0590  0.2822 -0.1002
   95BOLB   GL3 2271   2.287  17.646  21.324 -0.1678  0.2122 -0.3005
   95BOLB   GL4 2272   2.255  17.927  21.173 -0.2069 -0.0991  0.1325
   95BOLB   C1C 2273   2.724  17.541  21.193 -0.0401  0.0441  0.0887
   95BOLB   C2C 2274   2.952  17.432  20.844 -0.2176 -0.1362  0.0987
   95BOLB   C3C 2275   3.347  17.305  20.754 -0.2068 -0.1899  0.1754
   95BOLB   C4C 2276   3.622  17.159  20.504  0.0858 -0.0218 -0.1160
   95BOLB   C1D 2277   2.628  18.014  21.098 -0.0568  0.0302  0.2088
   95BOLB   C2D 2278   2.991  18.276  21.175  0.1624 -0.0840  0.0451
   95BOLB   C3D 2279   3.403  18.234  21.184 -0.1054 -0.1778 -0.0396
   95BOLB   C4D 2280   3.880  18.111  21.182 -0.0144  0.2002  0.0770
   96BOLB   NC1 2281   8.161  20.502  21.705  0.2086  0.0616  0.0998
   96BOLB   PO1 2282   8.361  20.437  22.139 -0.1174  0.1659 -0.4772
   96BOLB   GL1 2283   8.076  20.377  22.366 -0.2331  0.1696 -0.0092
   96BOLB   GL2 2284   8.074  20.346  22.691  0.1852  0.0486  0.2235
   96BOLB   C1A 2285   7.685  20.556  22.321  0.0758  0.0608 -0.2629
   96BOLB   C2A 2286   7.450  20.895  22.321  0.1550 -0.0291 -0.4326
   96BOLB   C3A 2287   7.298  21.186  22.303 -0.1009  0.1335  0.0321
   96BOLB   C4A 2288   7.382  21.644  22.405 -0.1190 -0.1827 -0.1097
   96BOLB   C1B 2289   7.847  20.577  22.983  0.2340 -0.0921  0.2545
   96BOLB   C2B 2290   7.501  20.927  23.101  0.2103 -0.1626  0.0636
   96BOLB   C3B 2291   7.135  21.139  23.075  0.1865 -0.0380  0.3826
   96BOLB   C4B 2292   6.945  21.404  22.749 -0.1507  0.3482 -0.0610
   96BOLB   NC2 2293   5.465  22.509  24.035 -0.0336 -0.1756  0.1367
   96BOLB   PO2 2294   5.637  22.852  23.962 -0.2329 -0.1652 -0.0299
   96BOLB   GL3 2295   5.989  22.666  23.950 -0.2060 -0.0334 -0.0850
   96BOLB   GL4 2296   5.897  22.314  24.092  0.0769  0.1072  0.1424
   96BOLB   C1C 2297   6.119  22.317  23.617 -0.0167 -0.0424 -0.0937
   96BOLB   C2C 2298   6.479  22.210  23.377 -0.0428 -0.0087  0.0105
   96BOLB   C3C 2299   6.759  22.013  22.968  0.2122 -0.0068  0.0892
   96BOLB   C4C 2300   7.107  21.850  22.671  0.2877 -0.1067  0.2666
   96BOLB   C1D 2301   6.268  22.290  24.392  0.0093 -0.0407 -0.1220
   96BOLB   C2D 2302   6.644  22.422  24.408  0.1650  0.0771 -0.0090
   96BOLB   C3D 2303   7.061  22.435  24.523 -0.1779 -0.1783 -0.0988
   96BOLB   C4D 2304   7.502  22.719  24.635  0.1142  0.1591 -0.2312
   97BOLB   NC1 2305   7.227  12.158  22.142  0.2182 -0.0909 -0.1591
   97BOLB   PO1 2306   7.026  12.321  22.413 -0.1073 -0.1313  0.3977
   97BOLB   GL1 2307   6.828  12.479  22.661 -0.0497 -0.3662 -0.0836
   97BOLB   GL2 2308   6.821  12.829  22.679  0.2775 -0.0215  0.0177
   97BOLB   C1A 2309   6.700  12.600  23.097  0.1230  0.1839 -0.0469
   97BOLB   C2A 2310   6.445  12.803  23.402 -0.2613  0.0186 -0.0127
   97BOLB   C3A 2311   6.038  12.959  23.401  0.1560 -0.1387  0.1505
   97BOLB   C4A 2312   5.864  13.127  23.661 -0.0715 -0.3199  0.2794
   97BOLB   C1B 2313   6.667  13.094  23.035 -0.1448  0.0975 -0.3114
   97BOLB   C2B 2314   6.371  13.348  23.268 -0.1090 -0.1738  0.0695
   97BOLB   C3B 2315   6.040  13.577  23.270  0.2980 -0.2130 -0.0599
   97BOLB   C4B 2316   5.790  13.716  23.541  0.1819 -0.0747 -0.1135
   97BOLB   NC2 2317   5.089  14.553  25.537  0.3446 -0.0103  0.0152
   97BOLB   PO2 2318   5.348  14.098  25.538  0.1242 -0.0014  0.0769
   97BOLB   GL3 2319   5.376  14.400  25.111  0.0666  0.1596 -0.0843
   97BOLB   GL4 2320   5.520  14.697  25.174  0.0305  0.1501 -0.1904
   97BOLB   C1C 2321   5.242  14.269  24.732 -0.0218 -0.2097 -0.1241
   97BOLB   C2C 2322   5.511  14.100  24.390  0.1890  0.0983 -0.1795
   97BOLB   C3C 2323   5.693  13.931  24.037  0.2637  0.1618 -0.1357
   97BOLB   C4C 2324   5.840  13.502  23.988  0.0686  0.0681  0.0312
   97BOLB   C1D 2325   5.801  14.947  24.950 -0.1570  0.0863 -0.0712
   97BOLB   C2D 2326   5.922  15.133  24.554 -0.1387 -0.1825 -0.0009
   97BOLB   C3D 2327   6.218  14.998  24.253 -0.3063 -0.0158  0.2864
   97BOLB   C4D 2328   6.388  15.310  24.020 -0.1788 -0.2768 -0.0075
   98BOLB   NC1 2329   9.722  26.740  24.220 -0.0339  0.1332  0.0035
   98BOLB   PO1 2330   9.731  26.408  24.547 -0.3075 -0.0057 -0.1119
   98BOLB   GL1 2331  10.090  26.275  24.112  0.2054  0.0544 -0.1198
   98BOLB   GL2 2332  10.115  26.573  23.972 -0.2252 -0.1137 -0.2063
   98BOLB   C1A 2333  10.208  25.897  23.880  0.0478 -0.2750 -0.2872
   98BOLB   C2A 2334   9.862  25.766  23.708  0.2660 -0.0406  0.0586
   98BOLB   C3A 2335   9.744  25.295  23.673  0.3001  0.2972  0.2240
   98BOLB   C4A 2336   9.722  24.976  23.402 -0.2871 -0.1647 -0.1303
   98BOLB   C1B 2337  10.448  26.361  23.752 -0.1369 -0.3632  0.0201
   98BOLB   C2B 2338  10.713  25.974  23.732 -0.1975 -0.2836  0.1570
   98BOLB   C3B 2339  11.082  25.819  23.425  0.0089  0.0640 -0.1289
   98BOLB   C4B 2340  11.527  25.818  23.403 -0.2732  0.0805  0.0609
   98BOLB   NC2 2341   7.333  24.429  24.496 -0.1107  0.1889  0.0705
   98BOLB   PO2 2342   7.445  24.493  23.979 -0.3504 -0.2139 -0.1309
   98BOLB   GL3 2343   7.821  24.339  23.815 -0.2067  0.1470 -0.1196
   98BOLB   GL4 2344   8.103  24.168  23.994  0.1143  0.0425  0.1664
   98BOLB   C1C 2345   8.172  24.280  23.434 -0.0464 -0.0998  0.0753
   98BOLB   C2C 2346   8.643  24.396  23.368  0.2397  0.1808 -0.0304
   98BOLB   C3C 2347   9.088  24.505  23.444 -0.2386  0.0530 -0.1557
   98BOLB   C4C 2348   9.431  24.717  23.416 -0.0351 -0.0484 -0.4766
   98BOLB   C1D 2349   8.565  24.390  23.843 -0.0843 -0.1090  0.4016
   98BOLB   C2D 2350   8.979  24.435  23.878 -0.2004 -0.0712  0.2470
   98BOLB   C3D 2351   9.348  24.640  23.938  0.3675  0.0768  0.1255
   98BOLB   C4D 2352   9.736  24.648  23.921 -0.2548 -0.1336 -0.0054
   99BOLB   NC1 2353   7.021  23.819  23.890 -0.1342  0.1746 -0.1140
   99BOLB   PO1 2354   7.039  23.547  24.292  0.0108 -0.1040 -0.0561
   99BOLB   GL1 2355   7.279  23.223  24.013 -0.3403 -0.2221 -0.2003
   99BOLB   GL2 2356   7.154  23.302  23.713 -0.0283 -0.0952 -0.3471
   99BOLB   C1A 2357   7.575  22.991  23.701 -0.0987  0.1805 -0.1349
   99BOLB   C2A 2358   7.816  22.763  23.390  0.0824  0.1244  0.2290
   99BOLB   C3A 2359   7.885  22.473  23.103  0.3348  0.2678 -0.0237
   99BOLB   C4A 2360   7.815  22.006  23.197 -0.4287  0.1007  0.3374
   99BOLB   C1B 2361   7.039  23.025  23.616 -0.1279  0.1081  0.3281
   99BOLB   C2B 2362   7.006  22.902  23.355  0.2049 -0.0652  0.1159
   99BOLB   C3B 2363   6.826  22.931  22.955 -0.0205 -0.2342 -0.3174
   99BOLB   C4B 2364   6.635  23.055  22.515 -0.0695  0.2400  0.4185
   99BOLB   NC2 2365   6.328  22.241  25.270 -0.0452  0.4544  0.3179
   99BOLB   PO2 2366   6.550  21.853  25.187  0.1387 -0.0238 -0.2393
   99BOLB   GL3 2367   6.698  21.783  24.914 -0.0666  0.0958 -0.2587
   99BOLB   GL4 2368   6.609  21.581  24.710 -0.0155  0.0822  0.0981
   99BOLB   C1C 2369   7.076  21.858  24.582  0.2446 -0.0631 -0.3270
   99BOLB   C2C 2370   7.313  21.851  24.229  0.2476  0.0264  0.0507
   99BOLB   C3C 2371   7.391  21.951  23.872  0.2188  0.4934  0.1827
   99BOLB   C4C 2372   7.580  21.877  23.480 -0.4005  0.0422 -0.0477
   99BOLB   C1D 2373   6.865  21.380  24.515  0.0256  0.0422  0.2060
   99BOLB   C2D 2374   7.107  21.415  24.158  0.1222  0.0325  0.2676
   99BOLB   C3D 2375   7.379  21.472  23.775  0.1246 -0.0988  0.4491
   99BOLB   C4D 2376   7.425  21.395  23.417  0.0561 -0.2627 -0.0123
  100BOLB   NC1 2377   7.624  14.953  21.390 -0.0442 -0.1890  0.1084
  100BOLB   PO1 2378   7.372  15.157  21.888  0.3935  0.0996 -0.3237
  100BOLB   GL1 2379   6.941  15.319  22.130 -0.0445 -0.1617  0.2080
  100BOLB   GL2 2380   7.023  15.315  22.422 -0.1230  0.1844 -0.1609
  100BOLB   C1A 2381   6.741  15.655  22.217 -0.0539  0.0031 -0.2712
  100BOLB   C2A 2382   6.516  15.824  22.672  0.0237  0.1111 -0.0292
  100BOLB   C3A 2383   6.154  15.803  22.836  0.0277 -0.1714 -0.2165
  100BOLB   C4A 2384   5.796  16.024  22.935 -0.0498  0.3144 -0.0607
  100BOLB   C1B 2385   6.901  15.378  22.830 -0.0024 -0.1730 -0.0689
  100BOLB   C2B 2386   6.783  15.536  23.175  0.2123 -0.0914  0.0028
  100BOLB   C3B 2387   6.613  15.899  23.326  0.0660 -0.0297  0.0896
  100BOLB   C4B 2388   6.448  16.180  23.646 -0.0527  0.1085  0.2474
  100BOLB   NC2 2389   4.035  16.774  24.878  0.1159  0.0709  0.1019
  100BOLB   PO2 2390   4.410  17.027  24.826 -0.0952  0.4510 -0.0336
  100BOLB   GL3 2391   4.708  16.981  24.551 -0.1350  0.1808  0.2123
  100BOLB   GL4 2392   4.927  17.271  24.602 -0.1413 -0.0386 -0.3563
  100BOLB   C1C 2393   4.926  16.697  24.216 -0.0984 -0.2033 -0.2526
  100BOLB   C2C 2394   4.938  16.469  23.845 -0.0845 -0.1083  0.0532
  100BOLB   C3C 2395   5.071  16.259  23.472  0.2099  0.1418  0.1264
  100BOLB   C4C 2396   5.369  16.101  23.129  0.0459 -0.3711 -0.0891
  100BOLB   C1D 2397   5.185  17.174  24.231  0.1275 -0.1836  0.0416
  100BOLB   C2D 2398   5.529  17.125  24.021 -0.3524  0.0249 -0.4025
  100BOLB   C3D 2399   5.941  17.317  23.997 -0.4617  0.1643 -0.0747
  100BOLB   C4D 2400   6.268  17.632  23.801  0.1291  0.3806 -0.2732
  101BOLB   NC1 2401   7.447  13.534  21.819 -0.0915  0.0259 -0.0410
  101BOLB   PO1 2402   7.180  13.711  22.176 -0.3080 -0.1856  0.3818
  101BOLB   GL1 2403   7.041  13.702  22.594  0.0191 -0.1593 -0.0770
  101BOLB   GL2 2404   7.215  13.508  22.798  0.0766 -0.2047  0.0665
  101BOLB   C1A 2405   7.022  13.915  23.007 -0.0060  0.2272  0.0718
  101BOLB   C2A 2406   6.894  14.003  23.351  0.1722 -0.2212 -0.0014
  101BOLB   C3A 2407   6.668  14.106  23.754  0.0385 -0.1045 -0.0243
  101BOLB   C4A 2408   6.803  14.087  24.189 -0.0724 -0.1728  0.1471
  101BOLB   C1B 2409   7.050  13.463  23.287 -0.2218  0.3264  0.1743
  101BOLB   C2B 2410   6.780  13.454  23.535  0.0982  0.0900 -0.3068
  101BOLB   C3B 2411   6.415  13.211  23.754  0.1809  0.1370  0.2585
  101BOLB   C4B 2412   6.204  12.818  23.860 -0.0108 -0.3986  0.0049
  101BOLB   NC2 2413   6.955  13.463  26.642  0.1009 -0.0514  0.2696
  101BOLB   PO2 2414   6.758  13.870  26.819  0.0436 -0.0931  0.1619
  101BOLB   GL3 2415   6.973  13.912  26.403 -0.3815  0.0604 -0.1167
  101BOLB   GL4 2416   7.013  14.243  26.253 -0.1222 -0.3290  0.1132
  101BOLB   C1C 2417   7.037  13.893  25.927  0.0626 -0.0925 -0.0217
  101BOLB   C2C 2418   7.025  14.184  25.525 -0.0535 -0.0438  0.2737
  101BOLB   C3C 2419   6.840  14.250  25.082 -0.2382 -0.0224  0.0429
  101BOLB   C4C 2420   6.901  14.114  24.681 -0.2024  0.0868 -0.2361
  101BOLB   C1D 2421   7.371  14.349  25.969  0.2284  0.0918  0.0790
  101BOLB   C2D 2422   7.662  14.317  25.661 -0.0041 -0.1284  0.0333
  101BOLB   C3D 2423   7.758  14.007  25.316  0.1154 -0.2847 -0.0412
  101BOLB   C4D 2424   7.670  13.780  24.972 -0.3284 -0.0602  0.1163
  102BOLB   NC1 2425   9.225  20.217  22.526 -0.2562 -0.1214  0.2338
  102BOLB   PO1 2426   8.933  19.939  22.619  0.2760  0.0324  0.2687
  102BOLB   GL1 2427   8.732  19.800  22.920 -0.0284 -0.2758  0.3171
  102BOLB   GL2 2428   8.646  19.964  23.136 -0.0365  0.2592  0.2874
  102BOLB   C1A 2429   8.274  19.735  22.940  0.0706  0.2276  0.0315
  102BOLB   C2A 2430   8.047  19.785  23.308  0.0417 -0.2893 -0.1396
  102BOLB   C3A 2431   7.998  19.948  23.637 -0.2081  0.0992  0.2875
  102BOLB   C4A 2432   7.725  20.363  23.741  0.0559  0.2541 -0.2336
  102BOLB   C1B 2433   8.302  20.172  23.272 -0.0190  0.1832 -0.0936
  102BOLB   C2B 2434   7.785  20.202  23.285 -0.2012  0.2623 -0.0982
  102BOLB   C3B 2435   7.435  20.461  23.360  0.1474 -0.0984 -0.0781
  102BOLB   C4B 2436   7.029  20.611  23.234  0.0553 -0.4461  0.0703
  102BOLB   NC2 2437   7.370  21.256  25.973 -0.1816  0.2092  0.3384
  102BOLB   PO2 2438   7.070  20.956  25.779  0.2723  0.2099  0.1037
  102BOLB   GL3 2439   7.009  20.819  25.355  0.0881  0.1568  0.0562
  102BOLB   GL4 2440   7.226  20.542  25.264 -0.0132 -0.3566  0.1969
  102BOLB   C1C 2441   7.087  20.814  24.871 -0.3875  0.0302  0.0672
  102BOLB   C2C 2442   7.140  20.954  24.557 -0.0653 -0.1089  0.4834
  102BOLB   C3C 2443   7.285  20.782  24.244  0.2081 -0.2018  0.1514
  102BOLB   C4C 2444   7.494  20.644  23.903 -0.3579 -0.2337 -0.2538
  102BOLB   C1D 2445   7.684  20.534  25.338  0.1837 -0.3039  0.0187
  102BOLB   C2D 2446   8.028  20.477  25.067 -0.1373  0.2503  0.0980
  102BOLB   C3D 2447   8.101  20.372  24.549 -0.1894  0.1294  0.1704
  102BOLB   C4D 2448   8.154  20.267  24.080  0.3006  0.1870  0.0313
  103BOLB   NC1 2449   8.181  13.108  22.358 -0.1565  0.1821  0.0474
  103BOLB   PO1 2450   7.835  13.093  22.511 -0.1080  0.1842 -0.1149
  103BOLB   GL1 2451   7.658  13.242  22.774  0.0849  0.2622  0.1715
  103BOLB   GL2 2452   7.757  13.082  23.028 -0.0384  0.3306  0.0789
  103BOLB   C1A 2453   7.614  13.580  23.040  0.1667 -0.4527 -0.2160
  103BOLB   C2A 2454   7.406  13.771  23.390 -0.4026 -0.1792  0.2106
  103BOLB   C3A 2455   7.150  13.836  23.757 -0.0280  0.4448 -0.0951
  103BOLB   C4A 2456   6.899  13.672  23.994 -0.3774 -0.0899 -0.2864
  103BOLB   C1B 2457   7.490  13.120  23.364  0.2440 -0.3422 -0.3465
  103BOLB   C2B 2458   7.300  13.273  23.792  0.1150 -0.1269  0.5109
  103BOLB   C3B 2459   7.274  13.234  24.205 -0.0278  0.2152 -0.0512
  103BOLB   C4B 2460   7.378  13.397  24.646  0.0118  0.3765  0.1366
  103BOLB   NC2 2461   6.581  14.248  26.526  0.1637  0.2549 -0.1406
  103BOLB   PO2 2462   6.409  14.508  26.268 -0.3376 -0.1981  0.2333
  103BOLB   GL3 2463   6.597  14.216  25.893  0.1467  0.3932  0.1675
  103BOLB   GL4 2464   6.388  13.962  26.005 -0.0718  0.2229 -0.0673
  103BOLB   C1C 2465   6.634  13.886  25.571  0.0739  0.3925 -0.1549
  103BOLB   C2C 2466   6.754  13.773  25.018 -0.1378 -0.2849  0.1062
  103BOLB   C3C 2467   6.624  13.590  24.664 -0.0123  0.2610 -0.1765
  103BOLB   C4C 2468   6.918  13.539  24.398  0.1830  0.0913 -0.1649
  103BOLB   C1D 2469   6.145  14.109  25.526  0.0172  0.2929 -0.0213
  103BOLB   C2D 2470   5.951  14.393  25.207  0.0902 -0.0881  0.0742
  103BOLB   C3D 2471   5.720  14.407  24.798  0.1134  0.5268 -0.1447
  103BOLB   C4D 2472   6.008  14.640  24.526 -0.3223 -0.2640  0.1338
  104BOLB   NC1 2473   4.864  15.818  18.420 -0.0786  0.2248  0.0448
  104BOLB   PO1 2474   4.640  15.661  18.093 -0.2509  0.0254  0.2943
  104BOLB   GL1 2475   4.647  16.189  18.137 -0.0131  0.0976 -0.1245
  104BOLB   GL2 2476   4.635  16.487  17.845 -0.0034  0.0891 -0.1400
  104BOLB   C1A 2477   4.403  16.584  18.268 -0.0390  0.1985  0.1095
  104BOLB   C2A 2478   4.391  16.966  18.470  0.0595  0.0155 -0.0849
  104BOLB   C3A 2479   4.033  17.108  18.756 -0.1844 -0.2253 -0.0194
  104BOLB   C4A 2480   3.633  16.938  19.100 -0.2282 -0.3647  0.2826
  104BOLB   C1B 2481   4.680  16.871  17.659  0.3323  0.1840 -0.0587
  104BOLB   C2B 2482   4.777  17.232  17.444  0.2109  0.0820 -0.0433
  104BOLB   C3B 2483   5.106  17.485  17.391  0.1669 -0.0008  0.0779
  104BOLB   C4B 2484   5.232  17.872  17.301  0.1242  0.2059 -0.1556
  104BOLB   NC2 2485   2.024  15.468  20.058 -0.1426 -0.1504 -0.2192
  104BOLB   PO2 2486   2.210  15.827  20.304  0.2312 -0.2135  0.1952
  104BOLB   GL3 2487   2.248  16.211  20.223  0.3271 -0.1148  0.0066
  104BOLB   GL4 2488   2.325  16.381  20.462 -0.3880  0.0957 -0.0548
  104BOLB   C1C 2489   2.381  16.483  19.827 -0.0239  0.0373 -0.1560
  104BOLB   C2C 2490   2.528  16.817  19.537 -0.0214  0.0711  0.0904
  104BOLB   C3C 2491   2.784  17.028  19.200 -0.2085  0.1169 -0.1240
  104BOLB   C4C 2492   3.221  16.925  19.159 -0.1183 -0.5006  0.0317
  104BOLB   C1D 2493   2.420  16.840  20.206  0.0599 -0.1525  0.1100
  104BOLB   C2D 2494   2.801  16.823  20.092  0.1477 -0.3040 -0.0877
  104BOLB   C3D 2495   3.019  17.037  19.669 -0.1450  0.0742  0.0170
  104BOLB   C4D 2496   3.438  17.258  19.485 -0.1264  0.1028  0.0407
  105BOLB   NC1 2497   5.889  16.471  19.427 -0.1612 -0.2001 -0.1323
  105BOLB   PO1 2498   5.850  16.767  19.777 -0.0135  0.1062  0.1637
  105BOLB   GL1 2499   5.634  17.097  20.063  0.1909 -0.1117 -0.4219
  105BOLB   GL2 2500   5.501  16.958  20.428  0.2544 -0.1122 -0.2368
  105BOLB   C1A 2501   5.183  17.266  20.061  0.0341  0.3634 -0.1672
  105BOLB   C2A 2502   4.945  17.557  20.380 -0.1091  0.1437  0.0231
  105BOLB   C3A 2503   4.772  17.732  20.714 -0.2265  0.1203  0.0124
  105BOLB   C4A 2504   4.499  18.009  20.956  0.0597 -0.3923 -0.0791
  105BOLB   C1B 2505   5.290  17.322  20.692 -0.2216  0.2017  0.0831
  105BOLB   C2B 2506   5.010  17.320  21.118 -0.0690 -0.1222  0.1691
  105BOLB   C3B 2507   4.706  16.966  21.287  0.0317 -0.1243 -0.0739
  105BOLB   C4B 2508   4.257  16.838  21.374  0.0993  0.0429  0.0419
  105BOLB   NC2 2509   2.350  18.996  22.718  0.3649 -0.2248  0.2215
  105BOLB   PO2 2510   2.615  18.673  22.489 -0.2703 -0.2651 -0.1753
  105BOLB   GL3 2511   2.993  18.642  22.283 -0.1478  0.0720  0.0330
  105BOLB   GL4 2512   2.985  18.481  21.958  0.0171 -0.1114 -0.3534
  105BOLB   C1C 2513   3.484  18.553  22.208  0.2324  0.3863 -0.0835
  105BOLB   C2C 2514   3.874  18.624  22.016 -0.0717 -0.0291  0.2202
  105BOLB   C3C 2515   4.215  18.328  21.740 -0.1205 -0.0059  0.0851
  105BOLB   C4C 2516   4.328  18.040  21.372  0.1262  0.1369  0.2221
  105BOLB   C1D 2517   3.260  18.234  21.709 -0.1880  0.0366  0.1203
  105BOLB   C2D 2518   3.451  17.943  21.596 -0.0540 -0.1317 -0.0402
  105BOLB   C3D 2519   3.754  17.662  21.486  0.3327 -0.2683  0.2237
  105BOLB   C4D 2520   4.035  17.621  21.211  0.0491 -0.1141  0.3364
  106BOLB   NC1 2521   7.548  16.249  21.832  0.0245  0.2101  0.3540
  106BOLB   PO1 2522   7.209  16.394  22.000  0.1346 -0.0184  0.1315
  106BOLB   GL1 2523   6.824  16.290  22.202  0.1796  0.0703 -0.1038
  106BOLB   GL2 2524   6.681  16.595  22.249 -0.0313  0.4066 -0.0063
  106BOLB   C1A 2525   6.381  16.169  22.333  0.1770  0.0679  0.1459
  106BOLB   C2A 2526   5.939  16.213  22.483 -0.1150 -0.0354 -0.0279
  106BOLB   C3A 2527   5.885  16.485  22.827  0.0233 -0.1293  0.1227
  106BOLB   C4A 2528   5.663  16.603  23.236  0.0744  0.0883  0.2782
  106BOLB   C1B 2529   6.499  16.568  22.692  0.1824  0.1157  0.0286
  106BOLB   C2B 2530   6.392  16.254  22.956  0.0008 -0.1950 -0.3304
  106BOLB   C3B 2531   6.145  16.119  23.280 -0.1326 -0.3044 -0.1195
  106BOLB   C4B 2532   5.947  16.169  23.745 -0.0236 -0.1907  0.0555
  106BOLB   NC2 2533   4.913  17.281  25.530 -0.5128 -0.0267 -0.1598
  106BOLB   PO2 2534   4.880  17.284  25.149 -0.0369  0.2338  0.2622
  106BOLB   GL3 2535   5.302  17.263  24.979 -0.0725 -0.0275  0.2498
  106BOLB   GL4 2536   5.372  17.076  25.186  0.0435  0.0175 -0.0608
  106BOLB   C1C 2537   5.474  16.933  24.627  0.0559  0.1212 -0.1498
  106BOLB   C2C 2538   5.518  16.667  24.321 -0.0468 -0.0820  0.2882
  106BOLB   C3C 2539   5.505  16.521  23.969 -0.2200 -0.0193 -0.4248
  106BOLB   C4C 2540   5.513  16.480  23.576 -0.0634 -0.1884  0.0886
  106BOLB   C1D 2541   5.823  17.093  25.018 -0.0316  0.0355 -0.4031
  106BOLB   C2D 2542   6.004  16.718  24.890 -0.0377 -0.0471  0.1083
  106BOLB   C3D 2543   6.108  16.689  24.495  0.4719  0.1261  0.0281
  106BOLB   C4D 2544   6.064  16.458  24.182 -0.2741 -0.0548 -0.2256
  107BOLB   NC1 2545   2.734  19.271  19.100  0.1353  0.2416  0.1426
  107BOLB   PO1 2546   2.597  18.878  19.030 -0.2670 -0.2050 -0.1015
  107BOLB   GL1 2547   2.893  18.716  19.225 -0.1859  0.1370 -0.2126
  107BOLB   GL2 2548   3.045  18.992  19.356 -0.0144  0.1344 -0.2075
  107BOLB   C1A 2549   3.126  18.436  19.459 -0.0226 -0.0242  0.0970
  107BOLB   C2A 2550   3.462  18.210  19.600  0.3189  0.2199  0.1560
  107BOLB   C3A 2551   3.848  18.197  19.712 -0.3725 -0.1968 -0.1585
  107BOLB   C4A 2552   4.200  18.243  20.002  0.0521  0.1209  0.2130
  107BOLB   C1B 2553   3.466  19.085  19.522 -0.1151 -0.1946 -0.0195
  107BOLB   C2B 2554   3.843  19.082  19.777 -0.2256  0.0408 -0.1310
  107BOLB   C3B 2555   4.042  18.966  20.085 -0.0987  0.1464 -0.1988
  107BOLB   C4B 2556   4.236  18.691  20.271  0.5643  0.3543 -0.1924
  107BOLB   NC2 2557   3.039  19.787  22.099 -0.0888  0.0690 -0.0264
  107BOLB   PO2 2558   3.318  19.536  21.834  0.2467  0.0149  0.2458
  107BOLB   GL3 2559   3.710  19.392  21.704  0.2818  0.1335 -0.2457
  107BOLB   GL4 2560   3.864  19.632  21.591 -0.0237 -0.0964  0.2819
  107BOLB   C1C 2561   3.770  19.216  21.265 -0.0760  0.1124 -0.0958
  107BOLB   C2C 2562   4.097  18.977  21.104  0.1580 -0.0025  0.1192
  107BOLB   C3C 2563   4.190  18.587  20.800  0.0498 -0.1617 -0.0722
  107BOLB   C4C 2564   4.343  18.311  20.571  0.2530 -0.1454 -0.0246
  107BOLB   C1D 2565   4.155  19.903  21.930 -0.0671  0.1268  0.1604
  107BOLB   C2D 2566   4.488  20.051  22.260  0.1917  0.0450 -0.0510
  107BOLB   C3D 2567   4.695  19.957  22.650 -0.0730  0.3302 -0.1273
  107BOLB   C4D 2568   4.835  19.751  23.061  0.3393  0.0137  0.0997
  108BOLB   NC1 2569   8.098  10.077  23.291 -0.2008  0.1667 -0.2308
  108BOLB   PO1 2570   8.363   9.692  23.454  0.0185  0.1025  0.0422
  108BOLB   GL1 2571   8.119   9.888  23.790 -0.1956  0.2089  0.2557
  108BOLB   GL2 2572   7.896   9.688  23.602  0.2481  0.0075 -0.3456
  108BOLB   C1A 2573   8.061  10.296  23.885 -0.1111 -0.1061  0.2601
  108BOLB   C2A 2574   8.089  10.613  24.278 -0.1499  0.0514 -0.2331
  108BOLB   C3A 2575   8.051  10.741  24.677  0.0884 -0.1308  0.4075
  108BOLB   C4A 2576   8.028  10.975  25.141 -0.0895  0.3578  0.0466
  108BOLB   C1B 2577   7.812   9.627  24.022 -0.2560 -0.2363  0.1828
  108BOLB   C2B 2578   7.988  10.005  24.246  0.2032  0.3523  0.0708
  108BOLB   C3B 2579   8.353  10.221  24.320 -0.0236 -0.2695 -0.0552
  108BOLB   C4B 2580   8.450  10.430  24.657 -0.0157  0.2830  0.0862
  108BOLB   NC2 2581   7.573  10.144  26.963 -0.2285 -0.1049 -0.3016
  108BOLB   PO2 2582   7.473   9.816  26.754 -0.0747  0.0381 -0.0707
  108BOLB   GL3 2583   7.488   9.986  26.409  0.2473 -0.0825  0.2217
  108BOLB   GL4 2584   7.564   9.735  26.163 -0.0036 -0.0251 -0.0296
  108BOLB   C1C 2585   7.550  10.299  26.155 -0.0412 -0.1900  0.0638
  108BOLB   C2C 2586   7.572  10.624  25.970 -0.1092 -0.1051  0.3037
  108BOLB   C3C 2587   7.936  10.832  25.843  0.2386  0.1891  0.2332
  108BOLB   C4C 2588   8.069  10.930  25.515 -0.1413 -0.0091 -0.4903
  108BOLB   C1D 2589   7.870   9.929  26.025  0.0678 -0.0989 -0.1815
  108BOLB   C2D 2590   8.155  10.350  25.983  0.1172 -0.0342  0.4180
  108BOLB   C3D 2591   8.284  10.412  25.562  0.2706 -0.0664 -0.0441
  108BOLB   C4D 2592   8.292  10.553  25.124  0.1959 -0.3134  0.1295
  109BOLB   NC1 2593   6.534  17.933  20.583  0.0021  0.1708  0.0751
  109BOLB   PO1 2594   6.349  18.153  20.471 -0.3447 -0.2182 -0.0149
  109BOLB   GL1 2595   6.100  18.444  20.628 -0.0229 -0.1037 -0.0713
  109BOLB   GL2 2596   5.986  18.517  20.402 -0.1964 -0.1815  0.3742
  109BOLB   C1A 2597   5.941  18.630  20.966 -0.2688  0.0113 -0.0567
  109BOLB   C2A 2598   5.711  18.743  21.393  0.2651 -0.2177  0.0012
  109BOLB   C3A 2599   5.345  19.030  21.550 -0.0196  0.0527 -0.0561
  109BOLB   C4A 2600   5.227  19.038  21.995 -0.0518 -0.3310  0.3760
  109BOLB   C1B 2601   6.150  18.907  20.620 -0.3432 -0.4347 -0.0724
  109BOLB   C2B 2602   6.031  19.314  20.666 -0.5285 -0.3064  0.0491
  109BOLB   C3B 2603   5.683  19.594  20.779  0.0251  0.0827  0.2947
  109BOLB   C4B 2604   5.556  19.855  21.025  0.0318  0.0194  0.1761
  109BOLB   NC2 2605   3.951  19.609  23.874  0.0687  0.0540 -0.0805
  109BOLB   PO2 2606   4.391  19.807  23.893  0.2200 -0.2241  0.0006
  109BOLB   GL3 2607   4.746  19.644  23.908 -0.0499 -0.1803 -0.2162
  109BOLB   GL4 2608   5.186  19.561  24.098 -0.0510 -0.2382  0.1464
  109BOLB   C1C 2609   4.897  19.344  23.614 -0.0453  0.0302  0.2481
  109BOLB   C2C 2610   4.941  19.166  23.206  0.2191 -0.0996  0.0515
  109BOLB   C3C 2611   5.068  19.335  22.804 -0.0997 -0.1757 -0.0426
  109BOLB   C4C 2612   5.274  19.403  22.297  0.0181  0.1460 -0.1965
  109BOLB   C1D 2613   5.567  19.434  24.258  0.1221  0.0417 -0.0993
  109BOLB   C2D 2614   5.975  19.357  24.062  0.2132  0.4935  0.0294
  109BOLB   C3D 2615   6.273  19.171  23.716  0.2758  0.0497 -0.0494
  109BOLB   C4D 2616   6.656  19.258  23.558 -0.1017  0.3231  0.3500
  110BOLB   NC1 2617   5.890  10.893  22.315 -0.1216  0.2440 -0.1149
  110BOLB   PO1 2618   6.052  10.724  22.802  0.2789 -0.0058 -0.3047
  110BOLB   GL1 2619   6.129  11.023  23.109 -0.1445 -0.0994 -0.0435
  110BOLB   GL2 2620   6.271  11.317  23.043  0.0296  0.0302  0.0775
  110BOLB   C1A 2621   6.123  11.046  23.570  0.0773  0.4476 -0.1579
  110BOLB   C2A 2622   6.242  10.928  23.942 -0.3000 -0.0812  0.0627
  110BOLB   C3A 2623   6.439  11.042  24.326 -0.1679  0.1631  0.2106
  110BOLB   C4A 2624   6.130  11.117  24.633 -0.4276 -0.1654  0.0586
  110BOLB   C1B 2625   6.714  11.577  23.399  0.1297 -0.1505 -0.0259
  110BOLB   C2B 2626   7.111  11.780  23.546 -0.0186  0.1023 -0.0199
  110BOLB   C3B 2627   7.250  12.080  23.841 -0.1869 -0.3517  0.1746
  110BOLB   C4B 2628   7.324  12.092  24.333 -0.1690 -0.0265 -0.4759
  110BOLB   NC2 2629   5.566  13.040  26.513 -0.1141 -0.0798 -0.2278
  110BOLB   PO2 2630   5.381  12.915  26.068  0.1696  0.3268 -0.1047
  110BOLB   GL3 2631   5.642  12.755  25.736 -0.0220  0.2083  0.1153
  110BOLB   GL4 2632   5.638  13.000  25.517 -0.0566 -0.0381  0.1097
  110BOLB   C1C 2633   5.734  12.365  25.400  0.2056  0.0307 -0.1104
  110BOLB   C2C 2634   5.627  11.903  25.302  0.0360  0.3450  0.0233
  110BOLB   C3C 2635   5.571  11.513  25.080  0.0928  0.0854 -0.0108
  110BOLB   C4C 2636   5.816  11.261  24.867  0.0048  0.0091 -0.1574
  110BOLB   C1D 2637   6.103  13.172  25.544 -0.3109 -0.3287 -0.3190
  110BOLB   C2D 2638   6.367  13.501  25.256  0.2532  0.0716  0.1606
  110BOLB   C3D 2639   6.110  13.574  24.917 -0.2599  0.1587 -0.2878
  110BOLB   C4D 2640   5.818  13.883  25.006 -0.1478  0.2610  0.2142
  111BOLB   NC1 2641   8.056  17.980  21.996 -0.0050  0.0074 -0.1840
  111BOLB   PO1 2642   7.869  18.125  22.457  0.0154  0.2377  0.3775
  111BOLB   GL1 2643   7.751  18.344  22.860  0.0907  0.0424 -0.1434
  111BOLB   GL2 2644   7.527  18.604  22.813 -0.0459  0.0351  0.3536
  111BOLB   C1A 2645   7.417  18.487  23.251 -0.0709 -0.0884  0.4317
  111BOLB   C2A 2646   7.189  18.434  23.559  0.2862 -0.0410  0.0501
  111BOLB   C3A 2647   7.107  18.334  24.012 -0.0700  0.3110 -0.1312
  111BOLB   C4A 2648   7.257  18.096  24.374  0.2961 -0.1544  0.0758
  111BOLB   C1B 2649   7.080  18.753  23.054  0.0700 -0.2330  0.2659
  111BOLB   C2B 2650   6.981  18.862  23.462 -0.0694  0.0957 -0.1267
  111BOLB   C3B 2651   6.714  18.660  23.734 -0.3264 -0.0678  0.1943
  111BOLB   C4B 2652   6.518  18.510  24.120 -0.1298 -0.0898 -0.0789
  111BOLB   NC2 2653   6.024  17.811  26.956 -0.1716 -0.1531 -0.1616
  111BOLB   PO2 2654   6.406  17.791  26.775  0.0454  0.1221  0.1444
  111BOLB   GL3 2655   6.652  17.743  26.420  0.0916  0.0494  0.2280
  111BOLB   GL4 2656   6.889  17.464  26.359 -0.1788 -0.2470 -0.1495
  111BOLB   C1C 2657   6.604  17.796  25.953  0.1619 -0.1865 -0.2420
  111BOLB   C2C 2658   6.722  17.790  25.594  0.0706  0.2180  0.0785
  111BOLB   C3C 2659   6.871  17.798  25.137 -0.0781  0.0792  0.1546
  111BOLB   C4C 2660   7.076  18.053  24.818 -0.5606  0.0425  0.1730
  111BOLB   C1D 2661   7.226  17.237  26.159 -0.1039 -0.1332  0.1209
  111BOLB   C2D 2662   7.552  16.953  26.074 -0.1374 -0.0738  0.2376
  111BOLB   C3D 2663   7.784  16.770  25.693 -0.3617 -0.0572 -0.1057
  111BOLB   C4D 2664   8.101  16.865  25.364  0.3943  0.2547  0.1465
  112BOLB   NC1 2665   4.193  20.702  19.821  0.2620  0.1157  0.0147
  112BOLB   PO1 2666   3.907  20.326  19.917  0.3604  0.0651 -0.0733
  112BOLB   GL1 2667   4.104  19.891  19.954 -0.2068  0.4090  0.0799
  112BOLB   GL2 2668   4.191  19.725  19.731  0.1547 -0.0147  0.0510
  112BOLB   C1A 2669   4.395  19.771  20.305 -0.1459 -0.0192  0.1511
  112BOLB   C2A 2670   4.753  19.522  20.502 -0.0692 -0.0111 -0.0049
  112BOLB   C3A 2671   5.174  19.493  20.730 -0.0671  0.0691 -0.0333
  112BOLB   C4A 2672   5.365  19.410  21.152  0.0578  0.2810 -0.1328
  112BOLB   C1B 2673   4.366  19.339  19.855 -0.0093 -0.0026  0.3380
  112BOLB   C2B 2674   4.490  18.863  19.846 -0.1224 -0.1762 -0.1992
  112BOLB   C3B 2675   4.606  18.484  19.958 -0.1443  0.1838 -0.1765
  112BOLB   C4B 2676   5.023  18.223  19.760 -0.1558  0.2288 -0.0019
  112BOLB   NC2 2677   4.138  19.879  23.012 -0.0099 -0.0172 -0.0737
  112BOLB   PO2 2678   4.331  20.278  23.169 -0.3140 -0.1552 -0.0092
  112BOLB   GL3 2679   4.662  20.424  22.916 -0.4304 -0.4032  0.2165
  112BOLB   GL4 2680   4.960  20.290  23.088 -0.1345  0.2093 -0.0820
  112BOLB   C1C 2681   4.683  20.483  22.505  0.0445  0.2749 -0.1945
  112BOLB   C2C 2682   4.857  20.351  22.128 -0.0265 -0.1116  0.1205
  112BOLB   C3C 2683   5.044  20.202  21.688  0.1096  0.1637 -0.1791
  112BOLB   C4C 2684   5.327  19.794  21.530 -0.2798 -0.2091  0.2401
  112BOLB   C1D 2685   5.327  20.004  23.155 -0.0808 -0.2440 -0.3930
  112BOLB   C2D 2686   5.760  19.833  23.297 -0.1002 -0.0027 -0.1397
  112BOLB   C3D 2687   6.171  19.597  23.368  0.1218  0.0785 -0.1079
  112BOLB   C4D 2688   6.396  19.669  23.691  0.1259 -0.2054  0.2703
  113BOLB   NC1 2689   7.076  13.218  22.389  0.1258  0.1620 -0.0817
  113BOLB   PO1 2690   6.674  12.948  22.242  0.0028  0.3087 -0.1728
  113BOLB   GL1 2691   6.311  13.197  22.198 -0.1361 -0.0874  0.2150
  113BOLB   GL2 2692   6.641  13.411  22.403 -0.2033 -0.1226 -0.2193
  113BOLB   C1A 2693   5.982  13.322  22.371  0.0674 -0.0106 -0.1852
  113BOLB   C2A 2694   5.820  13.622  22.699 -0.2651 -0.0409  0.3199
  113BOLB   C3A 2695   5.735  13.914  23.052 -0.1491  0.0052  0.1172
  113BOLB   C4A 2696   5.616  14.190  23.445  0.4051  0.1830 -0.0116
  113BOLB   C1B 2697   6.316  13.165  22.712  0.2522 -0.0158 -0.0885
  113BOLB   C2B 2698   6.247  12.714  22.863  0.0594 -0.1571  0.1237
  113BOLB   C3B 2699   5.767  12.635  23.150  0.1347  0.0416 -0.1140
  113BOLB   C4B 2700   5.516  12.861  23.363  0.2843 -0.1052 -0.1099
  113BOLB   NC2 2701   4.584  15.088  26.000  0.0763  0.1093 -0.0580
  113BOLB   PO2 2702   4.630  14.961  25.442  0.3164 -0.2018 -0.1657
  113BOLB   GL3 2703   4.940  14.778  25.082 -0.1389  0.0087  0.1681
  113BOLB   GL4 2704   4.808  14.695  24.822  0.1350 -0.0250 -0.1454
  113BOLB   C1C 2705   5.245  14.764  24.717  0.0211 -0.2473  0.1459
  113BOLB   C2C 2706   5.485  14.698  24.449  0.0068 -0.0962 -0.3590
  113BOLB   C3C 2707   5.683  14.510  24.186 -0.1681 -0.0964  0.0222
  113BOLB   C4C 2708   5.706  14.422  23.787 -0.5828  0.3411  0.2479
  113BOLB   C1D 2709   4.753  14.211  24.729 -0.1773  0.1189 -0.1790
  113BOLB   C2D 2710   4.793  13.766  24.704 -0.1489  0.2064  0.3396
  113BOLB   C3D 2711   4.828  13.445  24.295 -0.1355  0.0984 -0.1023
  113BOLB   C4D 2712   4.793  13.607  23.925  0.0364 -0.1484 -0.3240
  114BOLB   NC1 2713   6.246  15.891  20.108 -0.3154 -0.3919 -0.0895
  114BOLB   PO1 2714   5.906  15.802  20.160 -0.1454  0.3092 -0.0032
  114BOLB   GL1 2715   5.555  16.007  20.375 -0.1542 -0.4112  0.0288
  114BOLB   GL2 2716   5.451  16.253  20.282  0.4640  0.1117 -0.2282
  114BOLB   C1A 2717   5.396  16.110  20.855 -0.1529 -0.1445  0.0879
  114BOLB   C2A 2718   5.066  16.416  21.026  0.1409 -0.1140  0.0425
  114BOLB   C3A 2719   4.997  16.484  21.460 -0.0098 -0.2355 -0.2430
  114BOLB   C4A 2720   4.901  16.470  21.886 -0.0361 -0.1429 -0.0987
  114BOLB   C1B 2721   5.160  16.557  20.512  0.0860 -0.1085  0.1636
  114BOLB   C2B 2722   5.036  16.929  20.426 -0.3407 -0.1337  0.1505
  114BOLB   C3B 2723   4.740  17.092  20.763 -0.1998  0.0633 -0.2083
  114BOLB   C4B 2724   4.519  17.358  20.946  0.0137  0.0475  0.2791
  114BOLB   NC2 2725   3.602  16.830  24.171  0.0720  0.0435  0.3663
  114BOLB   PO2 2726   3.539  16.779  23.714 -0.1975  0.0051 -0.3649
  114BOLB   GL3 2727   3.780  16.819  23.322 -0.0224  0.0884  0.0910
  114BOLB   GL4 2728   3.787  16.538  23.204  0.1882 -0.0540 -0.1048
  114BOLB   C1C 2729   4.112  16.900  23.137  0.1899  0.2670 -0.0331
  114BOLB   C2C 2730   4.505  16.818  22.932  0.2100  0.0840  0.0649
  114BOLB   C3C 2731   4.755  16.738  22.623  0.1707  0.5267 -0.2482
  114BOLB   C4C 2732   4.906  16.436  22.329 -0.2773  0.0195 -0.2626
  114BOLB   C1D 2733   4.200  16.373  23.194  0.0192  0.0757 -0.2299
  114BOLB   C2D 2734   4.542  16.356  22.874 -0.1562  0.0235 -0.0765
  114BOLB   C3D 2735   5.010  16.299  22.827  0.1931 -0.3449  0.0371
  114BOLB   C4D 2736   5.457  16.272  22.608  0.1628  0.1177 -0.0631
  115BOLB   NC1 2737   7.642  10.362  22.498  0.1927 -0.0843 -0.1746
  115BOLB   PO1 2738   7.801  10.553  22.940  0.0700  0.2741 -0.2356
  115BOLB   GL1 2739   7.596  10.940  23.199 -0.2001 -0.1053  0.1384
  115BOLB   GL2 2740   7.914  10.987  23.325 -0.1283  0.0770 -0.0807
  115BOLB   C1A 2741   7.344  11.017  23.497  0.0212 -0.0770 -0.3832
  115BOLB   C2A 2742   7.036  11.285  23.727 -0.2526 -0.1194  0.1915
  115BOLB   C3A 2743   6.802  11.281  24.085  0.2626  0.0216 -0.2381
  115BOLB   C4A 2744   6.868  11.102  24.488  0.1382 -0.1787 -0.2083
  115BOLB   C1B 2745   7.793  11.297  23.602  0.1040 -0.1545  0.0328
  115BOLB   C2B 2746   7.627  11.774  23.530  0.2008  0.2758 -0.0719
  115BOLB   C3B 2747   7.520  12.196  23.315  0.1479  0.0056  0.1875
  115BOLB   C4B 2748   7.430  12.550  23.496  0.0792  0.0373  0.1063
  115BOLB   NC2 2749   6.238  11.621  26.516  0.0247  0.2004 -0.1757
  115BOLB   PO2 2750   6.232  11.173  26.618 -0.1791 -0.1413  0.0801
  115BOLB   GL3 2751   6.494  11.270  26.301 -0.2179  0.0780  0.0995
  115BOLB   GL4 2752   6.774  11.131  26.324 -0.0045 -0.0275 -0.1128
  115BOLB   C1C 2753   6.492  11.489  25.889  0.3006 -0.0054 -0.1942
  115BOLB   C2C 2754   6.731  11.314  25.635  0.0285 -0.0266 -0.1154
  115BOLB   C3C 2755   7.006  11.315  25.321 -0.2194 -0.2123 -0.2101
  115BOLB   C4C 2756   7.145  11.261  24.916 -0.1734  0.0259  0.1569
  115BOLB   C1D 2757   7.120  11.030  26.113 -0.1067 -0.0252 -0.0293
  115BOLB   C2D 2758   7.317  10.967  25.609  0.0432  0.0308 -0.3575
  115BOLB   C3D 2759   7.528  11.251  25.224  0.3124  0.0445  0.2643
  115BOLB   C4D 2760   7.680  11.332  24.841 -0.1174 -0.2838  0.2122
  116BOLB   NC1 2761   9.966  27.693  21.815  0.1018  0.2365  0.0294
  116BOLB   PO1 2762   9.907  27.542  22.203  0.0435 -0.0913 -0.0871
  116BOLB   GL1 2763  10.356  27.489  22.241  0.2419 -0.2919  0.0534
  116BOLB   GL2 2764  10.515  27.709  21.968 -0.2174  0.2479 -0.0518
  116BOLB   C1A 2765  10.665  27.221  22.090  0.2231  0.0710 -0.1427
  116BOLB   C2A 2766  10.811  26.864  21.910 -0.2620  0.0621 -0.1333
  116BOLB   C3A 2767  11.020  26.840  21.562  0.1571  0.1017  0.2182
  116BOLB   C4A 2768  11.124  27.131  21.178  0.2803 -0.0664 -0.1547
  116BOLB   C1B 2769  10.852  27.872  21.818  0.2764  0.0709 -0.0832
  116BOLB   C2B 2770  11.310  27.852  21.802 -0.2979 -0.1742  0.0131
  116BOLB   C3B 2771  11.598  27.682  21.827  0.0518  0.0472  0.0046
  116BOLB   C4B 2772  11.882  27.358  21.965 -0.0317  0.1163  0.0940
  116BOLB   NC2 2773  12.390  29.116  21.895  0.3725 -0.0907 -0.0566
  116BOLB   PO2 2774  12.041  28.962  22.219  0.0884 -0.1774  0.0606
  116BOLB   GL3 2775  11.876  28.575  22.016  0.3268 -0.2117 -0.1370
  116BOLB   GL4 2776  11.609  28.403  22.085  0.3004 -0.0663  0.0566
  116BOLB   C1C 2777  11.857  28.159  21.742  0.1114  0.0639 -0.0132
  116BOLB   C2C 2778  11.752  28.049  21.318  0.1914  0.0049 -0.1001
  116BOLB   C3C 2779  11.534  27.950  20.968  0.4187  0.2160 -0.0887
  116BOLB   C4C 2780  11.228  27.523  20.968 -0.2392  0.0580  0.1151
  116BOLB   C1D 2781  11.737  27.960  22.235 -0.1127  0.1282  0.1878
  116BOLB   C2D 2782  12.165  27.789  22.023 -0.0829  0.0545 -0.0219
  116BOLB   C3D 2783  12.440  27.456  21.842 -0.0377  0.3416 -0.0307
  116BOLB   C4D 2784  12.556  27.384  21.493 -0.1065  0.2418  0.1032
  117BOLB   NC1 2785  21.361  10.373  17.509 -0.3492  0.0101 -0.1629
  117BOLB   PO1 2786  21.654  10.481  17.844 -0.1144  0.0024 -0.2266
  117BOLB   GL1 2787  21.798  10.151  17.837 -0.4239  0.2388 -0.2990
  117BOLB   GL2 2788  22.129  10.060  17.795 -0.0124  0.1783  0.3462
  117BOLB   C1A 2789  21.804   9.787  18.152 -0.0555  0.2578  0.0926
  117BOLB   C2A 2790  22.043   9.430  18.315 -0.2535 -0.1983  0.2231
  117BOLB   C3A 2791  22.082   8.956  18.338 -0.0572 -0.2884  0.1566
  117BOLB   C4A 2792  22.141   8.557  18.480  0.0227 -0.1006  0.0414
  117BOLB   C1B 2793  22.225   9.576  17.780  0.1771  0.3519  0.0336
  117BOLB   C2B 2794  22.418   9.246  17.975  0.5574  0.0926  0.0088
  117BOLB   C3B 2795  22.664   8.993  17.896 -0.3122 -0.1812  0.0180
  117BOLB   C4B 2796  22.824   8.702  17.840  0.1140 -0.0878  0.3845
  117BOLB   NC2 2797  23.037   6.749  17.741  0.1902  0.1968  0.2897
  117BOLB   PO2 2798  23.051   6.440  18.032  0.1930  0.0666 -0.0207
  117BOLB   GL3 2799  22.850   6.908  18.181  0.2605  0.0166 -0.3671
  117BOLB   GL4 2800  23.120   7.136  18.191  0.2084  0.0023 -0.0379
  117BOLB   C1C 2801  22.715   7.060  18.574  0.1187 -0.1529 -0.1169
  117BOLB   C2C 2802  22.497   7.511  18.632  0.2677  0.3760  0.0195
  117BOLB   C3C 2803  22.097   7.764  18.718 -0.5931  0.1890  0.2306
  117BOLB   C4C 2804  22.038   8.154  18.539  0.1260 -0.2891 -0.0678
  117BOLB   C1D 2805  23.063   7.491  18.441 -0.2342 -0.0087  0.2434
  117BOLB   C2D 2806  22.819   7.846  18.503  0.0978  0.1120 -0.1702
  117BOLB   C3D 2807  22.674   8.240  18.555 -0.0284 -0.1635 -0.0241
  117BOLB   C4D 2808  22.660   8.712  18.352  0.1287  0.0752  0.1183
  118BOLB   NC1 2809   9.991   7.399  23.926  0.0094 -0.0641  0.0739
  118BOLB   PO1 2810   9.906   7.184  24.312 -0.0244  0.1335  0.1533
  118BOLB   GL1 2811  10.140   7.458  24.437 -0.2377  0.0957 -0.1754
  118BOLB   GL2 2812  10.129   7.737  24.330  0.1547  0.0840  0.1104
  118BOLB   C1A 2813  10.619   7.552  24.558  0.1774  0.2181 -0.0608
  118BOLB   C2A 2814  11.031   7.623  24.481  0.2016  0.0658  0.0863
  118BOLB   C3A 2815  11.257   7.922  24.268  0.1074  0.0426  0.0464
  118BOLB   C4A 2816  11.595   8.131  24.408 -0.0568  0.0351 -0.2529
  118BOLB   C1B 2817  10.324   8.111  24.015 -0.1213  0.0516 -0.1136
  118BOLB   C2B 2818  10.579   8.462  24.116  0.0916 -0.1607 -0.0729
  118BOLB   C3B 2819  10.713   8.715  24.392 -0.1365  0.2202 -0.3329
  118BOLB   C4B 2820  10.685   9.059  24.714  0.1360  0.0021  0.1026
  118BOLB   NC2 2821  10.325   6.949  26.341 -0.1155  0.4094  0.0593
  118BOLB   PO2 2822  10.778   7.074  26.112 -0.0464 -0.0936  0.1931
  118BOLB   GL3 2823  11.195   7.242  25.842 -0.0809 -0.1665  0.4235
  118BOLB   GL4 2824  11.438   7.106  25.634  0.3003  0.1311  0.1895
  118BOLB   C1C 2825  11.415   7.642  25.674  0.1477  0.0394 -0.2232
  118BOLB   C2C 2826  11.540   7.682  25.365 -0.1468  0.1743 -0.0948
  118BOLB   C3C 2827  11.530   8.091  25.187 -0.0119 -0.0864  0.1509
  118BOLB   C4C 2828  11.825   8.235  24.786 -0.1159 -0.2322 -0.3081
  118BOLB   C1D 2829  11.676   7.366  25.973 -0.1286 -0.1391 -0.0128
  118BOLB   C2D 2830  11.851   7.695  25.983  0.2166 -0.1983  0.2846
  118BOLB   C3D 2831  12.091   8.062  26.140 -0.0165 -0.0399  0.1185
  118BOLB   C4D 2832  12.465   8.258  26.022 -0.2160 -0.0292  0.0981
  119BOLB   NC1 2833  19.654   9.693  19.944  0.1222 -0.1092  0.0218
  119BOLB   PO1 2834  20.024   9.804  20.177 -0.0200 -0.2067  0.0871
  119BOLB   GL1 2835  20.252   9.603  20.467  0.3036  0.1800  0.0958
  119BOLB   GL2 2836  20.257   9.392  20.167  0.1453 -0.1539 -0.1409
  119BOLB   C1A 2837  20.500   9.227  20.602 -0.0527 -0.1144  0.2091
  119BOLB   C2A 2838  20.670   8.770  20.538 -0.1548  0.2387 -0.0895
  119BOLB   C3A 2839  20.798   8.313  20.551  0.2464 -0.2957 -0.0590
  119BOLB   C4A 2840  20.655   7.901  20.437 -0.0010  0.0308  0.0332
  119BOLB   C1B 2841  20.577   9.019  20.077 -0.2269 -0.1368  0.0956
  119BOLB   C2B 2842  20.895   8.670  20.096  0.1291  0.1301  0.0430
  119BOLB   C3B 2843  21.177   8.703  20.425 -0.1007  0.2828 -0.2138
  119BOLB   C4B 2844  21.602   8.720  20.414 -0.1478 -0.0278 -0.2327
  119BOLB   NC2 2845  22.407   5.936  20.234 -0.0377 -0.1758 -0.0879
  119BOLB   PO2 2846  22.084   5.817  19.893  0.0000 -0.1227  0.0907
  119BOLB   GL3 2847  21.941   6.288  19.955  0.1189 -0.2185 -0.4458
  119BOLB   GL4 2848  21.991   6.551  19.692 -0.1831 -0.0822  0.0024
  119BOLB   C1C 2849  21.541   6.399  19.942 -0.0876  0.2057 -0.2820
  119BOLB   C2C 2850  21.239   6.763  20.002  0.2538 -0.0109  0.1643
  119BOLB   C3C 2851  21.125   7.113  20.267  0.0831 -0.0217  0.1823
  119BOLB   C4C 2852  20.859   7.543  20.280  0.1882 -0.0365  0.2788
  119BOLB   C1D 2853  21.741   6.860  19.979  0.0182 -0.3417  0.0687
  119BOLB   C2D 2854  21.522   7.090  19.794  0.0987  0.3309 -0.2566
  119BOLB   C3D 2855  21.166   7.345  19.738  0.1843 -0.1461 -0.2460
  119BOLB   C4D 2856  20.964   7.781  19.775  0.1447 -0.1724  0.1436
  120BOLB   NC1 2857  13.742   6.416  20.918  0.0408 -0.2623 -0.1931
  120BOLB   PO1 2858  14.240   6.430  20.791 -0.1069 -0.1703  0.1616
  120BOLB   GL1 2859  14.625   6.297  20.771 -0.0228  0.1779  0.0012
  120BOLB   GL2 2860  14.883   6.645  21.010  0.2839 -0.1490  0.3178
  120BOLB   C1A 2861  14.873   5.879  20.765 -0.4979  0.0650 -0.0052
  120BOLB   C2A 2862  15.267   5.716  20.921 -0.0005  0.3109  0.3061
  120BOLB   C3A 2863  15.644   5.656  20.886  0.1562  0.3693 -0.2001
  120BOLB   C4A 2864  16.095   5.594  20.678 -0.3464 -0.1732 -0.3295
  120BOLB   C1B 2865  15.034   6.206  21.202  0.1020 -0.3039 -0.1137
  120BOLB   C2B 2866  15.444   6.044  21.434 -0.1126  0.1372 -0.0132
  120BOLB   C3B 2867  15.855   5.853  21.352  0.2779 -0.2919 -0.0398
  120BOLB   C4B 2868  16.142   5.511  21.196  0.3192 -0.1631  0.1474
  120BOLB   NC2 2869  17.091   3.210  21.076  0.3088  0.0570  0.0174
  120BOLB   PO2 2870  17.202   3.708  20.981 -0.0932  0.1857  0.1216
  120BOLB   GL3 2871  17.357   4.055  20.873  0.0087 -0.0366  0.1897
  120BOLB   GL4 2872  17.402   4.124  21.274  0.0564 -0.0171 -0.0258
  120BOLB   C1C 2873  17.230   4.406  20.643 -0.1388  0.1247 -0.1049
  120BOLB   C2C 2874  17.218   4.856  20.603  0.0224  0.2303 -0.3861
  120BOLB   C3C 2875  16.905   5.086  20.466 -0.0213  0.2320  0.0993
  120BOLB   C4C 2876  16.538   5.328  20.534  0.1758  0.0368  0.1551
  120BOLB   C1D 2877  17.001   4.340  21.209  0.1215  0.4457  0.0191
  120BOLB   C2D 2878  16.606   4.474  21.348  0.0975 -0.1542  0.2702
  120BOLB   C3D 2879  16.192   4.575  21.512  0.2032 -0.0412 -0.0093
  120BOLB   C4D 2880  16.048   4.255  21.840  0.2646 -0.0121  0.1739
  121BOLB   NC1 2881  16.603   7.405  19.669  0.2813  0.1031 -0.1837
  121BOLB   PO1 2882  16.600   7.573  20.039  0.3528 -0.1396  0.1249
  121BOLB   GL1 2883  16.756   7.299  20.183  0.3686 -0.0888 -0.2905
  121BOLB   GL2 2884  16.625   6.998  20.027  0.0555  0.0318  0.0313
  121BOLB   C1A 2885  16.836   6.989  20.528  0.1458  0.0004  0.0621
  121BOLB   C2A 2886  17.173   6.813  20.809 -0.1093 -0.1211 -0.1754
  121BOLB   C3A 2887  17.225   6.434  21.029 -0.0397 -0.0499  0.2185
  121BOLB   C4A 2888  17.268   5.934  21.051  0.2490 -0.2455 -0.2120
  121BOLB   C1B 2889  16.798   6.669  20.158  0.0404  0.2455 -0.1096
  121BOLB   C2B 2890  16.496   6.325  20.382 -0.0527  0.1128 -0.2175
  121BOLB   C3B 2891  16.106   6.350  20.395 -0.3126 -0.0275  0.1367
  121BOLB   C4B 2892  15.905   6.565  20.677  0.0175 -0.4300 -0.4553
  121BOLB   NC2 2893  18.867   4.443  21.835 -0.2865  0.0487 -0.1770
  121BOLB   PO2 2894  18.432   4.226  22.078 -0.0862 -0.2347  0.0712
  121BOLB   GL3 2895  18.480   4.745  22.076 -0.0035  0.1583  0.1461
  121BOLB   GL4 2896  18.288   5.043  22.144 -0.1727  0.0168 -0.1199
  121BOLB   C1C 2897  18.437   5.053  21.627  0.1650 -0.1740 -0.3343
  121BOLB   C2C 2898  18.234   5.143  21.243 -0.2053 -0.0491 -0.1262
  121BOLB   C3C 2899  17.948   5.375  21.014 -0.5300  0.0416 -0.1505
  121BOLB   C4C 2900  17.604   5.624  21.046 -0.1247 -0.1711  0.0375
  121BOLB   C1D 2901  17.997   5.213  21.894 -0.1145 -0.0865  0.3642
  121BOLB   C2D 2902  17.656   4.942  21.890 -0.1721  0.0759 -0.0576
  121BOLB   C3D 2903  17.254   4.984  21.818  0.0631 -0.2158 -0.1593
  121BOLB   C4D 2904  17.079   5.394  21.731  0.2053 -0.0617  0.0746
  122BOLB   NC1 2905  11.758   8.319  22.811 -0.1839  0.0363 -0.2626
  122BOLB   PO1 2906  11.400   8.131  23.073  0.1700  0.1969  0.1578
  122BOLB   GL1 2907  11.551   8.010  23.455  0.1158  0.0356  0.1249
  122BOLB   GL2 2908  11.866   7.861  23.550 -0.0502  0.2129  0.0918
  122BOLB   C1A 2909  11.637   8.053  23.952 -0.2109 -0.0659  0.5043
  122BOLB   C2A 2910  12.020   8.280  24.130 -0.2826  0.1055 -0.2853
  122BOLB   C3A 2911  12.331   8.357  24.444  0.1084 -0.0507  0.0463
  122BOLB   C4A 2912  12.784   8.209  24.587 -0.1658  0.2389  0.0821
  122BOLB   C1B 2913  12.260   8.050  23.799 -0.0362 -0.1585  0.1114
  122BOLB   C2B 2914  12.692   8.091  23.994 -0.0642  0.1447 -0.1178
  122BOLB   C3B 2915  12.871   7.707  24.257  0.1198 -0.1913  0.3317
  122BOLB   C4B 2916  12.725   7.232  24.243  0.2361 -0.0865 -0.0513
  122BOLB   NC2 2917  12.930   6.863  26.317 -0.2771 -0.3020 -0.1383
  122BOLB   PO2 2918  13.371   6.717  26.339  0.0094 -0.1205 -0.0261
  122BOLB   GL3 2919  13.338   6.842  25.969 -0.1289 -0.0782 -0.0775
  122BOLB   GL4 2920  13.465   6.664  25.691  0.0012 -0.6698  0.3335
  122BOLB   C1C 2921  13.376   7.206  25.725  0.4145 -0.3239  0.2486
  122BOLB   C2C 2922  13.311   7.567  25.485 -0.1080 -0.2524  0.1286
  122BOLB   C3C 2923  13.266   7.678  25.032  0.1229  0.2827  0.5622
  122BOLB   C4C 2924  13.039   7.910  24.742 -0.0339 -0.1790  0.2693
  122BOLB   C1D 2925  13.586   6.878  25.333  0.0051  0.3045  0.0629
  122BOLB   C2D 2926  13.676   7.159  25.189 -0.1363  0.0551 -0.2714
  122BOLB   C3D 2927  13.709   7.247  24.833  0.1665 -0.0405 -0.5891
  122BOLB   C4D 2928  13.811   7.351  24.469 -0.0816  0.0242  0.3173
  123BOLB   NC1 2929  13.474   7.936  22.106 -0.1840  0.1075  0.2230
  123BOLB   PO1 2930  13.082   7.850  22.333  0.2057  0.0211 -0.1891
  123BOLB   GL1 2931  13.316   7.988  22.627  0.1841  0.0010 -0.2404
  123BOLB   GL2 2932  13.160   7.998  22.848  0.3033 -0.1583 -0.0259
  123BOLB   C1A 2933  13.615   7.910  22.882  0.0662 -0.1043 -0.2173
  123BOLB   C2A 2934  13.823   7.997  23.211  0.0633  0.0372  0.3033
  123BOLB   C3A 2935  13.980   7.706  23.481 -0.0506 -0.3274  0.2353
  123BOLB   C4A 2936  14.097   7.587  23.831  0.0488  0.3267 -0.0537
  123BOLB   C1B 2937  13.277   7.742  23.237  0.2856  0.0228  0.0839
  123BOLB   C2B 2938  13.476   7.746  23.578 -0.0881 -0.1091  0.2907
  123BOLB   C3B 2939  13.535   7.722  24.036  0.2015 -0.0640  0.1797
  123BOLB   C4B 2940  13.491   7.732  24.578 -0.2703  0.1283 -0.3495
  123BOLB   NC2 2941  14.389   5.926  25.414 -0.0360 -0.0364 -0.1319
  123BOLB   PO2 2942  13.921   5.763  25.280 -0.2711  0.0632 -0.1616
  123BOLB   GL3 2943  13.862   6.049  24.905  0.1483  0.2069  0.0240
  123BOLB   GL4 2944  13.849   5.965  24.526 -0.0453 -0.1062 -0.0416
  123BOLB   C1C 2945  14.086   6.406  24.608  0.0133  0.1527  0.0655
  123BOLB   C2C 2946  14.097   6.871  24.581 -0.0488 -0.0015 -0.1223
  123BOLB   C3C 2947  14.328   7.108  24.316 -0.1103 -0.0157  0.4969
  123BOLB   C4C 2948  14.249   7.401  24.045 -0.2151  0.4176 -0.1067
  123BOLB   C1D 2949  14.279   5.949  24.400 -0.3080  0.2906  0.3588
  123BOLB   C2D 2950  14.418   5.857  23.924  0.1052  0.1596  0.0282
  123BOLB   C3D 2951  14.695   5.886  23.583  0.3810 -0.2565 -0.1533
  123BOLB   C4D 2952  14.918   6.207  23.431  0.0938  0.0898  0.0699
  124BOLB   NC1 2953  16.341   8.252  19.527  0.0108  0.1375  0.0292
  124BOLB   PO1 2954  16.682   7.916  19.597  0.1391  0.0143  0.5372
  124BOLB   GL1 2955  17.033   7.584  19.675 -0.1498 -0.2404 -0.2119
  124BOLB   GL2 2956  17.014   7.232  19.694  0.2839 -0.1447  0.1420
  124BOLB   C1A 2957  17.454   7.494  19.651  0.0455  0.0241 -0.0860
  124BOLB   C2A 2958  17.899   7.426  19.634 -0.0036 -0.0828  0.0785
  124BOLB   C3A 2959  18.303   7.248  19.506  0.5309 -0.0395 -0.2820
  124BOLB   C4A 2960  18.549   6.952  19.595 -0.0531 -0.0341  0.2545
  124BOLB   C1B 2961  17.302   7.102  20.059  0.2274  0.2096 -0.1707
  124BOLB   C2B 2962  17.229   6.692  20.336 -0.4730 -0.1968  0.2403
  124BOLB   C3B 2963  17.337   6.283  20.582  0.3913 -0.1867  0.0020
  124BOLB   C4B 2964  17.429   5.825  20.514 -0.0259 -0.2263  0.2442
  124BOLB   NC2 2965  19.754   4.672  19.124  0.1070 -0.1055 -0.1526
  124BOLB   PO2 2966  19.537   4.476  19.479 -0.1840 -0.1979  0.0598
  124BOLB   GL3 2967  19.498   4.926  19.663  0.2736  0.1313  0.1924
  124BOLB   GL4 2968  19.637   5.026  19.987 -0.0746  0.1370  0.1021
  124BOLB   C1C 2969  19.335   5.322  19.590  0.1915  0.0482 -0.2433
  124BOLB   C2C 2970  19.143   5.708  19.461 -0.0441  0.1096 -0.0030
  124BOLB   C3C 2971  18.982   6.174  19.522 -0.2196  0.0957 -0.3834
  124BOLB   C4C 2972  18.966   6.770  19.523 -0.0216 -0.0316  0.2206
  124BOLB   C1D 2973  19.649   5.362  19.969 -0.0548 -0.0305  0.1070
  124BOLB   C2D 2974  19.528   5.817  19.984 -0.1894 -0.0877 -0.3420
  124BOLB   C3D 2975  19.443   6.314  20.015 -0.2341 -0.0247 -0.2503
  124BOLB   C4D 2976  19.280   6.750  19.961 -0.1368  0.0044  0.3435
  125BOLB   NC1 2977   9.783   7.355  24.736 -0.0686  0.3518 -0.3532
  125BOLB   PO1 2978   9.465   7.279  25.127  0.0858 -0.1270  0.0199
  125BOLB   GL1 2979   9.746   7.777  25.065  0.1673  0.0622 -0.0906
  125BOLB   GL2 2980  10.130   7.708  24.893  0.2008 -0.0084  0.1059
  125BOLB   C1A 2981   9.832   7.996  24.665  0.1217 -0.0909 -0.0365
  125BOLB   C2A 2982  10.141   8.204  24.441  0.0281  0.2077  0.2020
  125BOLB   C3A 2983  10.545   8.070  24.495 -0.0970  0.1254  0.0762
  125BOLB   C4A 2984  10.944   8.008  24.767  0.0171 -0.0417 -0.0207
  125BOLB   C1B 2985  10.191   7.808  25.366 -0.0016 -0.2969 -0.1412
  125BOLB   C2B 2986  10.171   8.152  25.674  0.4093 -0.2064  0.0694
  125BOLB   C3B 2987  10.342   8.549  25.801  0.4419  0.1483 -0.3618
  125BOLB   C4B 2988  10.446   8.769  26.113 -0.1435  0.4532  0.3730
  125BOLB   NC2 2989  11.604   7.410  26.949 -0.1999  0.1701  0.2533
  125BOLB   PO2 2990  12.037   7.526  26.878 -0.0047 -0.0234  0.0781
  125BOLB   GL3 2991  11.992   7.679  26.532  0.1159 -0.5671 -0.4083
  125BOLB   GL4 2992  11.941   8.035  26.675  0.2518 -0.0374 -0.0977
  125BOLB   C1C 2993  11.552   7.990  26.313 -0.1731  0.1183  0.2834
  125BOLB   C2C 2994  11.290   8.033  25.938  0.2526  0.1760  0.1611
  125BOLB   C3C 2995  11.176   8.232  25.563 -0.3413  0.0314 -0.0381
  125BOLB   C4C 2996  11.032   8.178  25.153 -0.0970 -0.1926 -0.1404
  125BOLB   C1D 2997  11.944   8.465  26.442 -0.1519  0.1176 -0.0490
  125BOLB   C2D 2998  12.057   8.553  26.004  0.2642 -0.0426 -0.4546
  125BOLB   C3D 2999  12.159   8.483  25.666 -0.2271 -0.3780 -0.0465
  125BOLB   C4D 3000  11.877   8.462  25.249 -0.1925  0.0422  0.1246
  126BOLB   NC1 3001  17.144   7.873  18.936 -0.1127 -0.2856 -0.2081
  126BOLB   PO1 3002  17.531   8.066  18.803  0.1391 -0.1275 -0.1295
  126BOLB   GL1 3003  17.601   7.782  18.670  0.0295  0.0645 -0.2184
  126BOLB   GL2 3004  17.706   7.574  18.362  0.0278  0.2136  0.2414
  126BOLB   C1A 3005  17.735   7.384  18.806 -0.0990  0.1362  0.0780
  126BOLB   C2A 3006  17.806   7.090  19.080  0.0551  0.3724  0.2064
  126BOLB   C3A 3007  17.989   6.767  19.362  0.0300  0.0637  0.2691
  126BOLB   C4A 3008  17.983   6.427  19.486  0.0291 -0.2775  0.1377
  126BOLB   C1B 3009  18.124   7.401  18.403 -0.1374  0.2583 -0.0935
  126BOLB   C2B 3010  18.245   7.024  18.633 -0.3947  0.0457  0.1867
  126BOLB   C3B 3011  18.640   6.792  18.699 -0.1657 -0.3820 -0.0222
  126BOLB   C4B 3012  19.005   6.937  18.516 -0.0622 -0.3521 -0.2001
  126BOLB   NC2 3013  19.378   4.432  20.344 -0.1847  0.1602 -0.0539
  126BOLB   PO2 3014  19.247   4.683  20.063  0.1119  0.3828  0.1440
  126BOLB   GL3 3015  19.018   4.959  20.047  0.5081 -0.0821  0.1044
  126BOLB   GL4 3016  18.993   5.111  19.801 -0.0961  0.1962 -0.0556
  126BOLB   C1C 3017  18.854   5.305  20.295  0.0155  0.1451  0.2160
  126BOLB   C2C 3018  18.657   5.676  20.267  0.2060 -0.4336 -0.1507
  126BOLB   C3C 3019  18.375   5.987  20.149 -0.2145 -0.1635  0.4554
  126BOLB   C4C 3020  18.109   6.198  19.879 -0.0424  0.2922  0.2957
  126BOLB   C1D 3021  18.836   5.571  19.850 -0.1802  0.3337 -0.1597
  126BOLB   C2D 3022  19.060   5.972  19.989  0.0662  0.2371  0.2150
  126BOLB   C3D 3023  18.959   6.357  20.069 -0.3239 -0.1338  0.1081
  126BOLB   C4D 3024  18.813   6.782  20.063  0.2424  0.1956 -0.0100
  127BOLB   NC1 3025  18.067   8.925  20.745 -0.0933 -0.0117  0.1582
  127BOLB   PO1 3026  18.206   9.200  21.068  0.1125 -0.1005  0.0880
  127BOLB   GL1 3027  18.060   8.862  21.301 -0.1397  0.5307 -0.2860
  127BOLB   GL2 3028  18.371   8.767  21.298  0.0637 -0.4402  0.0800
  127BOLB   C1A 3029  18.092   8.728  21.782  0.1924  0.1395 -0.0890
  127BOLB   C2A 3030  18.057   8.916  22.213  0.1248  0.0923 -0.2855
  127BOLB   C3A 3031  18.177   8.671  22.637  0.0774  0.1400  0.3364
  127BOLB   C4A 3032  18.311   8.384  22.978  0.2906 -0.0032 -0.2885
  127BOLB   C1B 3033  18.700   8.672  21.597 -0.1152  0.2173  0.1291
  127BOLB   C2B 3034  19.005   8.385  21.676 -0.1040  0.1487  0.1413
  127BOLB   C3B 3035  19.155   8.270  22.092 -0.1202 -0.2823  0.1522
  127BOLB   C4B 3036  19.287   8.386  22.490 -0.1515  0.0930 -0.0312
  127BOLB   NC2 3037  19.153   6.706  24.490 -0.0709  0.1507  0.1832
  127BOLB   PO2 3038  19.356   6.889  24.160  0.0653 -0.2432  0.0821
  127BOLB   GL3 3039  19.134   6.995  23.819 -0.2428 -0.0094 -0.1688
  127BOLB   GL4 3040  19.272   7.103  23.569 -0.0415 -0.0159 -0.2211
  127BOLB   C1C 3041  18.881   7.269  23.683  0.3861 -0.1106  0.3192
  127BOLB   C2C 3042  18.477   7.437  23.702 -0.0634 -0.3043  0.2246
  127BOLB   C3C 3043  18.106   7.666  23.603 -0.0067 -0.1616  0.0155
  127BOLB   C4C 3044  18.051   8.007  23.277 -0.0132  0.1769  0.1401
  127BOLB   C1D 3045  19.015   7.093  23.078 -0.1610 -0.0064 -0.1138
  127BOLB   C2D 3046  18.990   7.443  22.791 -0.3413  0.0689  0.3915
  127BOLB   C3D 3047  18.830   7.857  22.731 -0.1446  0.0246  0.1842
  127BOLB   C4D 3048  18.498   8.090  22.615 -0.1126  0.5955  0.0696
  128BOLB   NC1 3049  14.908   7.328  20.086  0.3470 -0.1835 -0.0131
  128BOLB   PO1 3050  14.707   7.054  20.365 -0.0497  0.0908  0.0646
  128BOLB   GL1 3051  14.889   6.715  20.431  0.2703  0.2339  0.0678
  128BOLB   GL2 3052  15.184   6.671  20.270  0.0940  0.3026  0.0191
  128BOLB   C1A 3053  15.070   6.312  20.543 -0.0070  0.3071  0.2910
  128BOLB   C2A 3054  15.505   6.118  20.702  0.1853 -0.2543 -0.0110
  128BOLB   C3A 3055  15.886   6.055  20.830 -0.3794 -0.0912 -0.0457
  128BOLB   C4A 3056  16.303   6.081  20.879 -0.0097  0.1757  0.4955
  128BOLB   C1B 3057  15.171   6.264  20.092 -0.2747  0.2252 -0.0331
  128BOLB   C2B 3058  15.360   6.081  19.799 -0.1194 -0.1211  0.0928
  128BOLB   C3B 3059  15.724   6.053  19.611 -0.1956  0.1370 -0.0072
  128BOLB   C4B 3060  16.080   5.848  19.578 -0.0094 -0.0577  0.0502
  128BOLB   NC2 3061  15.888   3.627  21.159  0.0222  0.2901 -0.0100
  128BOLB   PO2 3062  16.306   3.637  21.000  0.4198  0.1312  0.4533
  128BOLB   GL3 3063  16.165   3.986  20.979  0.2472 -0.2652 -0.0115
  128BOLB   GL4 3064  16.480   3.990  20.721 -0.3333  0.0874 -0.1488
  128BOLB   C1C 3065  16.159   4.384  21.060 -0.0200  0.1168  0.0099
  128BOLB   C2C 3066  16.282   4.748  20.898 -0.3572  0.0046  0.1718
  128BOLB   C3C 3067  16.280   5.122  20.913 -0.0666 -0.0171  0.2295
  128BOLB   C4C 3068  16.496   5.726  20.981  0.4663  0.3654 -0.2930
  128BOLB   C1D 3069  16.599   4.332  20.826  0.3327 -0.0136  0.2899
  128BOLB   C2D 3070  16.812   4.742  20.911 -0.1650  0.1124  0.2286
  128BOLB   C3D 3071  16.787   5.177  20.973 -0.0775 -0.2654  0.0161
  128BOLB   C4D 3072  16.684   5.371  21.343  0.1555 -0.2181 -0.0343
  129BOLB   NC1 3073  17.445   8.799  19.966  0.1217 -0.1470  0.1815
  129BOLB   PO1 3074  17.821   8.678  19.807 -0.1662 -0.0252  0.0557
  129BOLB   GL1 3075  18.071   8.285  19.966 -0.0684  0.0208  0.0701
  129BOLB   GL2 3076  18.329   8.225  20.129 -0.2693  0.2008 -0.1128
  129BOLB   C1A 3077  18.104   7.815  19.967  0.0402 -0.4112  0.0340
  129BOLB   C2A 3078  18.253   7.413  19.995  0.0344 -0.1715 -0.0229
  129BOLB   C3A 3079  18.610   7.273  20.160 -0.1356  0.5724 -0.1540
  129BOLB   C4A 3080  18.783   7.110  20.593  0.0381 -0.4348  0.2498
  129BOLB   C1B 3081  18.484   7.959  20.264  0.0655  0.0554 -0.1905
  129BOLB   C2B 3082  18.562   7.529  20.557 -0.1392  0.0902 -0.0280
  129BOLB   C3B 3083  18.774   7.526  20.921 -0.0285 -0.1077  0.1779
  129BOLB   C4B 3084  19.149   7.446  20.992  0.1666 -0.0643  0.0379
  129BOLB   NC2 3085  19.935   4.826  20.930  0.0245  0.0869  0.3832
  129BOLB   PO2 3086  20.018   5.154  20.582  0.0491 -0.0794  0.1054
  129BOLB   GL3 3087  19.722   5.531  20.583  0.3183 -0.2223 -0.0655
  129BOLB   GL4 3088  19.927   5.705  20.614 -0.1106 -0.3626 -0.3047
  129BOLB   C1C 3089  19.474   5.798  20.786  0.2106  0.2137  0.1398
  129BOLB   C2C 3090  19.118   5.915  20.976  0.1022  0.1100 -0.0547
  129BOLB   C3C 3091  18.962   6.361  20.941 -0.0506 -0.1675 -0.3380
  129BOLB   C4C 3092  18.692   6.795  20.926  0.3761 -0.0553 -0.3002
  129BOLB   C1D 3093  20.272   5.957  20.479 -0.0439 -0.0564 -0.3207
  129BOLB   C2D 3094  20.447   6.391  20.376 -0.0315 -0.0071 -0.1313
  129BOLB   C3D 3095  20.778   6.698  20.292 -0.0052 -0.1294  0.0977
  129BOLB   C4D 3096  20.638   7.109  20.130 -0.0150  0.1377 -0.1835
  130BOLB   NC1 3097  14.793   9.004  21.963 -0.4641 -0.0266 -0.2002
  130BOLB   PO1 3098  14.652   8.596  21.953  0.1956  0.1933 -0.1700
  130BOLB   GL1 3099  14.882   8.372  22.287 -0.4386 -0.0399 -0.0822
  130BOLB   GL2 3100  14.920   8.107  22.234 -0.1987 -0.0948  0.0149
  130BOLB   C1A 3101  15.011   8.490  22.728 -0.0921 -0.0666 -0.1130
  130BOLB   C2A 3102  15.078   8.437  23.196 -0.0347  0.2210  0.2018
  130BOLB   C3A 3103  15.339   8.287  23.546 -0.0306  0.0689  0.3079
  130BOLB   C4A 3104  15.265   8.164  23.879 -0.1343  0.0773 -0.0384
  130BOLB   C1B 3105  15.247   8.055  22.526 -0.3913 -0.3617 -0.3250
  130BOLB   C2B 3106  15.369   8.069  22.992  0.0308 -0.2347  0.0583
  130BOLB   C3B 3107  15.406   7.679  23.209  0.0221  0.0383 -0.3029
  130BOLB   C4B 3108  15.695   7.473  23.522  0.0761  0.1505 -0.1054
  130BOLB   NC2 3109  16.398   7.400  25.680  0.0980 -0.0042  0.4890
  130BOLB   PO2 3110  16.061   7.439  25.696  0.0064 -0.0006 -0.0529
  130BOLB   GL3 3111  16.048   7.847  25.401  0.1434 -0.1190 -0.4995
  130BOLB   GL4 3112  16.378   7.801  25.341 -0.1942 -0.2217 -0.0174
  130BOLB   C1C 3113  15.994   8.239  25.211 -0.0513 -0.0378  0.0653
  130BOLB   C2C 3114  15.767   8.339  24.967  0.1050  0.1917 -0.0125
  130BOLB   C3C 3115  15.476   8.118  24.710  0.0614 -0.0550  0.4734
  130BOLB   C4C 3116  15.482   8.215  24.293 -0.0228 -0.4218  0.1785
  130BOLB   C1D 3117  16.377   8.065  24.851 -0.1484  0.1815 -0.3952
  130BOLB   C2D 3118  16.114   8.202  24.616  0.3960  0.1461  0.3425
  130BOLB   C3D 3119  15.989   8.544  24.354 -0.1714 -0.0181 -0.1086
  130BOLB   C4D 3120  15.747   8.806  24.558  0.1850 -0.2175  0.0539
  131BOLB   NC1 3121  15.635   7.585  19.012  0.2360  0.0006  0.1624
  131BOLB   PO1 3122  16.003   7.347  18.984 -0.0375 -0.1574  0.0122
  131BOLB   GL1 3123  16.237   6.972  19.005 -0.0427  0.1070 -0.3653
  131BOLB   GL2 3124  15.953   6.823  19.110  0.1315 -0.2598  0.2029
  131BOLB   C1A 3125  16.598   6.598  19.100  0.0509  0.2907 -0.1746
  131BOLB   C2A 3126  16.907   6.332  19.318  0.1967 -0.2021 -0.0227
  131BOLB   C3A 3127  17.337   6.155  19.465 -0.0545  0.1798 -0.1375
  131BOLB   C4A 3128  17.779   5.937  19.576 -0.2260 -0.0370  0.1086
  131BOLB   C1B 3129  16.199   6.566  18.746  0.0925  0.3299 -0.0183
  131BOLB   C2B 3130  16.581   6.421  18.584  0.0166  0.1593 -0.0235
  131BOLB   C3B 3131  16.904   6.538  18.632  0.0474 -0.1230  0.2485
  131BOLB   C4B 3132  17.205   6.352  18.765 -0.3339 -0.0387 -0.2516
  131BOLB   NC2 3133  19.347   4.392  18.978  0.3471 -0.1026 -0.0241
  131BOLB   PO2 3134  19.237   4.032  19.321 -0.3051 -0.3241 -0.1259
  131BOLB   GL3 3135  19.036   4.466  19.462 -0.2289 -0.1692 -0.1138
  131BOLB   GL4 3136  18.921   4.459  19.747  0.0496  0.0782  0.0926
  131BOLB   C1C 3137  18.739   4.757  19.395  0.2203 -0.1568  0.2298
  131BOLB   C2C 3138  18.535   5.123  19.592 -0.2001  0.0349 -0.3242
  131BOLB   C3C 3139  18.301   5.440  19.543 -0.1754 -0.0245 -0.0331
  131BOLB   C4C 3140  18.125   5.740  19.668  0.1832 -0.1641 -0.0172
  131BOLB   C1D 3141  18.554   4.781  19.970  0.1372  0.1870 -0.1245
  131BOLB   C2D 3142  18.396   5.167  20.162  0.0690 -0.1669  0.0276
  131BOLB   C3D 3143  18.108   5.450  20.193  0.0276  0.0382 -0.0467
  131BOLB   C4D 3144  17.834   5.502  20.522  0.0847 -0.0433 -0.2569
  132BOLB   NC1 3145  17.076   8.144  19.853  0.1727  0.0086  0.1149
  132BOLB   PO1 3146  17.269   8.399  20.187  0.1210  0.5838  0.1159
  132BOLB   GL1 3147  17.558   8.154  20.568 -0.2417 -0.1943  0.1265
  132BOLB   GL2 3148  17.817   8.003  20.488  0.1918  0.1133  0.0841
  132BOLB   C1A 3149  17.674   8.000  20.983  0.2008  0.3319 -0.1110
  132BOLB   C2A 3150  17.797   7.753  21.258  0.1406 -0.4521 -0.0432
  132BOLB   C3A 3151  17.842   7.482  21.566 -0.1361 -0.1231  0.3221
  132BOLB   C4A 3152  18.231   7.283  21.828  0.3498  0.0983  0.2560
  132BOLB   C1B 3153  18.088   7.607  20.406  0.0212  0.0428  0.2223
  132BOLB   C2B 3154  18.060   7.154  20.441  0.2896  0.1457 -0.0726
  132BOLB   C3B 3155  18.382   6.795  20.351  0.1844  0.2133  0.2735
  132BOLB   C4B 3156  18.530   6.447  20.401 -0.4442 -0.3735  0.0543
  132BOLB   NC2 3157  19.684   5.631  21.375 -0.0073  0.0913 -0.1379
  132BOLB   PO2 3158  19.404   5.267  21.420  0.0346 -0.2991  0.0290
  132BOLB   GL3 3159  19.106   5.554  21.302 -0.2488 -0.0385  0.0392
  132BOLB   GL4 3160  19.048   5.409  20.915  0.0171  0.3281  0.0117
  132BOLB   C1C 3161  19.030   5.920  21.464 -0.3008 -0.0130  0.2033
  132BOLB   C2C 3162  18.889   6.325  21.757  0.3525  0.2599 -0.2860
  132BOLB   C3C 3163  18.824   6.712  21.752  0.4012 -0.1301  0.2290
  132BOLB   C4C 3164  18.652   7.104  21.758 -0.1651  0.0906 -0.1925
  132BOLB   C1D 3165  18.836   5.536  20.746  0.1904 -0.1997 -0.2223
  132BOLB   C2D 3166  18.669   5.985  20.612 -0.3298 -0.2255 -0.1286
  132BOLB   C3D 3167  18.446   6.350  20.845 -0.3126 -0.0478  0.3623
  132BOLB   C4D 3168  18.125   6.435  21.135 -0.1406 -0.4468  0.0426
  133BOLB   NC1 3169  16.069   7.886  20.156 -0.0765 -0.0806  0.2413
  133BOLB   PO1 3170  15.868   7.874  20.522  0.0062 -0.0150 -0.3135
  133BOLB   GL1 3171  16.222   7.640  20.790 -0.2108  0.0071  0.0523
  133BOLB   GL2 3172  16.412   7.619  20.473 -0.1394 -0.3128  0.3478
  133BOLB   C1A 3173  16.611   7.586  21.127  0.3031  0.0902 -0.1617
  133BOLB   C2A 3174  16.964   7.355  21.127 -0.0183 -0.1451 -0.0892
  133BOLB   C3A 3175  17.366   7.176  21.124  0.2797  0.2209  0.0452
  133BOLB   C4A 3176  17.549   6.922  21.219  0.0828 -0.1621 -0.1519
  133BOLB   C1B 3177  16.831   7.505  20.659 -0.4545  0.0786  0.0863
  133BOLB   C2B 3178  17.242   7.286  20.641  0.0595  0.0599  0.1233
  133BOLB   C3B 3179  17.542   7.039  20.534 -0.1685 -0.1892 -0.0552
  133BOLB   C4B 3180  17.775   6.652  20.424 -0.1953 -0.2681  0.1078
  133BOLB   NC2 3181  19.240   5.173  21.913  0.1745  0.1192 -0.0608
  133BOLB   PO2 3182  18.933   4.987  22.170  0.2369 -0.0611 -0.1378
  133BOLB   GL3 3183  18.715   5.310  22.033  0.0557  0.1012 -0.2130
  133BOLB   GL4 3184  18.878   5.527  21.829  0.1072  0.1643  0.2405
  133BOLB   C1C 3185  18.382   5.491  21.775 -0.0838  0.2598 -0.0883
  133BOLB   C2C 3186  17.974   5.581  21.486 -0.3760  0.2289  0.1134
  133BOLB   C3C 3187  17.805   6.031  21.355 -0.0562  0.0737  0.0566
  133BOLB   C4C 3188  17.559   6.484  21.375  0.2421  0.1314  0.1703
  133BOLB   C1D 3189  18.613   5.886  21.743 -0.1186 -0.1953 -0.0683
  133BOLB   C2D 3190  18.329   5.983  21.499  0.1303 -0.0084 -0.2927
  133BOLB   C3D 3191  18.159   5.844  21.131 -0.0052 -0.0836  0.0190
  133BOLB   C4D 3192  17.686   6.128  20.890 -0.0005  0.0598 -0.2404
  134BOLB   NC1 3193  14.521   6.103  20.289  0.0891  0.1091  0.1577
  134BOLB   PO1 3194  14.393   6.007  19.801  0.0260  0.2990  0.3623
  134BOLB   GL1 3195  14.792   5.785  19.980 -0.0004 -0.1686 -0.0188
  134BOLB   GL2 3196  14.971   5.601  19.782 -0.3770 -0.2574 -0.0917
  134BOLB   C1A 3197  15.056   5.688  20.313  0.1264 -0.1130  0.1017
  134BOLB   C2A 3198  15.532   5.666  20.429  0.1130 -0.4260 -0.0920
  134BOLB   C3A 3199  15.843   5.323  20.185  0.0652 -0.1710  0.1826
  134BOLB   C4A 3200  16.261   5.257  20.066  0.2021  0.0926  0.0718
  134BOLB   C1B 3201  15.321   5.677  19.433 -0.1078 -0.1314  0.0793
  134BOLB   C2B 3202  15.687   5.741  19.200 -0.0988 -0.1746  0.2047
  134BOLB   C3B 3203  16.163   5.615  19.191 -0.1391 -0.0452  0.1274
  134BOLB   C4B 3204  16.535   5.422  19.447 -0.0683 -0.0514  0.0845
  134BOLB   NC2 3205  17.201   3.541  20.535 -0.0232  0.0345 -0.0490
  134BOLB   PO2 3206  17.673   3.679  20.480 -0.2266  0.1638  0.0076
  134BOLB   GL3 3207  17.796   4.093  20.529  0.0428 -0.3592 -0.0370
  134BOLB   GL4 3208  17.633   4.148  20.188 -0.1430 -0.0878 -0.0979
  134BOLB   C1C 3209  17.650   4.570  20.480 -0.2004  0.3648  0.1536
  134BOLB   C2C 3210  17.479   4.720  20.190  0.2145  0.1479 -0.1933
  134BOLB   C3C 3211  17.077   4.936  20.046 -0.1056  0.0744 -0.0432
  134BOLB   C4C 3212  16.667   5.094  20.023 -0.1498 -0.6292 -0.0870
  134BOLB   C1D 3213  17.417   4.345  19.822 -0.4214 -0.1725  0.1139
  134BOLB   C2D 3214  17.215   4.609  19.573  0.2910  0.1346  0.1019
  134BOLB   C3D 3215  16.990   4.973  19.422  0.0958 -0.1049  0.0953
  134BOLB   C4D 3216  16.786   5.223  19.110 -0.2667  0.1469 -0.0198
  135BOLB   NC1 3217  18.085   8.094  16.648  0.1087 -0.0951 -0.0050
  135BOLB   PO1 3218  18.136   8.221  17.159 -0.1833  0.0031 -0.1561
  135BOLB   GL1 3219  18.398   7.921  17.321  0.1190  0.0752 -0.2222
  135BOLB   GL2 3220  18.254   7.771  17.588  0.0304  0.2553 -0.3539
  135BOLB   C1A 3221  18.788   7.656  17.369  0.4016  0.0144  0.1993
  135BOLB   C2A 3222  19.122   7.421  17.348 -0.0883 -0.1563  0.3959
  135BOLB   C3A 3223  19.579   7.365  17.365 -0.0741 -0.3436  0.0045
  135BOLB   C4A 3224  20.073   7.277  17.285  0.0394  0.1451  0.1700
  135BOLB   C1B 3225  18.352   7.417  17.553  0.3196 -0.0743  0.1082
  135BOLB   C2B 3226  18.695   7.072  17.620  0.2419 -0.5835  0.1938
  135BOLB   C3B 3227  18.741   6.688  17.532 -0.0942 -0.0354  0.3414
  135BOLB   C4B 3228  19.185   6.483  17.395 -0.1926 -0.1445  0.0563
  135BOLB   NC2 3229  21.934   5.612  17.847  0.3253 -0.2108 -0.0148
  135BOLB   PO2 3230  21.502   5.611  18.085 -0.1244 -0.4118  0.1490
  135BOLB   GL3 3231  21.513   6.007  17.865  0.2643 -0.0907 -0.5486
  135BOLB   GL4 3232  21.196   6.152  18.009  0.1124  0.0157  0.0634
  135BOLB   C1C 3233  21.384   6.310  17.587 -0.0112 -0.0778  0.0838
  135BOLB   C2C 3234  21.191   6.710  17.414  0.0334  0.3084  0.0525
  135BOLB   C3C 3235  20.809   6.728  17.240  0.1537  0.0388  0.3019
  135BOLB   C4C 3236  20.437   7.011  17.356  0.2173  0.4326  0.1686
  135BOLB   C1D 3237  21.073   6.365  18.342  0.5883  0.2133 -0.1854
  135BOLB   C2D 3238  20.853   6.662  18.166 -0.2567  0.0803 -0.0997
  135BOLB   C3D 3239  20.931   7.019  18.244 -0.1517 -0.0778 -0.3299
  135BOLB   C4D 3240  20.938   7.371  18.190  0.1062  0.0291  0.2319
  136BOLB   NC1 3241  19.278   9.135  19.529  0.1643  0.3005  0.0428
  136BOLB   PO1 3242  19.317   9.493  19.635  0.0498 -0.1873  0.1174
  136BOLB   GL1 3243  19.743   9.234  19.721 -0.0917 -0.2403 -0.1378
  136BOLB   GL2 3244  20.033   9.414  19.713 -0.2157 -0.0457 -0.1019
  136BOLB   C1A 3245  19.921   8.841  19.923  0.0800 -0.2213  0.1628
  136BOLB   C2A 3246  20.337   8.628  20.005  0.2112 -0.1364 -0.0347
  136BOLB   C3A 3247  20.351   8.374  20.382 -0.0018 -0.0945  0.1340
  136BOLB   C4A 3248  20.360   8.105  20.814  0.1443  0.0523 -0.1606
  136BOLB   C1B 3249  20.305   9.034  19.576 -0.1827  0.3774 -0.2483
  136BOLB   C2B 3250  20.577   8.696  19.566 -0.2188 -0.1176 -0.0413
  136BOLB   C3B 3251  20.774   8.356  19.429  0.1744 -0.0032 -0.1027
  136BOLB   C4B 3252  20.890   7.954  19.269 -0.1099  0.1232  0.1339
  136BOLB   NC2 3253  20.826   6.134  21.730 -0.1366 -0.3182  0.2056
  136BOLB   PO2 3254  21.252   6.375  21.937  0.0391 -0.0089 -0.1319
  136BOLB   GL3 3255  21.448   6.793  21.937 -0.0244 -0.3263 -0.1137
  136BOLB   GL4 3256  21.519   6.833  21.569  0.0715  0.0388  0.0236
  136BOLB   C1C 3257  21.188   7.201  21.839 -0.0743  0.0279  0.0654
  136BOLB   C2C 3258  20.719   7.312  21.683 -0.1555  0.3192  0.0129
  136BOLB   C3C 3259  20.512   7.606  21.547 -0.3347 -0.0013  0.1009
  136BOLB   C4C 3260  20.354   7.856  21.205  0.1675  0.0719  0.3020
  136BOLB   C1D 3261  21.243   7.007  21.320 -0.2999  0.0453 -0.2893
  136BOLB   C2D 3262  21.082   7.258  21.049  0.1515  0.0349 -0.0962
  136BOLB   C3D 3263  20.919   7.531  20.838 -0.2351  0.2825 -0.0676
  136BOLB   C4D 3264  21.043   7.877  20.719  0.0430  0.1236  0.0193
  137BOLB   NC1 3265  19.861   9.104  18.404  0.0134 -0.0219 -0.0048
  137BOLB   PO1 3266  19.627   8.700  18.351 -0.0476  0.3649  0.1282
  137BOLB   GL1 3267  19.609   8.341  18.606  0.1386  0.1064  0.0114
  137BOLB   GL2 3268  19.420   8.199  18.858  0.0018 -0.0585  0.3516
  137BOLB   C1A 3269  19.861   7.928  18.510 -0.3288 -0.0778 -0.1113
  137BOLB   C2A 3270  20.205   7.818  18.688 -0.0272 -0.0353 -0.3303
  137BOLB   C3A 3271  20.555   7.609  18.525  0.0369 -0.1236  0.3948
  137BOLB   C4A 3272  20.606   7.227  18.625 -0.3144 -0.2207 -0.2204
  137BOLB   C1B 3273  19.564   7.763  18.904 -0.0442  0.1775 -0.0411
  137BOLB   C2B 3274  19.752   7.444  18.737  0.4021 -0.0192  0.0082
  137BOLB   C3B 3275  20.118   7.290  18.700  0.0570 -0.0130  0.1318
  137BOLB   C4B 3276  20.175   6.792  18.794 -0.0698  0.0642  0.1537
  137BOLB   NC2 3277  21.927   5.011  19.212  0.0805  0.0393  0.0189
  137BOLB   PO2 3278  21.517   5.018  19.432 -0.2891  0.2372  0.2900
  137BOLB   GL3 3279  21.136   5.250  19.333  0.0055 -0.2389 -0.1329
  137BOLB   GL4 3280  20.903   5.304  19.644 -0.4153 -0.1828  0.1688
  137BOLB   C1C 3281  20.973   5.656  19.263 -0.1508  0.1904  0.1900
  137BOLB   C2C 3282  20.995   5.954  18.999  0.0586 -0.1277 -0.0516
  137BOLB   C3C 3283  20.980   6.354  18.876  0.0162  0.2004 -0.3105
  137BOLB   C4C 3284  20.703   6.692  18.634 -0.2081 -0.2017 -0.2185
  137BOLB   C1D 3285  20.616   5.692  19.611 -0.4636  0.0422  0.0133
  137BOLB   C2D 3286  20.387   6.055  19.238  0.0545  0.3705 -0.1000
  137BOLB   C3D 3287  19.994   6.318  19.309  0.2195  0.0803 -0.0068
  137BOLB   C4D 3288  19.899   6.502  19.687  0.2428  0.0615  0.2721
  138BOLB   NC1 3289  17.762   8.605  19.068 -0.3391  0.0646 -0.2990
  138BOLB   PO1 3290  18.225   8.561  18.993  0.4598 -0.0505  0.0153
  138BOLB   GL1 3291  18.222   8.114  19.080  0.0564 -0.0453  0.0306
  138BOLB   GL2 3292  18.088   7.839  19.011  0.1234  0.1482 -0.2812
  138BOLB   C1A 3293  18.268   7.785  19.438 -0.0606 -0.1731 -0.1166
  138BOLB   C2A 3294  18.578   7.583  19.642 -0.2255  0.1834 -0.1339
  138BOLB   C3A 3295  18.946   7.374  19.489  0.2486 -0.2411  0.1171
  138BOLB   C4A 3296  19.288   7.182  19.465 -0.0035 -0.0245  0.2197
  138BOLB   C1B 3297  18.232   7.418  18.978  0.2218 -0.0346 -0.2561
  138BOLB   C2B 3298  18.350   6.983  19.121 -0.0697  0.3223 -0.0222
  138BOLB   C3B 3299  18.503   6.578  19.232 -0.0119 -0.3582  0.1162
  138BOLB   C4B 3300  18.541   6.180  19.279 -0.1781  0.1231 -0.0601
  138BOLB   NC2 3301  19.959   4.789  19.611 -0.0814 -0.0901 -0.3428
  138BOLB   PO2 3302  20.230   4.832  19.381 -0.1651 -0.1526  0.2059
  138BOLB   GL3 3303  20.024   5.198  19.253 -0.1767 -0.1759  0.1668
  138BOLB   GL4 3304  19.735   5.124  19.270  0.0733 -0.0266  0.1147
  138BOLB   C1C 3305  19.749   5.595  19.374  0.0703  0.1940  0.1559
  138BOLB   C2C 3306  19.600   5.993  19.438 -0.1364 -0.0522 -0.0845
  138BOLB   C3C 3307  19.449   6.382  19.496 -0.0147  0.0690 -0.2241
  138BOLB   C4C 3308  19.394   6.786  19.283 -0.1315  0.2395 -0.0663
  138BOLB   C1D 3309  19.221   4.999  19.246 -0.2682  0.0192  0.0456
  138BOLB   C2D 3310  18.908   5.222  19.292 -0.1784  0.2951  0.0893
  138BOLB   C3D 3311  18.682   5.589  19.342 -0.2844  0.3068  0.1669
  138BOLB   C4D 3312  18.584   5.928  19.678  0.0417 -0.0889  0.1382
  139BOLB   NC1 3313  15.385   9.159  21.198  0.2639 -0.6191 -0.0561
  139BOLB   PO1 3314  15.852   9.190  21.336 -0.2309 -0.1424  0.2455
  139BOLB   GL1 3315  16.010   8.926  21.665 -0.0031  0.0499  0.0601
  139BOLB   GL2 3316  15.768   8.964  21.829  0.1683 -0.1852  0.0604
  139BOLB   C1A 3317  16.346   8.759  21.902  0.0128 -0.0194  0.1224
  139BOLB   C2A 3318  16.656   8.496  22.228  0.2173  0.2040 -0.0038
  139BOLB   C3A 3319  16.946   8.204  22.382 -0.4518  0.1428 -0.2893
  139BOLB   C4A 3320  17.294   8.049  22.655  0.0472  0.2237 -0.2551
  139BOLB   C1B 3321  15.844   8.593  22.093 -0.2330 -0.2015  0.0307
  139BOLB   C2B 3322  16.182   8.267  22.297 -0.0707 -0.2717  0.1891
  139BOLB   C3B 3323  16.451   8.205  22.635 -0.0130 -0.2849  0.2180
  139BOLB   C4B 3324  16.765   7.849  22.743  0.0693  0.0166  0.3055
  139BOLB   NC2 3325  18.094   5.962  23.762  0.1692  0.1870 -0.0412
  139BOLB   PO2 3326  18.458   6.008  23.404  0.1541  0.2163 -0.0652
  139BOLB   GL3 3327  18.230   6.333  23.322 -0.0499 -0.3100  0.1640
  139BOLB   GL4 3328  17.994   6.082  23.210 -0.3387  0.0617  0.0217
  139BOLB   C1C 3329  18.233   6.763  23.369  0.2293 -0.2111  0.0513
  139BOLB   C2C 3330  18.011   7.202  23.398 -0.3179 -0.0991  0.3877
  139BOLB   C3C 3331  17.766   7.564  23.272  0.1580  0.0849  0.0490
  139BOLB   C4C 3332  17.478   7.754  22.961  0.1132  0.0204 -0.0355
  139BOLB   C1D 3333  17.925   6.358  22.786 -0.1380  0.0955 -0.0284
  139BOLB   C2D 3334  17.714   6.649  22.431 -0.0551 -0.0035 -0.1011
  139BOLB   C3D 3335  17.503   6.931  22.279  0.2062  0.0156 -0.0074
  139BOLB   C4D 3336  17.105   7.189  22.132 -0.4826  0.1924 -0.1051
  140BOLB   NC1 3337  11.230   7.636  23.071  0.0609 -0.1865  0.2551
  140BOLB   PO1 3338  11.378   7.238  23.143 -0.0219 -0.1677 -0.0864
  140BOLB   GL1 3339  11.358   7.379  23.479 -0.2134 -0.2292 -0.0586
  140BOLB   GL2 3340  11.237   7.642  23.567  0.1589  0.1023 -0.3103
  140BOLB   C1A 3341  11.595   7.506  23.967  0.4662 -0.0305  0.0849
  140BOLB   C2A 3342  11.824   7.725  24.282  0.0167 -0.1804  0.1089
  140BOLB   C3A 3343  11.973   7.746  24.592  0.0329 -0.1991  0.3023
  140BOLB   C4A 3344  12.335   7.922  24.814 -0.0573  0.0507 -0.0920
  140BOLB   C1B 3345  11.131   8.037  23.715 -0.1736  0.0867 -0.0720
  140BOLB   C2B 3346  11.094   8.387  24.090 -0.1434 -0.0321 -0.2289
  140BOLB   C3B 3347  11.141   8.446  24.558 -0.0309  0.1003 -0.3840
  140BOLB   C4B 3348  11.327   8.315  24.780 -0.1823 -0.0346  0.2255
  140BOLB   NC2 3349  12.960   7.207  27.195 -0.0828  0.0675  0.0915
  140BOLB   PO2 3350  12.787   7.204  26.768  0.0635  0.1783 -0.0228
  140BOLB   GL3 3351  12.836   7.551  26.297  0.1888 -0.1907 -0.4240
  140BOLB   GL4 3352  12.590   7.718  26.131  0.2767  0.0708 -0.0114
  140BOLB   C1C 3353  13.035   7.599  25.946 -0.0073  0.0343  0.1364
  140BOLB   C2C 3354  12.839   7.686  25.654  0.0376  0.1732 -0.0635
  140BOLB   C3C 3355  12.849   7.547  25.241 -0.3608  0.4091  0.0006
  140BOLB   C4C 3356  12.638   7.697  24.930 -0.2735 -0.0031 -0.0149
  140BOLB   C1D 3357  12.327   7.775  25.789  0.2042 -0.0191 -0.0004
  140BOLB   C2D 3358  11.973   7.925  25.555 -0.0213 -0.0421 -0.3263
  140BOLB   C3D 3359  11.688   8.254  25.645 -0.0849  0.0634  0.0037
  140BOLB   C4D 3360  11.531   8.532  25.896 -0.1898 -0.2243 -0.1015
  141BOLB   NC1 3361  18.657   9.514  19.173  0.2172  0.1903  0.0034
  141BOLB   PO1 3362  18.931   9.262  19.214 -0.1695  0.0499 -0.3372
  141BOLB   GL1 3363  19.292   8.861  19.142  0.1296  0.1969  0.0465
  141BOLB   GL2 3364  19.061   8.572  19.235  0.0262  0.1236  0.2366
  141BOLB   C1A 3365  19.496   8.453  19.276 -0.2686 -0.0036 -0.0190
  141BOLB   C2A 3366  19.631   8.060  19.387  0.0465 -0.1578 -0.4020
  141BOLB   C3A 3367  19.891   7.756  19.650 -0.0843 -0.0865  0.0965
  141BOLB   C4A 3368  20.094   7.468  19.622 -0.0107 -0.1198  0.0440
  141BOLB   C1B 3369  19.196   8.416  19.650 -0.2044 -0.2918  0.0297
  141BOLB   C2B 3370  19.347   8.002  19.762 -0.1921  0.0600  0.0313
  141BOLB   C3B 3371  19.320   7.600  19.809  0.0315 -0.0504 -0.1144
  141BOLB   C4B 3372  19.078   7.265  19.929  0.1940 -0.3341  0.3638
  141BOLB   NC2 3373  21.001   4.919  18.524 -0.1534  0.2853 -0.1796
  141BOLB   PO2 3374  21.181   5.384  18.421  0.1424  0.0504  0.1818
  141BOLB   GL3 3375  21.076   5.861  18.530 -0.1199 -0.2216 -0.2013
  141BOLB   GL4 3376  21.491   6.045  18.499  0.3447 -0.1491 -0.0643
  141BOLB   C1C 3377  20.705   6.165  18.538 -0.1281 -0.4092  0.3068
  141BOLB   C2C 3378  20.447   6.376  18.893  0.0356 -0.3171  0.0344
  141BOLB   C3C 3379  20.384   6.608  19.396  0.1624 -0.0172  0.1671
  141BOLB   C4C 3380  20.163   6.993  19.560  0.0027 -0.0604 -0.5652
  141BOLB   C1D 3381  21.583   6.384  18.207 -0.2415 -0.2400  0.1534
  141BOLB   C2D 3382  21.340   6.758  17.855 -0.0124 -0.0584  0.0151
  141BOLB   C3D 3383  21.164   7.132  17.766 -0.1572  0.3234  0.1737
  141BOLB   C4D 3384  20.997   7.211  17.378 -0.3612  0.1010 -0.0850
  142BOLB   NC1 3385  20.439   9.304  18.000 -0.1171  0.0589  0.2783
  142BOLB   PO1 3386  20.663   9.606  18.007  0.0682  0.1406 -0.0428
  142BOLB   GL1 3387  20.982   9.283  17.988 -0.1655  0.2218  0.1178
  142BOLB   GL2 3388  21.101   9.424  17.827  0.1300 -0.0570  0.1513
  142BOLB   C1A 3389  20.919   8.827  18.104 -0.3077 -0.1844 -0.0864
  142BOLB   C2A 3390  20.724   8.377  18.322  0.4251 -0.0792  0.0408
  142BOLB   C3A 3391  20.939   8.068  18.393 -0.0299 -0.0291  0.0512
  142BOLB   C4A 3392  21.190   7.763  18.452  0.5497  0.1793  0.0155
  142BOLB   C1B 3393  21.311   9.000  17.666  0.1687  0.2432 -0.0844
  142BOLB   C2B 3394  21.470   8.603  17.598 -0.0746 -0.2262  0.1854
  142BOLB   C3B 3395  21.667   8.258  17.687  0.1889  0.0680 -0.0100
  142BOLB   C4B 3396  21.562   7.973  18.032 -0.0156 -0.0486  0.2206
  142BOLB   NC2 3397  21.833   5.586  19.510 -0.0267  0.1865 -0.1686
  142BOLB   PO2 3398  21.908   6.041  19.444  0.2606 -0.0571 -0.0562
  142BOLB   GL3 3399  21.602   6.371  19.274 -0.2190 -0.0165 -0.0436
  142BOLB   GL4 3400  21.468   6.312  19.004 -0.0294 -0.1526  0.1740
  142BOLB   C1C 3401  21.218   6.553  19.452  0.3285  0.2416  0.4365
  142BOLB   C2C 3402  21.106   6.968  19.454  0.2471 -0.2607 -0.0790
  142BOLB   C3C 3403  21.040   7.293  19.139 -0.1239 -0.0540  0.1317
  142BOLB   C4C 3404  21.053   7.455  18.765  0.1781  0.2457 -0.0819
  142BOLB   C1D 3405  21.444   6.539  18.656  0.0368  0.0690  0.1132
  142BOLB   C2D 3406  21.403   6.875  18.328  0.0375 -0.2045  0.1648
  142BOLB   C3D 3407  21.405   7.358  18.351  0.0416  0.0245  0.0211
  142BOLB   C4D 3408  21.510   7.594  18.801 -0.1374  0.0391 -0.0441
  143BOLB   NC1 3409   8.822   8.111  24.412  0.1476 -0.0799 -0.1866
  143BOLB   PO1 3410   8.903   8.365  24.039  0.4859 -0.5257 -0.3120
  143BOLB   GL1 3411   9.173   8.646  24.302  0.4300 -0.1249  0.0491
  143BOLB   GL2 3412   9.136   8.509  24.539  0.4192  0.0221 -0.3724
  143BOLB   C1A 3413   9.339   8.983  24.528  0.0053  0.1140 -0.0681
  143BOLB   C2A 3414   9.741   9.045  24.555 -0.2533 -0.2034 -0.1670
  143BOLB   C3A 3415   9.988   8.735  24.346 -0.0847  0.0067  0.1483
  143BOLB   C4A 3416  10.320   8.569  24.662 -0.2631  0.2065  0.1405
  143BOLB   C1B 3417   9.197   8.696  24.993  0.0964 -0.1985 -0.0228
  143BOLB   C2B 3418   9.069   8.930  25.358 -0.0875  0.1421  0.1429
  143BOLB   C3B 3419   9.022   9.334  25.545 -0.1809 -0.0604  0.0792
  143BOLB   C4B 3420   9.352   9.528  25.731 -0.3095 -0.1300  0.0039
  143BOLB   NC2 3421  11.033   7.414  26.349 -0.0470 -0.1841  0.2801
  143BOLB   PO2 3422  11.016   7.765  26.560 -0.1361 -0.0804  0.2274
  143BOLB   GL3 3423  10.780   8.014  26.310 -0.3271 -0.1336  0.3491
  143BOLB   GL4 3424  10.709   8.363  26.445 -0.1545  0.4301 -0.0869
  143BOLB   C1C 3425  10.678   8.098  25.946  0.0966  0.2165 -0.0834
  143BOLB   C2C 3426  10.693   8.095  25.528  0.1154 -0.4370  0.3227
  143BOLB   C3C 3427  10.554   8.416  25.333  0.2308 -0.6571 -0.0020
  143BOLB   C4C 3428  10.595   8.410  24.866 -0.1173  0.0324  0.1524
  143BOLB   C1D 3429  10.997   8.651  26.178  0.1844  0.1488  0.0601
  143BOLB   C2D 3430  10.923   8.666  25.764 -0.0884  0.2747 -0.5364
  143BOLB   C3D 3431  10.935   8.766  25.405 -0.1414  0.2395  0.1960
  143BOLB   C4D 3432  10.972   8.743  24.979 -0.0542 -0.0567  0.3069
  144BOLB   NC1 3433  18.150   8.935  19.399  0.1483 -0.1129  0.1440
  144BOLB   PO1 3434  18.369   8.622  19.695  0.0579 -0.0549  0.3704
  144BOLB   GL1 3435  18.757   8.402  19.823  0.0951 -0.4295  0.2364
  144BOLB   GL2 3436  18.759   8.176  19.637 -0.2021  0.2752 -0.0836
  144BOLB   C1A 3437  19.080   8.257  20.106  0.0163 -0.0517  0.0963
  144BOLB   C2A 3438  19.441   8.101  20.272  0.3281 -0.0470 -0.0182
  144BOLB   C3A 3439  19.737   7.785  20.154  0.0912 -0.0864 -0.1292
  144BOLB   C4A 3440  19.720   7.310  20.186  0.2773  0.0135  0.0314
  144BOLB   C1B 3441  18.856   7.853  19.894  0.0624 -0.2781 -0.1033
  144BOLB   C2B 3442  19.107   7.771  20.218 -0.0679 -0.0143  0.2008
  144BOLB   C3B 3443  19.213   7.456  20.429  0.1545  0.0023 -0.0133
  144BOLB   C4B 3444  19.189   7.031  20.340 -0.3783  0.2814  0.1426
  144BOLB   NC2 3445  20.981   5.340  21.557 -0.0469 -0.0883 -0.0001
  144BOLB   PO2 3446  20.969   5.683  21.344  0.0192 -0.1171  0.3408
  144BOLB   GL3 3447  20.751   6.018  21.233  0.2055  0.2423 -0.0728
  144BOLB   GL4 3448  20.502   6.207  21.386 -0.1376  0.3086 -0.2883
  144BOLB   C1C 3449  20.411   6.205  20.889 -0.0546  0.2186 -0.3167
  144BOLB   C2C 3450  20.023   6.364  20.722 -0.1409  0.1901 -0.0277
  144BOLB   C3C 3451  19.718   6.636  20.683  0.3622  0.1049 -0.1045
  144BOLB   C4C 3452  19.649   7.092  20.524 -0.0665 -0.0568 -0.0929
  144BOLB   C1D 3453  20.500   6.654  21.576 -0.0200  0.2655  0.1519
  144BOLB   C2D 3454  20.307   7.037  21.671 -0.1127  0.1623 -0.0505
  144BOLB   C3D 3455  20.213   7.304  21.876  0.2076  0.2020  0.1391
  144BOLB   C4D 3456  20.065   7.586  21.889  0.2115 -0.1356 -0.1404
  145BOLB   NC1 3457  10.953   8.308  22.711 -0.1859  0.0739  0.3301
  145BOLB   PO1 3458  11.372   8.637  22.818 -0.1142  0.0609 -0.2877
  145BOLB   GL1 3459  11.414   8.943  23.121  0.2766 -0.2850 -0.1063
  145BOLB   GL2 3460  11.151   9.138  23.146 -0.0468  0.3102 -0.2599
  145BOLB   C1A 3461  11.447   8.953  23.611 -0.1514  0.0941  0.1138
  145BOLB   C2A 3462  11.582   9.136  24.093 -0.0961 -0.2413  0.1063
  145BOLB   C3A 3463  11.676   9.173  24.490  0.0681 -0.0506 -0.1828
  145BOLB   C4A 3464  11.734   9.291  24.992  0.1254 -0.0202 -0.2452
  145BOLB   C1B 3465  10.972   9.182  23.538 -0.1278  0.0904 -0.1561
  145BOLB   C2B 3466  10.675   9.448  23.805 -0.0426  0.2254 -0.0816
  145BOLB   C3B 3467  10.738   9.265  24.247 -0.0625 -0.3318 -0.1357
  145BOLB   C4B 3468  10.790   9.524  24.596  0.0342 -0.3032  0.3245
  145BOLB   NC2 3469  11.118   8.956  27.319 -0.1415 -0.1636 -0.1952
  145BOLB   PO2 3470  11.524   8.721  27.357  0.0153  0.0867  0.1263
  145BOLB   GL3 3471  11.661   8.886  26.932  0.1023 -0.0639 -0.2580
  145BOLB   GL4 3472  11.485   8.535  26.863 -0.1353 -0.0200  0.1493
  145BOLB   C1C 3473  11.568   9.202  26.704 -0.2086 -0.0812 -0.0344
  145BOLB   C2C 3474  11.513   9.436  26.276  0.0159  0.2426  0.2246
  145BOLB   C3C 3475  11.544   9.383  25.870  0.0293 -0.0583  0.0186
  145BOLB   C4C 3476  11.796   9.421  25.498 -0.1759  0.0282 -0.1663
  145BOLB   C1D 3477  11.472   8.692  26.482  0.1512 -0.0086  0.2811
  145BOLB   C2D 3478  11.642   8.900  26.203  0.0930  0.1939 -0.1897
  145BOLB   C3D 3479  11.665   8.962  25.716  0.0062 -0.0459 -0.2207
  145BOLB   C4D 3480  11.409   8.680  25.462  0.1023  0.0110 -0.0039
  146BOLB   NC1 3481  19.593   9.738  18.843  0.0941 -0.0524  0.2403
  146BOLB   PO1 3482  19.924   9.498  18.908  0.4174  0.1819 -0.1669
  146BOLB   GL1 3483  19.995   9.090  19.170  0.1199  0.0214  0.1480
  146BOLB   GL2 3484  19.752   8.837  19.389  0.0039 -0.1029  0.1127
  146BOLB   C1A 3485  20.220   8.721  19.140 -0.2992 -0.2593  0.1372
  146BOLB   C2A 3486  20.381   8.343  19.156  0.1493 -0.0223 -0.2287
  146BOLB   C3A 3487  20.368   7.984  19.258  0.2113  0.3254  0.0144
  146BOLB   C4A 3488  20.502   7.724  19.493 -0.1495  0.1337 -0.2233
  146BOLB   C1B 3489  19.978   8.502  19.547 -0.0166  0.0389  0.3446
  146BOLB   C2B 3490  20.385   8.249  19.703  0.0259  0.4036 -0.2645
  146BOLB   C3B 3491  20.668   8.265  20.037 -0.1660 -0.0803 -0.3302
  146BOLB   C4B 3492  21.166   8.149  20.201  0.1143 -0.2091 -0.1135
  146BOLB   NC2 3493  21.288   5.551  20.428  0.0064  0.1314 -0.0968
  146BOLB   PO2 3494  21.581   5.784  20.761 -0.3656  0.0062 -0.3480
  146BOLB   GL3 3495  21.454   6.145  20.419  0.3254  0.1144  0.1046
  146BOLB   GL4 3496  21.655   6.316  20.496  0.3203 -0.1154  0.2775
  146BOLB   C1C 3497  21.080   6.177  20.102 -0.0418  0.1792  0.0136
  146BOLB   C2C 3498  20.848   6.483  19.837 -0.1884  0.1893 -0.1951
  146BOLB   C3C 3499  20.729   6.832  19.730  0.2556  0.1505  0.1986
  146BOLB   C4C 3500  20.619   7.289  19.549  0.0888 -0.0525 -0.0337
  146BOLB   C1D 3501  21.555   6.657  20.391 -0.1482 -0.1010 -0.1120
  146BOLB   C2D 3502  21.641   7.147  20.454  0.2093 -0.2661  0.0673
  146BOLB   C3D 3503  21.852   7.539  20.576  0.0903 -0.7096  0.1207
  146BOLB   C4D 3504  21.638   7.911  20.715  0.1155  0.1810 -0.2817
  147BOLB   NC1 3505  15.765   8.405  20.768 -0.2637  0.0801 -0.1285
  147BOLB   PO1 3506  15.689   8.110  21.071 -0.3533  0.2545  0.1504
  147BOLB   GL1 3507  15.858   7.775  21.197  0.2130 -0.2166 -0.3333
  147BOLB   GL2 3508  15.769   7.570  20.979 -0.0514 -0.0463  0.2639
  147BOLB   C1A 3509  16.163   7.435  21.251 -0.0966  0.0764 -0.1210
  147BOLB   C2A 3510  16.267   7.090  21.522 -0.0706  0.1125  0.2088
  147BOLB   C3A 3511  16.313   6.554  21.637 -0.1858 -0.0878  0.3995
  147BOLB   C4A 3512  16.558   6.323  21.873  0.2315  0.1702 -0.0377
  147BOLB   C1B 3513  15.623   7.371  21.380 -0.1794 -0.0062 -0.2311
  147BOLB   C2B 3514  15.302   7.055  21.493 -0.0848  0.0245 -0.2525
  147BOLB   C3B 3515  14.985   6.776  21.526 -0.0386 -0.1655  0.1814
  147BOLB   C4B 3516  14.672   6.410  21.586  0.1284 -0.2184  0.3325
  147BOLB   NC2 3517  18.302   4.173  22.557 -0.0475  0.0534  0.2233
  147BOLB   PO2 3518  18.112   4.558  22.538  0.2234 -0.1618 -0.0011
  147BOLB   GL3 3519  17.845   4.854  22.361 -0.2511 -0.1212  0.1066
  147BOLB   GL4 3520  17.542   4.592  22.342  0.1164  0.0942 -0.3250
  147BOLB   C1C 3521  17.685   5.255  22.296 -0.1517  0.1704  0.2710
  147BOLB   C2C 3522  17.510   5.528  21.941 -0.1140 -0.1855  0.1915
  147BOLB   C3C 3523  17.286   5.824  21.994  0.0613 -0.2147 -0.0383
  147BOLB   C4C 3524  16.934   6.048  21.943  0.0439  0.0399 -0.0333
  147BOLB   C1D 3525  17.366   4.891  22.298 -0.0376  0.2395  0.1951
  147BOLB   C2D 3526  17.072   5.183  22.216  0.1503  0.2842 -0.1199
  147BOLB   C3D 3527  16.844   5.598  22.145  0.0891  0.0190 -0.1507
  147BOLB   C4D 3528  16.551   5.968  22.245  0.0448  0.1023 -0.0757
  148BOLB   NC1 3529  19.516   9.434  17.937  0.4190  0.2431  0.0162
  148BOLB   PO1 3530  19.633   9.061  17.969 -0.1104  0.1773 -0.1482
  148BOLB   GL1 3531  19.745   8.657  17.860  0.3606  0.0296 -0.3760
  148BOLB   GL2 3532  19.994   8.319  18.070  0.2413 -0.2576  0.2801
  148BOLB   C1A 3533  19.923   8.373  17.623 -0.1443 -0.1717  0.0026
  148BOLB   C2A 3534  20.146   7.990  17.758 -0.2809 -0.0210 -0.0642
  148BOLB   C3A 3535  20.154   7.562  17.807 -0.0451  0.2436  0.2904
  148BOLB   C4A 3536  20.410   7.296  17.949 -0.1131 -0.0300 -0.0108
  148BOLB   C1B 3537  19.686   7.976  17.912  0.1005  0.3277  0.0362
  148BOLB   C2B 3538  19.246   8.041  17.638 -0.0399 -0.2484 -0.0199
  148BOLB   C3B 3539  19.203   7.886  17.215  0.2223 -0.2273 -0.0529
  148BOLB   C4B 3540  19.425   7.614  16.930  0.4227  0.0657 -0.3608
  148BOLB   NC2 3541  20.948   5.558  18.046 -0.1449  0.1343 -0.2816
  148BOLB   PO2 3542  20.643   5.339  18.244 -0.2562 -0.0046 -0.2088
  148BOLB   GL3 3543  20.583   5.610  18.505 -0.0440 -0.1237 -0.4544
  148BOLB   GL4 3544  20.474   5.843  18.301 -0.0513  0.0370 -0.2536
  148BOLB   C1C 3545  20.394   5.871  18.796  0.0530  0.0708  0.0871
  148BOLB   C2C 3546  20.161   6.121  18.554  0.1377  0.0742 -0.2458
  148BOLB   C3C 3547  20.288   6.547  18.395 -0.0341  0.2161  0.0503
  148BOLB   C4C 3548  20.371   6.954  18.302  0.0345  0.1799 -0.0768
  148BOLB   C1D 3549  20.143   5.997  18.024 -0.0619 -0.1263 -0.0911
  148BOLB   C2D 3550  20.171   6.354  17.962 -0.2435  0.0512  0.1816
  148BOLB   C3D 3551  20.376   6.697  17.853 -0.1661 -0.2644 -0.0553
  148BOLB   C4D 3552  20.691   6.818  17.768 -0.1215  0.0719 -0.1439
  149BOLB   NC1 3553  15.376   8.332  21.350 -0.0928  0.1859  0.1712
  149BOLB   PO1 3554  15.071   8.511  21.757 -0.0947 -0.1508  0.0522
  149BOLB   GL1 3555  15.445   8.280  21.898 -0.0479  0.0923  0.0794
  149BOLB   GL2 3556  15.663   8.200  21.693  0.2574 -0.1156  0.1092
  149BOLB   C1A 3557  15.679   8.086  22.285 -0.3320 -0.1494 -0.2071
  149BOLB   C2A 3558  15.770   8.199  22.714 -0.0004 -0.0009  0.1560
  149BOLB   C3A 3559  16.062   7.962  22.960  0.0120  0.0983  0.1147
  149BOLB   C4A 3560  16.193   7.507  23.171 -0.1409  0.2179 -0.1314
  149BOLB   C1B 3561  15.658   7.757  21.772 -0.5067 -0.6930 -0.4444
  149BOLB   C2B 3562  15.954   7.403  21.728 -0.0201  0.2713  0.1232
  149BOLB   C3B 3563  16.147   7.241  22.060 -0.0552 -0.0300 -0.2078
  149BOLB   C4B 3564  16.565   7.282  22.209  0.0700 -0.2744  0.1303
  149BOLB   NC2 3565  17.241   5.828  24.018 -0.0356  0.1110 -0.1065
  149BOLB   PO2 3566  17.106   5.491  24.141  0.4288 -0.1987 -0.1111
  149BOLB   GL3 3567  16.792   5.797  23.883  0.1414 -0.1901  0.0669
  149BOLB   GL4 3568  16.538   5.658  23.829 -0.3258 -0.1071  0.4769
  149BOLB   C1C 3569  16.768   6.017  23.503  0.0294  0.0010  0.1510
  149BOLB   C2C 3570  16.574   6.222  23.260 -0.1286  0.2030 -0.1662
  149BOLB   C3C 3571  16.321   6.563  23.109 -0.0456  0.2099 -0.2105
  149BOLB   C4C 3572  16.156   6.983  23.152 -0.1105  0.0399 -0.0128
  149BOLB   C1D 3573  16.313   5.691  23.497 -0.1025 -0.2821  0.0668
  149BOLB   C2D 3574  16.000   5.467  23.219  0.1318  0.0186  0.0687
  149BOLB   C3D 3575  15.811   5.060  23.148 -0.1431  0.1341 -0.1002
  149BOLB   C4D 3576  15.600   4.953  22.752  0.1003  0.2890  0.1484
  150BOLB   NC1 3577  15.030   3.810  20.987  0.0610  0.1823 -0.3043
  150BOLB   PO1 3578  14.876   4.122  20.752 -0.0020  0.4512 -0.5217
  150BOLB   GL1 3579  15.141   4.436  20.759  0.2230  0.1859 -0.3273
  150BOLB   GL2 3580  15.310   4.433  20.455 -0.1683 -0.2397  0.1163
  150BOLB   C1A 3581  15.167   4.909  20.703  0.0023 -0.1148 -0.0050
  150BOLB   C2A 3582  15.223   5.209  20.955 -0.0348 -0.2414  0.0512
  150BOLB   C3A 3583  15.507   5.378  21.287 -0.0056 -0.4522 -0.4525
  150BOLB   C4A 3584  15.757   5.252  21.467  0.1314 -0.2182  0.0294
  150BOLB   C1B 3585  15.661   4.472  20.196  0.0996  0.1233  0.1981
  150BOLB   C2B 3586  15.775   4.464  19.803  0.2987  0.0235  0.0881
  150BOLB   C3B 3587  16.089   4.680  19.502  0.1538 -0.0094  0.1118
  150BOLB   C4B 3588  16.370   4.967  19.607 -0.0365  0.1310 -0.0658
  150BOLB   NC2 3589  16.906   4.963  23.942  0.2561  0.0866 -0.1710
  150BOLB   PO2 3590  16.705   4.506  23.816  0.0889  0.1695  0.3069
  150BOLB   GL3 3591  16.573   4.863  23.513  0.2241  0.1075  0.2071
  150BOLB   GL4 3592  16.604   5.120  23.600  0.0088  0.1585 -0.1372
  150BOLB   C1C 3593  16.321   4.783  23.204 -0.1286  0.0106  0.1818
  150BOLB   C2C 3594  16.329   4.797  22.657 -0.0231  0.0154  0.1539
  150BOLB   C3C 3595  16.137   4.754  22.177 -0.1685 -0.3428 -0.1180
  150BOLB   C4C 3596  16.124   5.031  21.750  0.0764 -0.0831  0.0380
  150BOLB   C1D 3597  16.707   5.436  23.376 -0.2340 -0.1542  0.2906
  150BOLB   C2D 3598  16.530   5.710  23.066  0.3682 -0.0213 -0.1312
  150BOLB   C3D 3599  16.210   6.015  23.042  0.1523  0.1968 -0.0945
  150BOLB   C4D 3600  15.916   6.161  22.730 -0.1057 -0.0181 -0.3201
  151BOLB   NC1 3601  13.548   8.748  22.134 -0.1860 -0.1855  0.1537
  151BOLB   PO1 3602  13.502   8.881  22.541 -0.0097 -0.4701 -0.1480
  151BOLB   GL1 3603  13.818   8.544  22.775 -0.2936  0.1883  0.3409
  151BOLB   GL2 3604  13.571   8.362  22.956  0.0283 -0.1243 -0.1207
  151BOLB   C1A 3605  14.115   8.413  23.038  0.3525  0.1830  0.3842
  151BOLB   C2A 3606  14.186   8.162  23.458  0.1567 -0.0594  0.0350
  151BOLB   C3A 3607  14.285   8.060  23.909 -0.4188 -0.3500  0.2119
  151BOLB   C4A 3608  14.468   8.060  24.344  0.2563  0.2128  0.2077
  151BOLB   C1B 3609  13.736   8.447  23.355 -0.3666  0.2120  0.0980
  151BOLB   C2B 3610  13.904   8.644  23.612  0.2910  0.0077  0.0464
  151BOLB   C3B 3611  14.005   8.520  23.991 -0.2339  0.2166  0.1040
  151BOLB   C4B 3612  14.143   8.560  24.470 -0.1746  0.0349 -0.3294
  151BOLB   NC2 3613  13.750   6.986  26.717 -0.1310 -0.1363  0.2497
  151BOLB   PO2 3614  14.150   6.838  26.503 -0.1883  0.0767  0.0975
  151BOLB   GL3 3615  13.876   6.987  26.170  0.2562 -0.1400 -0.3160
  151BOLB   GL4 3616  13.612   7.235  26.177 -0.3652  0.2484 -0.2146
  151BOLB   C1C 3617  13.856   7.018  25.677 -0.0433  0.0525  0.1253
  151BOLB   C2C 3618  14.158   7.281  25.340  0.0967  0.2074  0.3859
  151BOLB   C3C 3619  14.352   7.689  25.216 -0.0436  0.3044  0.4120
  151BOLB   C4C 3620  14.483   7.968  24.788  0.3545  0.2504  0.0521
  151BOLB   C1D 3621  13.514   7.644  26.082 -0.5668 -0.1758 -0.1881
  151BOLB   C2D 3622  13.519   8.045  25.881 -0.0684 -0.2566 -0.2792
  151BOLB   C3D 3623  13.428   8.091  25.426  0.0831 -0.0532  0.2338
  151BOLB   C4D 3624  12.989   7.999  25.292 -0.0688  0.3057  0.1560
  152BOLB   NC1 3625  15.649   7.437  19.982  0.1918 -0.0608 -0.3032
  152BOLB   PO1 3626  16.096   7.407  20.010  0.1428  0.0285  0.0060
  152BOLB   GL1 3627  16.243   7.198  20.363 -0.3549 -0.2087 -0.1089
  152BOLB   GL2 3628  16.256   6.929  20.401  0.1264 -0.0486  0.0975
  152BOLB   C1A 3629  16.513   7.216  20.808  0.0712  0.2235  0.2854
  152BOLB   C2A 3630  16.661   6.952  21.153  0.1761  0.1672 -0.1551
  152BOLB   C3A 3631  16.662   6.839  21.705  0.0047 -0.1299  0.1695
  152BOLB   C4A 3632  17.020   6.693  21.951 -0.1419 -0.0650  0.0409
  152BOLB   C1B 3633  16.408   6.696  20.659  0.2046 -0.1858 -0.0928
  152BOLB   C2B 3634  16.734   6.498  20.795  0.2022 -0.2643  0.2182
  152BOLB   C3B 3635  16.846   6.095  20.936  0.0445 -0.3710  0.2193
  152BOLB   C4B 3636  16.869   5.898  21.324 -0.0573  0.1684  0.2173
  152BOLB   NC2 3637  18.491   4.864  22.530 -0.0366  0.1902 -0.2680
  152BOLB   PO2 3638  18.459   5.073  23.001  0.2439 -0.0702 -0.0942
  152BOLB   GL3 3639  18.222   5.250  22.614  0.1226 -0.0475 -0.2695
  152BOLB   GL4 3640  17.899   5.209  22.806 -0.1295 -0.0130 -0.1348
  152BOLB   C1C 3641  18.145   5.474  22.319 -0.0333 -0.2296 -0.4155
  152BOLB   C2C 3642  17.791   5.778  22.335 -0.0233 -0.0816  0.0829
  152BOLB   C3C 3643  17.510   6.142  22.290 -0.0178 -0.0819  0.3685
  152BOLB   C4C 3644  17.256   6.404  22.162 -0.2453  0.0726  0.1803
  152BOLB   C1D 3645  17.566   5.547  22.727  0.0848 -0.0642 -0.0567
  152BOLB   C2D 3646  17.304   5.748  22.507 -0.2282  0.2334 -0.3761
  152BOLB   C3D 3647  17.027   6.028  22.477 -0.1522  0.0784 -0.0970
  152BOLB   C4D 3648  16.766   6.418  22.358 -0.3234  0.4172  0.1570
  153BOLB   NC1 3649  15.198   6.948  19.294 -0.2451  0.0678 -0.1010
  153BOLB   PO1 3650  15.244   7.136  19.681  0.0925  0.2520 -0.1467
  153BOLB   GL1 3651  15.524   6.794  19.851 -0.2528  0.0417  0.0237
  153BOLB   GL2 3652  15.925   6.975  19.848  0.1144  0.2797  0.0607
  153BOLB   C1A 3653  15.827   6.535  19.525  0.3394 -0.2354  0.1910
  153BOLB   C2A 3654  16.229   6.384  19.427 -0.0531 -0.0430  0.1636
  153BOLB   C3A 3655  16.487   6.048  19.429  0.2130  0.2842 -0.3382
  153BOLB   C4A 3656  16.877   5.780  19.544  0.2114 -0.2828 -0.0770
  153BOLB   C1B 3657  16.224   6.635  19.988 -0.3783  0.1695 -0.1132
  153BOLB   C2B 3658  16.192   6.219  19.908  0.0156 -0.0159  0.2992
  153BOLB   C3B 3659  16.416   5.802  19.878 -0.4606 -0.1594 -0.0161
  153BOLB   C4B 3660  16.787   5.662  20.095  0.0628  0.1790  0.2556
  153BOLB   NC2 3661  18.413   3.279  19.487 -0.0196 -0.1668 -0.1051
  153BOLB   PO2 3662  18.398   3.692  19.657 -0.0902  0.2200 -0.3536
  153BOLB   GL3 3663  18.211   4.028  19.452  0.2912 -0.3347  0.1598
  153BOLB   GL4 3664  18.198   4.247  19.249  0.0603 -0.0900  0.2050
  153BOLB   C1C 3665  17.880   4.354  19.615  0.0699  0.0253 -0.1044
  153BOLB   C2C 3666  17.724   4.740  19.689  0.2956  0.0341 -0.1553
  153BOLB   C3C 3667  17.391   5.079  19.725 -0.0558 -0.1528  0.0845
  153BOLB   C4C 3668  16.971   5.392  19.663 -0.1788 -0.1110  0.1084
  153BOLB   C1D 3669  17.954   4.567  18.998 -0.1151 -0.0065 -0.2112
  153BOLB   C2D 3670  17.939   4.940  18.755  0.3211 -0.0523 -0.0392
  153BOLB   C3D 3671  17.776   5.237  18.752  0.1017 -0.1660  0.3470
  153BOLB   C4D 3672  17.905   5.490  18.328  0.2607 -0.0228  0.3785
  154BOLB   NC1 3673  19.233   8.633  18.639 -0.1602  0.1294  0.2815
  154BOLB   PO1 3674  18.964   8.412  18.352 -0.1478 -0.3422  0.0097
  154BOLB   GL1 3675  19.131   8.069  18.428  0.2226 -0.2281  0.3462
  154BOLB   GL2 3676  18.860   7.806  18.357  0.1872  0.0300 -0.2449
  154BOLB   C1A 3677  19.414   7.826  18.377  0.0371 -0.0560 -0.0586
  154BOLB   C2A 3678  19.795   7.541  18.197  0.0189 -0.2402  0.0577
  154BOLB   C3A 3679  19.910   7.082  18.192  0.1233 -0.0784 -0.3379
  154BOLB   C4A 3680  19.850   6.707  18.429 -0.1143 -0.2517  0.0976
  154BOLB   C1B 3681  19.112   7.503  18.403 -0.1342 -0.2533 -0.0240
  154BOLB   C2B 3682  19.462   7.182  18.345  0.0566  0.0173  0.1572
  154BOLB   C3B 3683  19.515   6.802  18.049  0.0707  0.0296 -0.1200
  154BOLB   C4B 3684  19.755   6.598  17.777 -0.2810 -0.0066  0.0623
  154BOLB   NC2 3685  20.720   4.910  19.000  0.4066 -0.0824  0.0271
  154BOLB   PO2 3686  20.516   5.034  18.627 -0.4234 -0.3294  0.2532
  154BOLB   GL3 3687  20.362   5.350  18.845 -0.0176  0.2740  0.0766
  154BOLB   GL4 3688  20.538   5.298  19.247  0.0899 -0.0340 -0.0824
  154BOLB   C1C 3689  19.984   5.583  18.897 -0.1770 -0.2907 -0.4301
  154BOLB   C2C 3690  19.864   5.946  19.046  0.0908  0.2708  0.1236
  154BOLB   C3C 3691  19.769   6.282  18.813  0.0366  0.1188 -0.0349
  154BOLB   C4C 3692  19.733   6.363  18.527 -0.0509 -0.1287 -0.0420
  154BOLB   C1D 3693  20.206   5.635  19.332 -0.0196  0.1316 -0.1707
  154BOLB   C2D 3694  20.052   5.980  19.653 -0.0833  0.2046 -0.2255
  154BOLB   C3D 3695  19.945   6.181  20.071  0.1735  0.0013 -0.0611
  154BOLB   C4D 3696  19.644   6.169  20.447  0.0774  0.1911  0.0095
  155BOLB   NC1 3697  16.277   7.263  17.337 -0.1404 -0.0424 -0.0867
  155BOLB   PO1 3698  16.468   6.926  17.168 -0.0096 -0.2523  0.2475
  155BOLB   GL1 3699  16.429   6.484  17.226 -0.2912 -0.1580  0.0585
  155BOLB   GL2 3700  16.273   6.505  17.509 -0.0303 -0.2199  0.1862
  155BOLB   C1A 3701  16.593   6.020  17.404 -0.1615 -0.0237 -0.3110
  155BOLB   C2A 3702  16.985   5.923  17.661 -0.1747  0.0269  0.0475
  155BOLB   C3A 3703  17.333   5.917  17.777  0.2607 -0.2000 -0.1655
  155BOLB   C4A 3704  17.658   5.563  17.866 -0.0339  0.1844 -0.0173
  155BOLB   C1B 3705  16.241   6.122  17.739  0.0683  0.1064  0.0419
  155BOLB   C2B 3706  16.616   5.970  17.962 -0.1711  0.2261  0.0214
  155BOLB   C3B 3707  16.996   5.812  18.133  0.1840  0.1559  0.1449
  155BOLB   C4B 3708  17.345   5.559  18.241 -0.0673  0.0225 -0.1090
  155BOLB   NC2 3709  19.835   3.973  18.098  0.0344  0.2140  0.0953
  155BOLB   PO2 3710  19.893   4.323  18.200 -0.2009 -0.0746  0.1524
  155BOLB   GL3 3711  19.536   4.507  18.049 -0.0416  0.1706 -0.2072
  155BOLB   GL4 3712  19.632   4.774  18.214  0.1214  0.0305 -0.0314
  155BOLB   C1C 3713  19.140   4.828  18.079 -0.1072 -0.1904 -0.1425
  155BOLB   C2C 3714  18.762   5.081  17.956  0.3216  0.0394  0.2754
  155BOLB   C3C 3715  18.315   5.230  18.061 -0.1786  0.4674 -0.0439
  155BOLB   C4C 3716  18.017   5.365  17.825  0.2197 -0.1272  0.2184
  155BOLB   C1D 3717  19.536   5.176  18.184 -0.0624 -0.1158 -0.0067
  155BOLB   C2D 3718  19.741   5.456  17.911 -0.1664 -0.1857  0.1115
  155BOLB   C3D 3719  19.619   5.798  17.939 -0.0096 -0.0752 -0.0755
  155BOLB   C4D 3720  19.621   6.153  18.080 -0.3074 -0.1266 -0.3861
  156BOLB   NC1 3721  21.328  10.257  18.122 -0.0596  0.1714 -0.2618
  156BOLB   PO1 3722  21.185   9.944  17.797  0.1431  0.0447  0.0186
  156BOLB   GL1 3723  21.542   9.635  17.741 -0.1480 -0.0674  0.2572
  156BOLB   GL2 3724  21.815   9.512  17.455  0.1846 -0.2759 -0.1850
  156BOLB   C1A 3725  21.696   9.237  17.925 -0.2614  0.1798 -0.1881
  156BOLB   C2A 3726  21.930   8.794  17.857  0.0691  0.0439  0.0652
  156BOLB   C3A 3727  22.312   8.662  17.989 -0.1101 -0.0159 -0.1500
  156BOLB   C4A 3728  22.535   8.327  17.970 -0.2606  0.0269  0.0690
  156BOLB   C1B 3729  22.065   9.197  17.359  0.0287 -0.1884 -0.0367
  156BOLB   C2B 3730  22.333   8.916  17.476 -0.3366  0.1529 -0.3255
  156BOLB   C3B 3731  22.691   8.597  17.339  0.2640 -0.2508 -0.0605
  156BOLB   C4B 3732  22.993   8.205  17.565 -0.4198  0.1442 -0.0071
  156BOLB   NC2 3733  21.699   5.911  18.952 -0.2524 -0.2383  0.1334
  156BOLB   PO2 3734  22.034   5.989  18.737 -0.1887 -0.3917 -0.0446
  156BOLB   GL3 3735  21.947   6.411  18.658 -0.2761  0.0226 -0.0102
  156BOLB   GL4 3736  21.922   6.580  18.898  0.0349 -0.1475 -0.3328
  156BOLB   C1C 3737  21.851   6.876  18.481  0.0600 -0.1432 -0.0648
  156BOLB   C2C 3738  21.866   7.274  18.399 -0.1923 -0.2525 -0.0959
  156BOLB   C3C 3739  22.210   7.557  18.245  0.3082  0.0242 -0.1684
  156BOLB   C4C 3740  22.449   7.873  18.207 -0.1437  0.1609 -0.2454
  156BOLB   C1D 3741  22.104   6.854  19.238  0.0544  0.1272  0.1604
  156BOLB   C2D 3742  21.686   6.851  19.411  0.0494 -0.0964 -0.3465
  156BOLB   C3D 3743  21.395   6.839  19.069  0.0188 -0.1969 -0.1005
  156BOLB   C4D 3744  21.147   6.938  18.730 -0.3101 -0.0985 -0.1234
  157BOLB   NC1 3745  14.556   5.849  18.476 -0.0178 -0.4554 -0.2315
  157BOLB   PO1 3746  14.835   6.219  18.455  0.0696  0.0818  0.3190
  157BOLB   GL1 3747  15.146   6.197  18.671  0.0222  0.0952  0.3557
  157BOLB   GL2 3748  15.153   6.180  18.950 -0.1860 -0.0226  0.1286
  157BOLB   C1A 3749  15.596   6.163  18.673  0.2256  0.1007  0.0697
  157BOLB   C2A 3750  15.891   5.842  18.739 -0.1190  0.2614  0.1662
  157BOLB   C3A 3751  16.356   5.678  18.736  0.1330  0.0731 -0.2025
  157BOLB   C4A 3752  16.739   5.546  18.658 -0.5237 -0.1609 -0.2718
  157BOLB   C1B 3753  15.446   6.233  19.272 -0.1925 -0.1716  0.1243
  157BOLB   C2B 3754  15.871   6.204  19.134  0.1049  0.1774  0.2461
  157BOLB   C3B 3755  16.300   6.142  18.929  0.0254  0.2004 -0.0325
  157BOLB   C4B 3756  16.676   6.082  18.913 -0.1631  0.1511 -0.1203
  157BOLB   NC2 3757  17.865   3.433  18.839 -0.0218 -0.0722  0.0527
  157BOLB   PO2 3758  17.619   3.531  19.054 -0.2405 -0.1310  0.1441
  157BOLB   GL3 3759  17.890   3.880  18.998  0.0564 -0.2761 -0.1055
  157BOLB   GL4 3760  18.006   4.086  18.748 -0.3591 -0.1424  0.1434
  157BOLB   C1C 3761  17.554   4.185  18.808  0.1336 -0.3353  0.0192
  157BOLB   C2C 3762  17.519   4.633  18.693  0.1236  0.2608  0.0979
  157BOLB   C3C 3763  17.399   4.984  18.551 -0.4282 -0.0890 -0.0110
  157BOLB   C4C 3764  17.169   5.394  18.672 -0.0862 -0.0740  0.0891
  157BOLB   C1D 3765  17.743   4.184  18.323 -0.0907 -0.5894  0.0633
  157BOLB   C2D 3766  17.414   4.404  18.013 -0.1497 -0.0602  0.0188
  157BOLB   C3D 3767  17.188   4.596  17.719 -0.0966 -0.2152  0.1363
  157BOLB   C4D 3768  17.170   4.325  17.400  0.0208 -0.0059  0.2218
  158BOLB   NC1 3769  13.555   7.487  21.575  0.1556 -0.1753  0.1561
  158BOLB   PO1 3770  13.664   7.076  21.710  0.4776 -0.0212 -0.2679
  158BOLB   GL1 3771  13.835   7.304  22.277 -0.0773 -0.2305  0.2372
  158BOLB   GL2 3772  13.827   7.636  22.432  0.0385 -0.1301 -0.1760
  158BOLB   C1A 3773  14.026   7.033  22.569  0.0715 -0.0007 -0.0401
  158BOLB   C2A 3774  14.254   7.092  22.949  0.1782  0.0503 -0.1223
  158BOLB   C3A 3775  14.219   7.251  23.309  0.2258 -0.2306 -0.1028
  158BOLB   C4A 3776  13.980   7.155  23.623  0.0251  0.0045 -0.0512
  158BOLB   C1B 3777  13.866   7.497  22.816  0.3314  0.1436  0.0476
  158BOLB   C2B 3778  13.646   7.317  23.160  0.0136 -0.2211  0.0094
  158BOLB   C3B 3779  13.274   7.178  23.165  0.2526  0.1989 -0.0706
  158BOLB   C4B 3780  12.961   6.861  23.209 -0.1712  0.1138  0.0599
  158BOLB   NC2 3781  14.510   5.906  26.322 -0.0054 -0.0807  0.0062
  158BOLB   PO2 3782  14.439   6.158  25.893  0.0203  0.1769 -0.1989
  158BOLB   GL3 3783  14.181   6.393  25.524  0.3722 -0.0409  0.0754
  158BOLB   GL4 3784  14.296   6.724  25.571  0.0843  0.0659  0.0320
  158BOLB   C1C 3785  13.817   6.485  25.211 -0.3905 -0.1606 -0.3524
  158BOLB   C2C 3786  13.685   6.692  24.837  0.3132  0.0229  0.2188
  158BOLB   C3C 3787  13.524   6.899  24.414 -0.1997 -0.4838  0.0222
  158BOLB   C4C 3788  13.877   7.092  24.066  0.1279  0.1084  0.0919
  158BOLB   C1D 3789  14.655   7.089  25.482 -0.2603 -0.1965 -0.0970
  158BOLB   C2D 3790  14.984   7.454  25.429 -0.0139  0.3145 -0.1514
  158BOLB   C3D 3791  15.081   7.739  25.164  0.3979 -0.1496 -0.3296
  158BOLB   C4D 3792  15.367   7.630  24.772  0.1561  0.0827 -0.0497
  159BOLB   NC1 3793  16.910   8.800  20.836 -0.0350 -0.3460 -0.2163
  159BOLB   PO1 3794  16.511   8.602  20.769 -0.0118  0.1208  0.0634
  159BOLB   GL1 3795  16.829   8.333  21.084  0.0103 -0.2219  0.1705
  159BOLB   GL2 3796  17.118   8.456  21.293 -0.1355  0.4034 -0.2173
  159BOLB   C1A 3797  17.158   7.963  20.892 -0.3184  0.2215 -0.0871
  159BOLB   C2A 3798  17.314   7.703  21.178  0.0553 -0.0009 -0.0507
  159BOLB   C3A 3799  17.399   7.745  21.604 -0.2218 -0.1064  0.1897
  159BOLB   C4A 3800  17.488   7.540  21.975  0.0147 -0.1765 -0.0977
  159BOLB   C1B 3801  17.174   8.246  21.681  0.1431  0.1293  0.2024
  159BOLB   C2B 3802  17.301   8.004  22.034  0.0197 -0.0705  0.4143
  159BOLB   C3B 3803  17.699   7.837  22.352  0.0485 -0.1642 -0.0817
  159BOLB   C4B 3804  17.835   7.501  22.729  0.1771 -0.0441  0.1297
  159BOLB   NC2 3805  18.929   6.121  23.221 -0.0475  0.0990  0.2041
  159BOLB   PO2 3806  18.864   6.393  23.647  0.0227  0.0057 -0.3962
  159BOLB   GL3 3807  18.817   6.803  23.388 -0.2281 -0.1014 -0.1579
  159BOLB   GL4 3808  18.767   6.597  23.133 -0.2224  0.0709  0.1719
  159BOLB   C1C 3809  18.503   7.142  23.227  0.0288  0.0220  0.2224
  159BOLB   C2C 3810  18.159   7.164  22.890  0.1242  0.2978 -0.1779
  159BOLB   C3C 3811  17.998   7.046  22.444 -0.1529 -0.1297  0.1865
  159BOLB   C4C 3812  17.793   7.332  22.138  0.2115  0.0262  0.0690
  159BOLB   C1D 3813  18.412   6.627  22.936  0.1097 -0.0688  0.0192
  159BOLB   C2D 3814  18.304   6.646  22.463 -0.3704  0.1645 -0.2402
  159BOLB   C3D 3815  18.387   6.836  22.115  0.1554 -0.0383  0.2258
  159BOLB   C4D 3816  17.991   6.865  21.815  0.1072  0.2296 -0.0122
  160BOLB   NC1 3817  19.432   9.332  19.131 -0.1581 -0.0029  0.3665
  160BOLB   PO1 3818  19.616   8.986  18.830 -0.3364 -0.1349  0.1591
  160BOLB   GL1 3819  19.836   8.651  18.903  0.3435 -0.1292  0.1724
  160BOLB   GL2 3820  20.043   8.692  18.627 -0.3588 -0.1640 -0.4109
  160BOLB   C1A 3821  19.951   8.144  18.931 -0.0214 -0.1874  0.0198
  160BOLB   C2A 3822  19.994   7.684  19.177 -0.0607  0.1219  0.0228
  160BOLB   C3A 3823  20.304   7.323  19.161  0.3990  0.1756 -0.3169
  160BOLB   C4A 3824  20.577   7.067  19.110 -0.2850 -0.0172  0.0926
  160BOLB   C1B 3825  20.219   8.282  18.558  0.1512  0.0583  0.4972
  160BOLB   C2B 3826  20.365   8.023  18.255  0.1466 -0.3099  0.0290
  160BOLB   C3B 3827  20.641   7.721  18.002 -0.1318 -0.0023 -0.2319
  160BOLB   C4B 3828  20.833   7.582  17.679 -0.2701 -0.2011 -0.0183
  160BOLB   NC2 3829  20.453   5.178  20.319  0.1769 -0.1685 -0.2455
  160BOLB   PO2 3830  20.860   5.290  20.465  0.2627 -0.0990  0.2101
  160BOLB   GL3 3831  20.880   5.541  20.120 -0.1828  0.1635  0.2635
  160BOLB   GL4 3832  20.570   5.620  20.123 -0.0161 -0.2791 -0.0075
  160BOLB   C1C 3833  21.088   5.781  19.802 -0.0778  0.1830  0.0076
  160BOLB   C2C 3834  20.986   6.121  19.554 -0.0221 -0.0223 -0.3614
  160BOLB   C3C 3835  20.760   6.336  19.366 -0.1328 -0.2874 -0.0187
  160BOLB   C4C 3836  20.844   6.754  19.148  0.0564 -0.0655  0.0231
  160BOLB   C1D 3837  20.575   6.005  20.020  0.0274  0.2476  0.3751
  160BOLB   C2D 3838  20.373   6.321  19.827  0.1199 -0.2636  0.1145
  160BOLB   C3D 3839  20.275   6.696  19.950  0.1406 -0.0819  0.1442
  160BOLB   C4D 3840  20.145   7.146  20.003 -0.0088  0.0892 -0.1789
  161BOLB   NC1 3841  14.470   5.172  19.219  0.0908  0.2025  0.3351
  161BOLB   PO1 3842  14.730   4.834  19.188 -0.1300  0.1242 -0.0198
  161BOLB   GL1 3843  15.032   4.675  19.476  0.0422 -0.0497  0.0405
  161BOLB   GL2 3844  15.281   4.684  19.405 -0.3054 -0.1372  0.0341
  161BOLB   C1A 3845  15.174   4.653  19.901  0.1307 -0.2382 -0.1584
  161BOLB   C2A 3846  15.439   4.902  20.234 -0.2075  0.1000  0.0801
  161BOLB   C3A 3847  15.557   5.185  20.568 -0.0356 -0.1198 -0.0156
  161BOLB   C4A 3848  15.763   5.162  20.928 -0.0250 -0.0477 -0.2806
  161BOLB   C1B 3849  15.686   4.610  19.248  0.1934  0.1526  0.0483
  161BOLB   C2B 3850  16.126   4.581  18.897  0.0581  0.2188  0.7132
  161BOLB   C3B 3851  16.100   4.326  18.473 -0.0293  0.0453  0.1640
  161BOLB   C4B 3852  16.321   4.280  18.050  0.0949  0.2253  0.1085
  161BOLB   NC2 3853  17.330   4.130  22.268 -0.1648  0.2119 -0.3812
  161BOLB   PO2 3854  17.416   3.883  21.789 -0.1946  0.4550  0.2280
  161BOLB   GL3 3855  17.205   4.226  21.765 -0.0439  0.1488  0.0242
  161BOLB   GL4 3856  17.485   4.427  21.843 -0.3383 -0.3450  0.3242
  161BOLB   C1C 3857  17.085   4.589  21.625  0.0929 -0.0927 -0.2120
  161BOLB   C2C 3858  16.882   4.923  21.379 -0.2367 -0.2793 -0.1836
  161BOLB   C3C 3859  16.415   4.994  21.327  0.1321 -0.0464 -0.3616
  161BOLB   C4C 3860  15.951   4.911  21.234 -0.1122  0.1509 -0.1100
  161BOLB   C1D 3861  17.534   4.595  21.528  0.0971 -0.0533 -0.2149
  161BOLB   C2D 3862  17.424   4.680  21.146  0.0658 -0.1528 -0.2134
  161BOLB   C3D 3863  17.238   5.026  21.110 -0.0020 -0.3064  0.1350
  161BOLB   C4D 3864  17.105   5.488  21.181 -0.2683  0.0349  0.0696
  162BOLB   NC1 3865  15.959   8.888  20.959  0.0201  0.0210  0.2682
  162BOLB   PO1 3866  15.847   8.599  21.286  0.1371 -0.2587  0.3363
  162BOLB   GL1 3867  16.089   8.326  21.478 -0.1904  0.0017  0.2495
  162BOLB   GL2 3868  16.144   8.265  21.820 -0.0848  0.0675  0.1444
  162BOLB   C1A 3869  16.492   8.045  21.342  0.0373 -0.2816  0.0972
  162BOLB   C2A 3870  16.901   7.926  21.428  0.1036  0.1007 -0.0484
  162BOLB   C3A 3871  16.979   7.710  21.834  0.0612  0.1332 -0.2859
  162BOLB   C4A 3872  17.073   7.671  22.257  0.0408 -0.0241  0.1427
  162BOLB   C1B 3873  16.149   7.852  21.976 -0.2236 -0.1638 -0.1928
  162BOLB   C2B 3874  16.468   7.554  21.743 -0.2449  0.1245  0.0453
  162BOLB   C3B 3875  16.855   7.311  21.578 -0.0833  0.0353 -0.3214
  162BOLB   C4B 3876  17.289   7.257  21.664  0.4380 -0.3770  0.0361
  162BOLB   NC2 3877  17.850   6.142  24.442  0.2981  0.1819 -0.0294
  162BOLB   PO2 3878  17.702   5.995  24.059  0.0620 -0.0252 -0.1487
  162BOLB   GL3 3879  17.645   6.149  23.610 -0.2121  0.0944  0.3730
  162BOLB   GL4 3880  17.424   5.902  23.536 -0.0692  0.2001  0.5659
  162BOLB   C1C 3881  17.711   6.502  23.235 -0.1851 -0.0856  0.3048
  162BOLB   C2C 3882  17.601   6.830  22.972 -0.1918 -0.0550 -0.3169
  162BOLB   C3C 3883  17.433   7.131  22.850  0.3382  0.1709 -0.2807
  162BOLB   C4C 3884  17.364   7.427  22.506 -0.1175 -0.1301  0.0518
  162BOLB   C1D 3885  17.259   6.277  23.292  0.2647 -0.2140  0.1032
  162BOLB   C2D 3886  16.888   6.473  22.956  0.2736  0.0718  0.0288
  162BOLB   C3D 3887  16.603   6.752  22.655  0.3026  0.1038 -0.2774
  162BOLB   C4D 3888  16.472   6.784  22.162  0.1922 -0.2124  0.1236
  163BOLB   NC1 3889  19.916  10.429  19.477 -0.3078  0.0049  0.1166
  163BOLB   PO1 3890  20.263  10.298  19.895  0.0448  0.0327 -0.3498
  163BOLB   GL1 3891  20.496   9.928  19.983 -0.3015 -0.0681 -0.0299
  163BOLB   GL2 3892  20.427   9.685  19.855 -0.3281 -0.1270  0.0910
  163BOLB   C1A 3893  20.729   9.491  20.217 -0.4169  0.0329  0.0666
  163BOLB   C2A 3894  21.022   9.210  20.411 -0.2754 -0.2593  0.5089
  163BOLB   C3A 3895  21.028   9.007  20.759 -0.3717 -0.2148  0.0610
  163BOLB   C4A 3896  20.949   8.618  20.950 -0.2607  0.2131  0.2393
  163BOLB   C1B 3897  20.712   9.461  19.704 -0.1052 -0.1337  0.1911
  163BOLB   C2B 3898  20.982   9.160  19.916 -0.0253  0.0081  0.2662
  163BOLB   C3B 3899  21.353   8.894  19.927  0.0994  0.4250  0.1844
  163BOLB   C4B 3900  21.600   8.521  19.764 -0.0167 -0.2857 -0.3166
  163BOLB   NC2 3901  22.083   6.895  22.358  0.0831 -0.1587  0.2291
  163BOLB   PO2 3902  22.315   6.889  21.918 -0.0593  0.1101 -0.1059
  163BOLB   GL3 3903  22.443   7.285  21.696  0.1147 -0.0820 -0.2275
  163BOLB   GL4 3904  22.673   7.480  21.898 -0.0633  0.2300 -0.0823
  163BOLB   C1C 3905  22.137   7.467  21.500  0.2225 -0.3390 -0.1360
  163BOLB   C2C 3906  21.858   7.794  21.317 -0.0863  0.0953 -0.1971
  163BOLB   C3C 3907  21.534   8.093  21.237 -0.0412 -0.2548 -0.1947
  163BOLB   C4C 3908  21.257   8.267  20.953  0.2280 -0.4477  0.1375
  163BOLB   C1D 3909  22.631   7.971  22.053 -0.0417  0.0312 -0.1873
  163BOLB   C2D 3910  22.623   8.344  22.054  0.0301  0.3002 -0.2517
  163BOLB   C3D 3911  22.759   8.679  21.911 -0.2010  0.1910  0.1076
  163BOLB   C4D 3912  23.129   8.825  21.796  0.0014  0.0393 -0.4929
  164BOLB   NC1 3913  16.844   9.525  21.304 -0.1933  0.3435 -0.0605
  164BOLB   PO1 3914  16.918   9.276  20.956  0.0541 -0.3506 -0.1126
  164BOLB   GL1 3915  16.867   8.976  21.301  0.0719 -0.2630  0.0251
  164BOLB   GL2 3916  16.596   8.781  21.250 -0.1954  0.1397  0.0880
  164BOLB   C1A 3917  17.038   8.765  21.722 -0.0851  0.4924 -0.1049
  164BOLB   C2A 3918  17.198   8.515  22.103 -0.1046 -0.2300  0.1944
  164BOLB   C3A 3919  17.465   8.370  22.338  0.0622  0.0664 -0.4356
  164BOLB   C4A 3920  17.835   8.265  22.616  0.0943 -0.2284  0.3091
  164BOLB   C1B 3921  16.652   8.486  21.598 -0.0031  0.1934  0.0366
  164BOLB   C2B 3922  16.638   8.118  21.854 -0.1483  0.1553  0.2725
  164BOLB   C3B 3923  16.553   7.826  22.214  0.1567  0.1069 -0.0447
  164BOLB   C4B 3924  16.211   7.803  22.482 -0.0874  0.0794 -0.0136
  164BOLB   NC2 3925  19.817   6.604  23.517 -0.1274 -0.2090 -0.3414
  164BOLB   PO2 3926  19.815   6.995  23.316  0.0075  0.0838 -0.2749
  164BOLB   GL3 3927  19.666   7.327  23.258 -0.0887  0.0777  0.0720
  164BOLB   GL4 3928  19.762   7.640  23.243 -0.3311 -0.1793 -0.0784
  164BOLB   C1C 3929  19.259   7.598  23.296 -0.0005  0.0201 -0.0390
  164BOLB   C2C 3930  18.799   7.587  23.179 -0.2550  0.0789  0.2513
  164BOLB   C3C 3931  18.403   7.607  23.003 -0.2819 -0.0339 -0.0054
  164BOLB   C4C 3932  18.018   7.909  22.780 -0.3043  0.1484 -0.2276
  164BOLB   C1D 3933  19.840   7.968  22.912  0.0645  0.2821 -0.0048
  164BOLB   C2D 3934  19.922   8.200  22.542 -0.1137 -0.0115 -0.0151
  164BOLB   C3D 3935  19.758   8.569  22.470 -0.0043 -0.1397 -0.3560
  164BOLB   C4D 3936  19.511   8.920  22.499 -0.0174  0.2119 -0.2920
  165BOLB   NC1 3937  16.831   7.145  18.896 -0.3821  0.1508  0.2344
  165BOLB   PO1 3938  16.944   7.448  19.196  0.3086  0.0853  0.1146
  165BOLB   GL1 3939  17.234   7.066  19.217  0.1931  0.0023  0.0714
  165BOLB   GL2 3940  17.181   6.790  19.111 -0.1445  0.3704 -0.2638
  165BOLB   C1A 3941  17.572   6.967  19.502 -0.0306  0.5889 -0.0979
  165BOLB   C2A 3942  17.637   6.702  19.750  0.2302  0.2061 -0.0733
  165BOLB   C3A 3943  17.656   6.379  20.028  0.0936 -0.0477 -0.0946
  165BOLB   C4A 3944  17.872   6.142  20.370  0.0246  0.1432  0.0649
  165BOLB   C1B 3945  17.475   6.538  19.221 -0.2435  0.2456 -0.3238
  165BOLB   C2B 3946  17.646   6.200  18.970 -0.2099 -0.0929 -0.4481
  165BOLB   C3B 3947  18.028   6.109  19.000  0.2905 -0.0055  0.1120
  165BOLB   C4B 3948  18.125   5.784  19.175 -0.1147  0.0053 -0.1268
  165BOLB   NC2 3949  19.393   4.359  21.258 -0.3900  0.2073 -0.0169
  165BOLB   PO2 3950  19.525   4.589  20.816  0.1142 -0.0696 -0.0441
  165BOLB   GL3 3951  19.220   4.875  20.658  0.0308 -0.0962  0.0257
  165BOLB   GL4 3952  19.335   5.138  20.479  0.0096  0.0542  0.3579
  165BOLB   C1C 3953  18.771   4.891  20.526 -0.2268 -0.1692 -0.1752
  165BOLB   C2C 3954  18.420   5.165  20.669 -0.0622  0.0883  0.0468
  165BOLB   C3C 3955  18.349   5.552  20.738 -0.1745  0.2703 -0.2465
  165BOLB   C4C 3956  18.171   5.912  20.625  0.2217  0.2287 -0.2736
  165BOLB   C1D 3957  19.175   5.614  20.396  0.1689  0.1141  0.2637
  165BOLB   C2D 3958  19.179   6.090  20.464  0.1596  0.0434  0.1693
  165BOLB   C3D 3959  19.246   6.585  20.514  0.1005 -0.1755  0.0749
  165BOLB   C4D 3960  19.259   6.972  20.854  0.1846  0.4235  0.1266
  166BOLB   NC1 3961  13.869   8.836  21.782 -0.0197 -0.3303  0.0498
  166BOLB   PO1 3962  13.996   8.649  22.152  0.1166 -0.1467 -0.1979
  166BOLB   GL1 3963  14.171   8.318  22.444  0.2975  0.1725  0.0290
  166BOLB   GL2 3964  14.360   8.239  22.253  0.3723  0.1376 -0.0076
  166BOLB   C1A 3965  14.130   7.977  22.659 -0.2997  0.2536  0.0637
  166BOLB   C2A 3966  14.339   7.844  23.055  0.2133 -0.3202 -0.2220
  166BOLB   C3A 3967  14.517   7.830  23.459 -0.0679  0.0937 -0.0160
  166BOLB   C4A 3968  14.689   7.737  23.927  0.2213 -0.2526 -0.3124
  166BOLB   C1B 3969  14.622   8.144  22.643 -0.0656 -0.1984  0.1064
  166BOLB   C2B 3970  14.836   7.919  22.932 -0.1521  0.3509 -0.1913
  166BOLB   C3B 3971  15.010   7.958  23.385  0.3943 -0.1200  0.1209
  166BOLB   C4B 3972  15.227   7.732  23.660 -0.0259 -0.3094 -0.0006
  166BOLB   NC2 3973  16.072   6.315  25.714 -0.0165  0.1400  0.2229
  166BOLB   PO2 3974  15.838   6.621  25.650 -0.2226 -0.0301  0.0613
  166BOLB   GL3 3975  15.784   6.671  25.245 -0.1395 -0.0139  0.0980
  166BOLB   GL4 3976  15.897   6.955  24.990 -0.0178 -0.1787 -0.1881
  166BOLB   C1C 3977  15.422   6.875  24.994 -0.3086  0.2015 -0.1852
  166BOLB   C2C 3978  15.165   7.197  24.988 -0.2291 -0.2117 -0.3056
  166BOLB   C3C 3979  14.831   7.383  24.905  0.2116 -0.1816 -0.0994
  166BOLB   C4C 3980  14.755   7.627  24.427 -0.1388 -0.1143  0.4005
  166BOLB   C1D 3981  15.671   7.221  24.604  0.3225 -0.0375  0.0842
  166BOLB   C2D 3982  15.749   7.475  24.392 -0.0920 -0.0091  0.1386
  166BOLB   C3D 3983  15.740   7.799  24.325 -0.3322 -0.0754  0.1221
  166BOLB   C4D 3984  16.036   8.023  24.126 -0.3889  0.0253 -0.1658
  167BOLB   NC1 3985  18.836   9.574  19.686  0.1509 -0.0482 -0.0557
  167BOLB   PO1 3986  18.943   9.206  19.917  0.1169  0.0191 -0.2746
  167BOLB   GL1 3987  19.077   8.876  20.141 -0.4041 -0.0812 -0.0116
  167BOLB   GL2 3988  19.434   8.756  19.924  0.1556 -0.0503  0.0304
  167BOLB   C1A 3989  19.404   8.786  20.412  0.2462 -0.0126 -0.1569
  167BOLB   C2A 3990  19.785   8.553  20.353 -0.1830 -0.1407  0.0143
  167BOLB   C3A 3991  19.921   8.140  20.484  0.1252 -0.3926  0.1496
  167BOLB   C4A 3992  20.133   7.761  20.581 -0.0586  0.2238 -0.3267
  167BOLB   C1B 3993  19.646   8.421  19.886 -0.1741  0.4237  0.0074
  167BOLB   C2B 3994  19.951   8.201  19.994  0.1155 -0.2814  0.0511
  167BOLB   C3B 3995  20.254   7.920  20.118  0.2574 -0.2786  0.1893
  167BOLB   C4B 3996  20.533   7.576  19.967  0.1119 -0.1283 -0.1886
  167BOLB   NC2 3997  21.662   6.329  21.703 -0.1018 -0.2485 -0.4102
  167BOLB   PO2 3998  21.925   6.446  21.332 -0.0032  0.2493  0.1324
  167BOLB   GL3 3999  21.873   6.776  21.213  0.0260  0.0476  0.2617
  167BOLB   GL4 4000  21.979   6.950  21.439 -0.3834  0.3020  0.1303
  167BOLB   C1C 4001  21.560   6.986  20.925 -0.2218  0.1155  0.2643
  167BOLB   C2C 4002  21.204   6.915  20.715  0.0619  0.0069 -0.1004
  167BOLB   C3C 4003  20.794   7.052  20.661 -0.0460 -0.1554 -0.0554
  167BOLB   C4C 4004  20.486   7.403  20.535  0.3141  0.0076  0.0311
  167BOLB   C1D 4005  21.670   7.264  21.443 -0.2265 -0.1632 -0.0972
  167BOLB   C2D 4006  21.317   7.585  21.493  0.0390 -0.2558  0.0996
  167BOLB   C3D 4007  21.137   7.803  21.229  0.1286 -0.1744 -0.1497
  167BOLB   C4D 4008  20.800   8.093  21.060 -0.0426 -0.1621 -0.0728
  168BOLB   NC1 4009  14.492   6.914  20.767  0.0934  0.6674  0.2915
  168BOLB   PO1 4010  14.454   7.152  21.152  0.3927  0.0415 -0.3797
  168BOLB   GL1 4011  14.622   7.121  21.564 -0.4136  0.4611 -0.3266
  168BOLB   GL2 4012  14.466   6.893  21.807 -0.0865  0.1520 -0.0798
  168BOLB   C1A 4013  14.907   7.128  21.995 -0.0609  0.1547  0.0407
  168BOLB   C2A 4014  15.171   7.232  22.304  0.2566  0.0402  0.3098
  168BOLB   C3A 4015  15.512   7.091  22.517  0.3927  0.1701  0.0665
  168BOLB   C4A 4016  15.733   6.982  22.863  0.2988  0.0720  0.1510
  168BOLB   C1B 4017  14.439   7.098  22.214 -0.3373  0.0991 -0.0343
  168BOLB   C2B 4018  14.611   7.018  22.584  0.2822  0.0624 -0.2053
  168BOLB   C3B 4019  14.942   7.145  22.718  0.0352  0.0271  0.0688
  168BOLB   C4B 4020  15.212   6.956  22.872 -0.2048  0.0484  0.0458
  168BOLB   NC2 4021  16.491   5.799  24.320 -0.3137 -0.1827  0.0367
  168BOLB   PO2 4022  16.121   5.553  24.413 -0.0267 -0.0328 -0.1895
  168BOLB   GL3 4023  16.002   5.965  24.385  0.3077 -0.0192  0.0704
  168BOLB   GL4 4024  16.064   5.890  24.005  0.2378  0.0189  0.0633
  168BOLB   C1C 4025  15.876   6.406  24.138 -0.0291  0.0148  0.3000
  168BOLB   C2C 4026  16.027   6.739  23.867  0.0900  0.2866 -0.2018
  168BOLB   C3C 4027  15.909   7.055  23.682  0.0050  0.2815 -0.0067
  168BOLB   C4C 4028  15.604   7.035  23.312  0.0651  0.0177 -0.2582
  168BOLB   C1D 4029  16.261   6.197  23.636 -0.3579  0.0147 -0.2859
  168BOLB   C2D 4030  15.968   6.344  23.334  0.1622  0.4519 -0.2975
  168BOLB   C3D 4031  15.694   6.505  23.064  0.1725 -0.1532 -0.2203
  168BOLB   C4D 4032  15.609   6.559  22.597 -0.2570  0.1026  0.1178
  169BOLB   NC1 4033  16.864   7.940  17.588 -0.0411  0.3058 -0.0403
  169BOLB   PO1 4034  17.289   7.614  17.481  0.0711  0.1536 -0.0008
  169BOLB   GL1 4035  17.307   7.253  17.430  0.0187 -0.0005 -0.1752
  169BOLB   GL2 4036  17.149   6.952  17.418 -0.0477  0.1165  0.1557
  169BOLB   C1A 4037  17.616   6.904  17.343 -0.1031 -0.1482  0.0235
  169BOLB   C2A 4038  17.883   6.640  17.405 -0.3126  0.2355  0.1246
  169BOLB   C3A 4039  17.996   6.207  17.196  0.2723  0.0573  0.3043
  169BOLB   C4A 4040  18.214   6.004  16.954  0.0846  0.4350  0.0422
  169BOLB   C1B 4041  17.396   6.807  17.805  0.3135 -0.0973  0.2278
  169BOLB   C2B 4042  17.434   6.361  17.967 -0.0278 -0.0045  0.0473
  169BOLB   C3B 4043  17.845   6.037  17.959  0.0453  0.1766 -0.0038
  169BOLB   C4B 4044  18.247   6.175  18.035  0.0824  0.0966 -0.1310
  169BOLB   NC2 4045  19.376   4.199  16.263 -0.1006  0.1725  0.0963
  169BOLB   PO2 4046  19.707   4.269  16.656 -0.2554 -0.1041 -0.1903
  169BOLB   GL3 4047  19.426   4.570  16.698  0.1297 -0.2581  0.1730
  169BOLB   GL4 4048  19.044   4.617  16.619 -0.6270  0.0743  0.0494
  169BOLB   C1C 4049  19.368   4.922  16.924 -0.0505 -0.0067  0.1400
  169BOLB   C2C 4050  19.306   5.250  17.316 -0.1523  0.0838  0.3879
  169BOLB   C3C 4051  18.966   5.602  17.323 -0.0923 -0.1374 -0.0652
  169BOLB   C4C 4052  18.729   5.846  16.988 -0.0490 -0.1078  0.0999
  169BOLB   C1D 4053  19.037   5.185  16.639  0.0344 -0.1001 -0.0731
  169BOLB   C2D 4054  18.727   5.324  16.929 -0.2347 -0.1077  0.0852
  169BOLB   C3D 4055  18.316   5.154  16.979 -0.1562 -0.0959 -0.0239
  169BOLB   C4D 4056  17.991   5.074  16.717  0.2723  0.0220  0.3670
  170BOLB   NC1 4057  20.959  10.506  18.831 -0.0712  0.0927 -0.0265
  170BOLB   PO1 4058  21.295  10.239  18.644 -0.1702 -0.0049 -0.1867
  170BOLB   GL1 4059  21.400   9.867  18.526  0.2749 -0.0266 -0.0483
  170BOLB   GL2 4060  21.327   9.602  18.288  0.3490 -0.1324 -0.3003
  170BOLB   C1A 4061  21.634   9.488  18.653  0.0972  0.4127  0.0292
  170BOLB   C2A 4062  21.747   9.176  18.676  0.1057 -0.0824  0.0163
  170BOLB   C3A 4063  21.590   8.885  18.662  0.0727  0.2350  0.3663
  170BOLB   C4A 4064  21.663   8.494  18.761  0.1990  0.2247  0.1274
  170BOLB   C1B 4065  21.378   9.183  18.314 -0.0060  0.2728 -0.0982
  170BOLB   C2B 4066  21.403   8.801  18.135  0.0017 -0.4172 -0.0765
  170BOLB   C3B 4067  21.685   8.488  18.125  0.2438  0.3840  0.1274
  170BOLB   C4B 4068  22.028   8.228  18.053 -0.0616  0.0219  0.0441
  170BOLB   NC2 4069  22.859   6.245  19.720  0.2060  0.1173  0.0450
  170BOLB   PO2 4070  22.970   6.360  19.278  0.1855  0.0550  0.1811
  170BOLB   GL3 4071  22.643   6.702  19.356 -0.0596 -0.1731  0.2747
  170BOLB   GL4 4072  22.410   6.821  19.639 -0.0667 -0.2580  0.3933
  170BOLB   C1C 4073  22.544   7.189  19.198  0.0050  0.0617  0.0531
  170BOLB   C2C 4074  22.298   7.572  19.113  0.0380  0.1891  0.0383
  170BOLB   C3C 4075  21.867   7.764  19.176 -0.0518  0.0592  0.2056
  170BOLB   C4C 4076  21.680   8.089  18.919  0.2025  0.2202  0.1543
  170BOLB   C1D 4077  22.168   7.254  19.488  0.0320  0.2459 -0.2070
  170BOLB   C2D 4078  21.827   7.462  19.670  0.0445  0.3642  0.0874
  170BOLB   C3D 4079  21.708   7.879  19.833 -0.0934  0.1283 -0.1112
  170BOLB   C4D 4080  21.656   8.145  20.201  0.2302  0.2373  0.2039
  171BOLB   NC1 4081  18.364   8.493  18.506  0.3777  0.4028  0.1100
  171BOLB   PO1 4082  18.526   8.104  18.586  0.1128  0.1056  0.0836
  171BOLB   GL1 4083  18.522   7.796  18.823 -0.0698  0.1579  0.3034
  171BOLB   GL2 4084  18.674   7.674  19.088  0.0499  0.0405  0.1715
  171BOLB   C1A 4085  18.655   7.368  18.589 -0.2086 -0.3459 -0.0495
  171BOLB   C2A 4086  18.733   7.220  18.178 -0.1013  0.0313 -0.1349
  171BOLB   C3A 4087  19.074   7.213  17.957 -0.0493 -0.0166 -0.0119
  171BOLB   C4A 4088  19.293   6.973  17.611  0.0366 -0.0420 -0.0507
  171BOLB   C1B 4089  18.757   7.185  19.045  0.1677 -0.0126  0.0207
  171BOLB   C2B 4090  18.977   6.884  19.035 -0.1874 -0.1046 -0.3250
  171BOLB   C3B 4091  18.953   6.518  19.051 -0.0525 -0.0619 -0.1043
  171BOLB   C4B 4092  18.892   6.170  18.863 -0.1673  0.3631 -0.1018
  171BOLB   NC2 4093  20.360   4.757  17.484  0.1192 -0.2726 -0.0915
  171BOLB   PO2 4094  20.533   5.123  17.679 -0.2575 -0.0173 -0.4233
  171BOLB   GL3 4095  20.510   5.527  17.758 -0.0536  0.3443 -0.1871
  171BOLB   GL4 4096  20.229   5.458  17.899 -0.2032  0.4085  0.4203
  171BOLB   C1C 4097  20.433   5.937  17.619 -0.2821  0.2183  0.0400
  171BOLB   C2C 4098  20.458   6.369  17.424 -0.1770 -0.2000  0.2410
  171BOLB   C3C 4099  20.097   6.647  17.405  0.0576 -0.1857 -0.2224
  171BOLB   C4C 4100  19.647   6.799  17.318  0.1918  0.1540 -0.0334
  171BOLB   C1D 4101  20.009   5.635  17.503  0.2645  0.3247 -0.1935
  171BOLB   C2D 4102  19.687   5.758  17.191 -0.1174  0.0253 -0.3545
  171BOLB   C3D 4103  19.311   5.953  17.227  0.0399  0.0608  0.0917
  171BOLB   C4D 4104  18.919   6.093  17.401  0.2502 -0.2018  0.0346
  172BOLB   NC1 4105  14.900   5.244  18.907  0.0930  0.1714 -0.0319
  172BOLB   PO1 4106  14.567   5.527  18.836  0.1545 -0.0191  0.0536
  172BOLB   GL1 4107  14.958   5.713  18.669 -0.1312  0.1015  0.1048
  172BOLB   GL2 4108  15.225   5.669  18.920  0.4170  0.0028 -0.0899
  172BOLB   C1A 4109  15.374   5.804  18.435  0.0114  0.0404  0.4023
  172BOLB   C2A 4110  15.772   5.912  18.200  0.0846  0.1837  0.0311
  172BOLB   C3A 4111  16.203   5.681  18.156 -0.2714 -0.0745 -0.0614
  172BOLB   C4A 4112  16.567   5.458  18.208  0.0344  0.2834 -0.0243
  172BOLB   C1B 4113  15.527   5.404  18.918 -0.1505  0.0679 -0.1075
  172BOLB   C2B 4114  15.618   5.096  19.269  0.2693 -0.2191 -0.1849
  172BOLB   C3B 4115  15.574   4.924  19.708 -0.2831 -0.2226 -0.1454
  172BOLB   C4B 4116  15.957   4.876  19.987  0.0711 -0.3053 -0.1102
  172BOLB   NC2 4117  17.598   3.088  18.476 -0.0526 -0.4746 -0.0985
  172BOLB   PO2 4118  18.010   3.289  18.345  0.0849 -0.1157 -0.3470
  172BOLB   GL3 4119  17.635   3.566  18.383 -0.1651  0.1553 -0.2043
  172BOLB   GL4 4120  17.251   3.467  18.303  0.1087  0.0948 -0.0580
  172BOLB   C1C 4121  17.239   3.907  18.513  0.1879 -0.0188 -0.4093
  172BOLB   C2C 4122  17.163   4.432  18.462  0.0851 -0.0123 -0.3264
  172BOLB   C3C 4123  17.073   4.825  18.190  0.0999 -0.1613  0.1206
  172BOLB   C4C 4124  16.905   5.234  18.248 -0.1333 -0.3007 -0.0092
  172BOLB   C1D 4125  17.325   3.884  18.042  0.0413 -0.3112  0.1219
  172BOLB   C2D 4126  16.982   4.177  17.871 -0.0288  0.1074 -0.1297
  172BOLB   C3D 4127  16.708   4.538  17.932 -0.1059  0.1222  0.4672
  172BOLB   C4D 4128  16.725   4.999  17.847 -0.1839 -0.1455 -0.1871
  173BOLB   NC1 4129  14.702   4.355  21.199  0.0266 -0.4100 -0.1501
  173BOLB   PO1 4130  15.063   4.203  21.271  0.1678 -0.0812  0.1995
  173BOLB   GL1 4131  15.463   4.236  21.237  0.0595  0.1031 -0.2945
  173BOLB   GL2 4132  15.643   4.104  20.977  0.3039 -0.0453 -0.1161
  173BOLB   C1A 4133  15.688   4.433  21.455  0.1402 -0.0409  0.0418
  173BOLB   C2A 4134  15.653   4.814  21.751 -0.0317 -0.1584 -0.1290
  173BOLB   C3A 4135  15.245   4.799  21.989 -0.1991 -0.1217 -0.0360
  173BOLB   C4A 4136  15.036   5.217  22.246 -0.0890  0.0914  0.0653
  173BOLB   C1B 4137  15.881   4.221  20.625  0.0766  0.4401  0.0446
  173BOLB   C2B 4138  16.278   4.347  20.432 -0.1176  0.1659  0.0420
  173BOLB   C3B 4139  16.312   4.369  19.996  0.0743 -0.1506 -0.0907
  173BOLB   C4B 4140  16.609   4.584  19.747 -0.1710 -0.2034 -0.0222
  173BOLB   NC2 4141  15.899   5.085  24.262 -0.2978 -0.1136 -0.1378
  173BOLB   PO2 4142  15.862   5.236  24.687 -0.0960  0.1111  0.2434
  173BOLB   GL3 4143  15.555   5.493  24.472  0.0627 -0.2146 -0.1858
  173BOLB   GL4 4144  15.207   5.564  24.474  0.0399  0.0926 -0.0466
  173BOLB   C1C 4145  15.408   5.609  24.027 -0.3014  0.3543  0.0479
  173BOLB   C2C 4146  15.681   5.634  23.592  0.0865  0.0240 -0.3577
  173BOLB   C3C 4147  15.532   5.451  23.226 -0.0082  0.0685 -0.0102
  173BOLB   C4C 4148  15.186   5.429  22.771  0.1719 -0.0287  0.2825
  173BOLB   C1D 4149  15.015   5.975  24.556  0.2067  0.3988  0.0247
  173BOLB   C2D 4150  15.077   6.359  24.311 -0.2395 -0.0898  0.0223
  173BOLB   C3D 4151  15.328   6.544  24.027  0.1375 -0.0718  0.3250
  173BOLB   C4D 4152  15.585   6.607  23.636 -0.3398 -0.3973  0.0058
  174BOLB   NC1 4153  13.824   6.140  21.846  0.1071  0.0901 -0.3291
  174BOLB   PO1 4154  14.019   5.718  21.980 -0.0350  0.1467 -0.1978
  174BOLB   GL1 4155  14.430   5.666  22.204  0.1236  0.1796  0.1712
  174BOLB   GL2 4156  14.376   5.305  22.250 -0.0872 -0.0409  0.1228
  174BOLB   C1A 4157  14.703   5.856  22.576 -0.1890 -0.2598  0.2485
  174BOLB   C2A 4158  14.675   6.235  22.930 -0.2290 -0.2512 -0.1198
  174BOLB   C3A 4159  14.494   6.639  22.987 -0.0315  0.0363 -0.3053
  174BOLB   C4A 4160  14.660   7.053  23.279 -0.1027 -0.2802  0.1132
  174BOLB   C1B 4161  14.659   5.391  22.593 -0.0305  0.3059 -0.1116
  174BOLB   C2B 4162  14.780   5.182  22.985 -0.0790 -0.3735 -0.0267
  174BOLB   C3B 4163  14.860   5.439  23.435 -0.0581 -0.1211 -0.1919
  174BOLB   C4B 4164  15.186   5.766  23.576  0.3631  0.3322 -0.0517
  174BOLB   NC2 4165  15.389   6.524  25.531  0.0697  0.0423  0.0765
  174BOLB   PO2 4166  15.063   6.506  25.792 -0.1906  0.0168 -0.0221
  174BOLB   GL3 4167  14.869   6.589  25.419  0.2862 -0.1133 -0.0971
  174BOLB   GL4 4168  14.625   6.353  25.213  0.0673 -0.3271  0.1019
  174BOLB   C1C 4169  14.737   6.847  25.019 -0.0991  0.2721 -0.1789
  174BOLB   C2C 4170  14.683   7.056  24.620  0.1533 -0.3640  0.0919
  174BOLB   C3C 4171  14.727   7.290  24.123 -0.0584  0.1993 -0.0353
  174BOLB   C4C 4172  14.718   7.306  23.620  0.0669 -0.2616  0.1762
  174BOLB   C1D 4173  14.356   6.538  25.052  0.1388 -0.2593  0.0284
  174BOLB   C2D 4174  14.115   6.860  25.078 -0.2067 -0.3540  0.3524
  174BOLB   C3D 4175  14.246   7.308  24.871 -0.1454 -0.2126 -0.0241
  174BOLB   C4D 4176  14.263   7.630  24.433  0.0448  0.0423 -0.1389
  175BOLB   NC1 4177  14.534   7.585  20.951 -0.0837  0.1478  0.1271
  175BOLB   PO1 4178  14.857   7.142  20.879 -0.1024  0.3651 -0.2614
  175BOLB   GL1 4179  15.270   6.903  20.862 -0.0573 -0.1992 -0.2775
  175BOLB   GL2 4180  15.561   7.019  21.028  0.0809  0.2603 -0.0487
  175BOLB   C1A 4181  15.532   6.515  21.069 -0.1310 -0.3435 -0.1180
  175BOLB   C2A 4182  15.916   6.436  21.358  0.0784 -0.0413 -0.2110
  175BOLB   C3A 4183  15.964   6.193  21.827 -0.2393 -0.0244  0.1454
  175BOLB   C4A 4184  16.153   6.318  22.252  0.0652 -0.1137 -0.1921
  175BOLB   C1B 4185  15.792   6.889  21.471 -0.0720 -0.3146  0.2371
  175BOLB   C2B 4186  15.930   6.759  21.874  0.1440  0.1142  0.0693
  175BOLB   C3B 4187  15.504   6.650  22.153  0.0552 -0.1355 -0.0384
  175BOLB   C4B 4188  15.166   6.744  22.431 -0.2848  0.0470 -0.2555
  175BOLB   NC2 4189  17.854   4.367  23.458  0.1334  0.0887  0.1787
  175BOLB   PO2 4190  17.611   4.847  23.461  0.0827  0.1894  0.0073
  175BOLB   GL3 4191  17.548   5.300  23.217 -0.1317 -0.2729 -0.4092
  175BOLB   GL4 4192  17.691   5.588  23.226 -0.3241  0.1427 -0.0034
  175BOLB   C1C 4193  17.189   5.575  23.184  0.0263 -0.2023  0.3036
  175BOLB   C2C 4194  16.996   5.911  22.972  0.2356 -0.1190  0.0868
  175BOLB   C3C 4195  16.674   6.053  22.777 -0.3555  0.2176  0.1434
  175BOLB   C4C 4196  16.406   6.290  22.644  0.2517 -0.0054 -0.0783
  175BOLB   C1D 4197  17.551   6.009  23.002  0.3534  0.0306  0.0215
  175BOLB   C2D 4198  17.407   6.336  22.751  0.2970 -0.1564 -0.1166
  175BOLB   C3D 4199  17.200   6.628  22.601  0.1423 -0.1512 -0.4068
  175BOLB   C4D 4200  17.017   7.078  22.627 -0.3100 -0.0303 -0.1067
  176BOLB   NC1 4201  14.998   5.855  17.109  0.0624 -0.3512 -0.1446
  176BOLB   PO1 4202  15.046   5.485  17.411  0.2904 -0.3915 -0.0243
  176BOLB   GL1 4203  15.458   5.612  17.541  0.0076  0.1203 -0.0449
  176BOLB   GL2 4204  15.434   5.644  17.969  0.0490  0.2204  0.1587
  176BOLB   C1A 4205  15.856   5.627  17.633  0.0745 -0.0496 -0.1883
  176BOLB   C2A 4206  16.305   5.645  17.644  0.0643  0.0264 -0.0611
  176BOLB   C3A 4207  16.706   5.540  17.731 -0.1537  0.0637 -0.3010
  176BOLB   C4A 4208  17.145   5.426  17.853 -0.0798  0.0023  0.1552
  176BOLB   C1B 4209  15.705   5.389  18.253 -0.1206 -0.4502  0.1024
  176BOLB   C2B 4210  16.009   5.286  18.500  0.0672 -0.0742 -0.1230
  176BOLB   C3B 4211  16.418   5.187  18.659  0.1484  0.1899 -0.2808
  176BOLB   C4B 4212  16.780   4.959  18.659 -0.0437 -0.1116 -0.3605
  176BOLB   NC2 4213  18.613   3.707  18.590  0.1071 -0.0305 -0.2190
  176BOLB   PO2 4214  18.271   3.701  18.592  0.2162 -0.1295 -0.2735
  176BOLB   GL3 4215  18.214   3.996  18.305  0.1985  0.1904 -0.0627
  176BOLB   GL4 4216  18.464   4.178  18.124 -0.0361  0.4639  0.3167
  176BOLB   C1C 4217  18.164   4.495  18.503 -0.0099 -0.2397 -0.2833
  176BOLB   C2C 4218  18.056   4.901  18.313  0.0613  0.0228  0.3602
  176BOLB   C3C 4219  17.705   5.010  18.214 -0.1487  0.2735 -0.2565
  176BOLB   C4C 4220  17.339   5.126  17.933  0.0535  0.0497 -0.0167
  176BOLB   C1D 4221  18.142   4.291  17.875 -0.0872  0.0381 -0.0346
  176BOLB   C2D 4222  17.758   4.106  17.774  0.0417 -0.0215  0.0049
  176BOLB   C3D 4223  17.429   3.867  17.570 -0.2123 -0.0942 -0.2354
  176BOLB   C4D 4224  17.258   3.747  17.209 -0.1482  0.1234 -0.3773
  177BOLB   NC1 4225  19.697   9.972  20.467 -0.1375  0.1617 -0.1512
  177BOLB   PO1 4226  19.383   9.656  20.520  0.0888  0.1450 -0.2008
  177BOLB   GL1 4227  19.793   9.439  20.552 -0.0716  0.0315 -0.3353
  177BOLB   GL2 4228  19.819   9.233  20.222 -0.1231  0.1543  0.3299
  177BOLB   C1A 4229  20.067   9.263  20.822  0.4344 -0.2023  0.0116
  177BOLB   C2A 4230  20.006   8.939  21.208 -0.0645 -0.1561  0.1179
  177BOLB   C3A 4231  20.046   8.471  21.405  0.1269  0.1529  0.0534
  177BOLB   C4A 4232  19.899   8.075  21.473 -0.1705  0.0994 -0.0136
  177BOLB   C1B 4233  20.139   8.879  20.415 -0.5878  0.1307  0.0476
  177BOLB   C2B 4234  20.310   8.807  20.861 -0.2412 -0.1501  0.0584
  177BOLB   C3B 4235  20.496   8.519  21.090  0.0582 -0.0911  0.1801
  177BOLB   C4B 4236  20.558   8.223  21.448  0.1150 -0.0543 -0.3575
  177BOLB   NC2 4237  20.117   5.603  21.936  0.2048  0.3187  0.0074
  177BOLB   PO2 4238  20.045   5.897  21.697  0.0592  0.1814 -0.1951
  177BOLB   GL3 4239  20.001   6.141  21.340 -0.1671 -0.0346  0.1654
  177BOLB   GL4 4240  19.898   5.955  21.032 -0.1998  0.0528  0.3054
  177BOLB   C1C 4241  20.124   6.458  21.205  0.1747  0.1404  0.2839
  177BOLB   C2C 4242  20.188   6.811  21.222 -0.0502 -0.0317  0.1979
  177BOLB   C3C 4243  20.039   7.223  21.358  0.1462 -0.1438 -0.0858
  177BOLB   C4C 4244  19.887   7.672  21.407  0.1822 -0.1049 -0.1471
  177BOLB   C1D 4245  19.563   6.312  21.008 -0.0269 -0.0713 -0.1288
  177BOLB   C2D 4246  19.697   6.722  21.184 -0.1103 -0.4195  0.0521
  177BOLB   C3D 4247  19.567   7.113  21.240 -0.2652  0.3120  0.0333
  177BOLB   C4D 4248  19.393   7.497  21.415 -0.2046 -0.2115 -0.2658
  178BOLB   NC1 4249  16.811   8.496  20.394  0.0780  0.2124  0.0023
  178BOLB   PO1 4250  16.882   8.017  20.301 -0.2328  0.0555  0.1817
  178BOLB   GL1 4251  17.242   7.770  20.404  0.1873 -0.1069  0.3248
  178BOLB   GL2 4252  17.321   7.747  20.069  0.0473 -0.3123  0.1477
  178BOLB   C1A 4253  17.600   7.556  20.774 -0.0191  0.0328 -0.1377
  178BOLB   C2A 4254  17.845   7.261  20.967 -0.1709  0.1591  0.1163
  178BOLB   C3A 4255  18.036   7.066  21.286 -0.1899 -0.0269  0.1055
  178BOLB   C4A 4256  18.393   6.787  21.462  0.2605  0.0562 -0.2431
  178BOLB   C1B 4257  17.650   7.461  20.232  0.1083  0.1525 -0.2482
  178BOLB   C2B 4258  17.916   7.072  20.000  0.4819  0.2427 -0.2744
  178BOLB   C3B 4259  18.150   6.664  19.920  0.0057 -0.2386 -0.0955
  178BOLB   C4B 4260  18.524   6.432  19.684  0.0419  0.1369  0.1758
  178BOLB   NC2 4261  18.567   4.099  20.997  0.2094 -0.2196 -0.1182
  178BOLB   PO2 4262  18.930   4.307  21.239 -0.1512 -0.3199 -0.2269
  178BOLB   GL3 4263  18.749   4.652  21.055 -0.1559  0.0698  0.1199
  178BOLB   GL4 4264  18.525   4.686  20.906  0.1287 -0.0084  0.1168
  178BOLB   C1C 4265  18.745   5.164  21.222 -0.5109 -0.3394  0.0345
  178BOLB   C2C 4266  18.637   5.539  21.322  0.1808 -0.3110 -0.2279
  178BOLB   C3C 4267  18.639   5.983  21.158  0.0676  0.1831  0.0643
  178BOLB   C4C 4268  18.622   6.423  21.287  0.1097  0.2238 -0.0918
  178BOLB   C1D 4269  18.244   4.679  20.473 -0.0007 -0.0252 -0.2025
  178BOLB   C2D 4270  17.911   4.972  20.405 -0.1171 -0.1934 -0.2275
  178BOLB   C3D 4271  17.543   5.181  20.225  0.0054  0.2431  0.2290
  178BOLB   C4D 4272  17.220   5.433  20.214  0.1541 -0.0180 -0.0758
  179BOLB   NC1 4273  14.164   4.580  24.382  0.0745 -0.0246 -0.2187
  179BOLB   PO1 4274  14.410   4.970  24.316 -0.2404 -0.2408 -0.3304
  179BOLB   GL1 4275  14.574   5.275  24.006 -0.0353  0.2188  0.0989
  179BOLB   GL2 4276  14.679   5.093  23.799 -0.0256  0.0098 -0.3507
  179BOLB   C1A 4277  14.901   5.527  23.961  0.1071  0.3036 -0.3836
  179BOLB   C2A 4278  14.977   5.908  24.024  0.2399 -0.0426  0.0190
  179BOLB   C3A 4279  14.699   6.234  24.028  0.1993 -0.0993 -0.3236
  179BOLB   C4A 4280  14.329   6.329  24.070  0.2409 -0.1727 -0.0879
  179BOLB   C1B 4281  14.346   5.359  23.598 -0.1958  0.2875  0.2748
  179BOLB   C2B 4282  14.182   5.781  23.448 -0.0549 -0.1491 -0.1766
  179BOLB   C3B 4283  14.016   6.072  23.666 -0.1637 -0.3670  0.3047
  179BOLB   C4B 4284  13.855   6.161  24.065  0.0080  0.0365 -0.1772
  179BOLB   NC2 4285  13.588   5.493  24.994 -0.1089 -0.0332  0.1561
  179BOLB   PO2 4286  13.601   5.513  24.511 -0.2850  0.0535 -0.1104
  179BOLB   GL3 4287  13.602   5.688  24.189 -0.0017  0.2233  0.0083
  179BOLB   GL4 4288  13.671   5.387  23.949  0.0055 -0.1281 -0.2152
  179BOLB   C1C 4289  13.365   6.051  24.004  0.0836  0.0860 -0.0987
  179BOLB   C2C 4290  13.587   6.335  23.642 -0.4684  0.3247  0.0538
  179BOLB   C3C 4291  13.841   6.601  23.798  0.2089 -0.0811  0.4316
  179BOLB   C4C 4292  14.072   6.642  24.160  0.0629 -0.3207 -0.0433
  179BOLB   C1D 4293  13.683   5.701  23.662  0.1262  0.0127 -0.0439
  179BOLB   C2D 4294  13.772   6.047  23.221 -0.2584  0.2722 -0.1112
  179BOLB   C3D 4295  13.931   6.420  23.188  0.1348  0.2019 -0.0115
  179BOLB   C4D 4296  14.176   6.779  23.350  0.1281 -0.0523  0.2185
  180BOLB   NC1 4297  18.472   9.854  20.769 -0.0568  0.1889  0.1272
  180BOLB   PO1 4298  18.495   9.415  20.741 -0.4214  0.1445  0.0673
  180BOLB   GL1 4299  18.605   9.041  20.580  0.2136  0.0920  0.1794
  180BOLB   GL2 4300  18.548   8.776  20.847  0.0384 -0.1099 -0.2085
  180BOLB   C1A 4301  18.753   8.639  20.401  0.0862 -0.0751 -0.1077
  180BOLB   C2A 4302  18.773   8.257  20.486 -0.0010 -0.0295  0.0023
  180BOLB   C3A 4303  18.952   7.946  20.667  0.2000 -0.2282  0.1473
  180BOLB   C4A 4304  19.419   7.875  20.666  0.1007  0.2979 -0.0393
  180BOLB   C1B 4305  18.602   8.438  21.039  0.1708  0.1264  0.4916
  180BOLB   C2B 4306  18.675   8.047  21.109  0.0453 -0.1120  0.1460
  180BOLB   C3B 4307  18.850   7.769  21.356  0.2251  0.3070  0.0454
  180BOLB   C4B 4308  18.883   7.570  21.739  0.1816  0.0565 -0.1059
  180BOLB   NC2 4309  21.245   6.020  21.082 -0.0240  0.1335 -0.1949
  180BOLB   PO2 4310  21.068   6.288  20.780  0.0866  0.1650 -0.0038
  180BOLB   GL3 4311  20.915   6.655  21.066  0.0115  0.0856 -0.0454
  180BOLB   GL4 4312  20.647   6.573  21.006  0.0326 -0.0420  0.0385
  180BOLB   C1C 4313  20.716   7.029  21.307  0.0326 -0.2119  0.0389
  180BOLB   C2C 4314  20.413   7.291  21.073  0.0122 -0.2187 -0.2968
  180BOLB   C3C 4315  20.002   7.228  20.817  0.2994  0.0710  0.2070
  180BOLB   C4C 4316  19.625   7.493  20.842 -0.1514 -0.2570 -0.1376
  180BOLB   C1D 4317  20.374   6.829  20.769  0.1353 -0.0060  0.0984
  180BOLB   C2D 4318  20.073   6.884  20.406  0.2442 -0.1654  0.0677
  180BOLB   C3D 4319  19.765   6.815  20.103 -0.1366 -0.0118  0.0697
  180BOLB   C4D 4320  19.699   6.975  19.757  0.3126  0.1632 -0.3171
  181BOLB   NC1 4321  14.102   5.019  21.399  0.2784  0.0120 -0.1958
  181BOLB   PO1 4322  14.462   4.686  21.530 -0.0636 -0.0556 -0.0355
  181BOLB   GL1 4323  14.740   4.994  21.527  0.1743 -0.3043 -0.0770
  181BOLB   GL2 4324  14.704   5.192  21.826  0.2938  0.4377  0.0674
  181BOLB   C1A 4325  15.138   5.050  21.435  0.2463  0.5955  0.1549
  181BOLB   C2A 4326  15.438   4.807  21.148 -0.2163 -0.1390  0.0569
  181BOLB   C3A 4327  15.652   4.660  20.769 -0.0120  0.2199 -0.0913
  181BOLB   C4A 4328  16.007   4.838  20.467 -0.0545 -0.0787 -0.1932
  181BOLB   C1B 4329  14.849   5.580  21.987  0.5370 -0.1847  0.1424
  181BOLB   C2B 4330  15.058   5.729  22.271  0.2904  0.4018  0.1036
  181BOLB   C3B 4331  15.460   5.590  22.345  0.4161  0.2929 -0.3351
  181BOLB   C4B 4332  15.743   5.648  22.705 -0.2494 -0.1451  0.0777
  181BOLB   NC2 4333  17.520   3.157  19.455  0.1955  0.1603 -0.1935
  181BOLB   PO2 4334  17.455   3.453  19.804  0.1338 -0.0655 -0.0323
  181BOLB   GL3 4335  17.329   3.795  19.948  0.1532  0.2702 -0.1717
  181BOLB   GL4 4336  17.563   3.924  19.712 -0.2484  0.1691 -0.0780
  181BOLB   C1C 4337  17.131   4.095  20.134  0.3197 -0.0825  0.0832
  181BOLB   C2C 4338  16.929   4.468  20.083 -0.2328 -0.1528  0.2532
  181BOLB   C3C 4339  16.716   4.621  20.385 -0.0234  0.2679  0.3468
  181BOLB   C4C 4340  16.321   4.834  20.415 -0.2561 -0.0955  0.4473
  181BOLB   C1D 4341  17.552   4.082  19.399  0.1501 -0.0812 -0.0358
  181BOLB   C2D 4342  17.543   4.448  19.271  0.1097  0.0044 -0.0283
  181BOLB   C3D 4343  17.607   4.905  19.236  0.2191 -0.0646 -0.2930
  181BOLB   C4D 4344  17.368   5.211  19.128 -0.0035  0.1029 -0.2162
  182BOLB   NC1 4345  11.188   6.048  24.074 -0.0073  0.1755  0.2873
  182BOLB   PO1 4346  10.910   6.353  24.330 -0.1233  0.3463 -0.0066
  182BOLB   GL1 4347  11.160   6.689  24.503 -0.1251 -0.1720  0.1186
  182BOLB   GL2 4348  11.383   6.541  24.134  0.1544  0.0061  0.1887
  182BOLB   C1A 4349  11.384   7.015  24.657 -0.0152  0.0763 -0.0338
  182BOLB   C2A 4350  11.441   7.448  24.679  0.0039  0.0431 -0.5162
  182BOLB   C3A 4351  11.532   7.713  24.852  0.1126 -0.1355  0.2743
  182BOLB   C4A 4352  11.925   7.874  25.076 -0.3103 -0.2763  0.1720
  182BOLB   C1B 4353  11.475   6.885  24.018 -0.1121 -0.0730 -0.0672
  182BOLB   C2B 4354  11.203   7.191  24.122  0.3242  0.2566 -0.2327
  182BOLB   C3B 4355  10.990   7.443  23.969 -0.0432  0.0615 -0.1057
  182BOLB   C4B 4356  10.797   7.901  24.107 -0.0996 -0.0643 -0.3869
  182BOLB   NC2 4357  12.325   5.939  24.041 -0.0980 -0.4411  0.2098
  182BOLB   PO2 4358  12.158   5.968  24.472  0.4300  0.0735 -0.0995
  182BOLB   GL3 4359  12.269   6.382  24.647  0.1085  0.3018  0.2840
  182BOLB   GL4 4360  12.604   6.469  24.756 -0.0090  0.0056  0.0112
  182BOLB   C1C 4361  12.254   6.711  25.042 -0.1070  0.2155 -0.1436
  182BOLB   C2C 4362  12.270   7.009  25.306  0.0980  0.1757  0.1279
  182BOLB   C3C 4363  12.379   7.394  25.337 -0.1189  0.0985 -0.1181
  182BOLB   C4C 4364  12.307   7.724  25.272  0.0356 -0.0915 -0.1332
  182BOLB   C1D 4365  12.857   6.759  24.559 -0.0580  0.3007 -0.2559
  182BOLB   C2D 4366  12.978   6.799  24.121 -0.0280 -0.1804  0.0655
  182BOLB   C3D 4367  13.368   6.610  24.056  0.1497 -0.1065 -0.1809
  182BOLB   C4D 4368  13.657   6.443  24.387  0.0991 -0.4227  0.1222
  183BOLB   NC1 4369  12.860   7.262  22.672 -0.2296  0.3407  0.2572
  183BOLB   PO1 4370  12.740   7.676  22.678 -0.0153 -0.4091  0.2121
  183BOLB   GL1 4371  12.814   7.628  23.042 -0.0970  0.1027 -0.4201
  183BOLB   GL2 4372  12.591   7.883  23.159  0.0142  0.3257 -0.2330
  183BOLB   C1A 4373  12.988   7.420  23.461 -0.0240 -0.0044 -0.1973
  183BOLB   C2A 4374  12.892   7.092  23.660 -0.0269 -0.0221 -0.0192
  183BOLB   C3A 4375  12.460   7.093  23.665  0.4434  0.4068  0.0343
  183BOLB   C4A 4376  11.894   7.134  23.815  0.1920  0.2331 -0.0769
  183BOLB   C1B 4377  12.766   7.994  23.551 -0.4996  0.0092 -0.3024
  183BOLB   C2B 4378  12.595   7.632  23.777 -0.1473  0.0793  0.0473
  183BOLB   C3B 4379  12.258   7.467  23.985 -0.5668 -0.0121 -0.0989
  183BOLB   C4B 4380  12.316   7.020  24.098  0.1908 -0.1849  0.0466
  183BOLB   NC2 4381  12.070   6.545  26.408  0.0551  0.0381  0.2869
  183BOLB   PO2 4382  12.091   6.565  25.976 -0.3913  0.0501 -0.0097
  183BOLB   GL3 4383  12.072   7.046  25.835 -0.2112 -0.2115  0.1623
  183BOLB   GL4 4384  12.161   7.301  26.029 -0.0552  0.1388 -0.0151
  183BOLB   C1C 4385  11.941   7.403  25.457 -0.1282  0.1443  0.2690
  183BOLB   C2C 4386  11.977   7.388  25.002 -0.0697 -0.0118 -0.0555
  183BOLB   C3C 4387  11.918   7.245  24.581 -0.2327 -0.2889 -0.2116
  183BOLB   C4C 4388  11.834   7.157  24.241 -0.0252  0.0728 -0.2048
  183BOLB   C1D 4389  12.553   7.290  25.811  0.0719  0.0465  0.1054
  183BOLB   C2D 4390  12.847   7.136  25.616 -0.1583 -0.0626  0.2600
  183BOLB   C3D 4391  13.114   7.173  25.300  0.2310  0.0374 -0.0082
  183BOLB   C4D 4392  13.223   6.980  24.894  0.0398  0.0891  0.0361
  184BOLB   NC1 4393  13.847   5.912  21.078 -0.0347  0.0342 -0.2610
  184BOLB   PO1 4394  13.974   5.838  21.448  0.0787 -0.0770  0.2254
  184BOLB   GL1 4395  14.357   5.938  21.742  0.3377  0.3676  0.1795
  184BOLB   GL2 4396  14.659   5.922  21.550 -0.2882 -0.0973  0.6375
  184BOLB   C1A 4397  14.673   6.124  22.119  0.1563  0.0276  0.0446
  184BOLB   C2A 4398  14.975   6.248  22.422 -0.1568  0.0666 -0.2735
  184BOLB   C3A 4399  15.093   6.439  22.843 -0.1477  0.1881 -0.1949
  184BOLB   C4A 4400  15.243   6.620  23.262 -0.1069 -0.0160 -0.0046
  184BOLB   C1B 4401  15.016   6.013  21.721 -0.0868  0.1151 -0.3536
  184BOLB   C2B 4402  15.322   5.945  21.932 -0.4257 -0.1409 -0.0441
  184BOLB   C3B 4403  15.733   5.727  21.813  0.2108  0.0906 -0.2706
  184BOLB   C4B 4404  16.118   5.583  21.723  0.1356 -0.0571 -0.0173
  184BOLB   NC2 4405  14.416   5.500  25.152 -0.0303  0.1410  0.0187
  184BOLB   PO2 4406  14.889   5.707  25.308 -0.2511  0.3350 -0.2400
  184BOLB   GL3 4407  14.961   6.044  25.035 -0.1623  0.0872 -0.4286
  184BOLB   GL4 4408  15.104   6.239  25.182 -0.1837  0.1184 -0.2307
  184BOLB   C1C 4409  14.656   6.299  24.695  0.0259  0.0104  0.0328
  184BOLB   C2C 4410  14.578   6.585  24.397 -0.2443  0.3478 -0.3081
  184BOLB   C3C 4411  14.874   6.801  24.088 -0.0754  0.0724 -0.2333
  184BOLB   C4C 4412  15.019   6.774  23.674  0.1832 -0.0464 -0.4068
  184BOLB   C1D 4413  15.179   6.493  24.909 -0.1070  0.2342  0.1217
  184BOLB   C2D 4414  15.154   6.875  24.570 -0.1096 -0.0451  0.0429
  184BOLB   C3D 4415  15.179   7.272  24.399 -0.1556  0.1675  0.1804
  184BOLB   C4D 4416  15.168   7.612  24.153  0.1223  0.3115 -0.0075
  185BOLB   NC1 4417  16.442   7.521  19.130  0.0900  0.2229  0.1849
  185BOLB   PO1 4418  16.211   7.256  19.433  0.0259  0.1506 -0.1480
  185BOLB   GL1 4419  16.386   6.869  19.566  0.2481 -0.0813 -0.1490
  185BOLB   GL2 4420  16.736   6.969  19.443  0.2095  0.3377  0.0948
  185BOLB   C1A 4421  16.651   6.576  19.697  0.4555  0.3947  0.0705
  185BOLB   C2A 4422  16.774   6.174  19.887 -0.2296 -0.0047 -0.1330
  185BOLB   C3A 4423  16.962   6.094  20.357 -0.2609 -0.0088 -0.1436
  185BOLB   C4A 4424  17.022   5.645  20.687 -0.0146 -0.0016  0.0010
  185BOLB   C1B 4425  17.136   6.785  19.632 -0.1134 -0.0423 -0.1279
  185BOLB   C2B 4426  17.193   6.339  19.892 -0.0676 -0.1607 -0.1081
  185BOLB   C3B 4427  17.293   6.023  19.990  0.1511  0.1688  0.0330
  185BOLB   C4B 4428  17.717   5.754  20.127  0.0130  0.0626  0.0175
  185BOLB   NC2 4429  18.392   3.482  21.621 -0.0782  0.1016 -0.2228
  185BOLB   PO2 4430  18.275   3.622  21.171 -0.2359 -0.1784 -0.0061
  185BOLB   GL3 4431  18.021   4.090  21.190 -0.1310 -0.1343 -0.0090
  185BOLB   GL4 4432  17.947   4.253  21.581  0.1280 -0.1568 -0.2632
  185BOLB   C1C 4433  17.915   4.439  21.080  0.0373  0.1901 -0.0170
  185BOLB   C2C 4434  17.917   4.743  20.898 -0.1332  0.0105 -0.1698
  185BOLB   C3C 4435  17.665   5.028  20.821  0.1273 -0.0322 -0.2976
  185BOLB   C4C 4436  17.338   5.301  20.713  0.1164 -0.1322  0.5100
  185BOLB   C1D 4437  18.033   4.770  21.541 -0.1463 -0.1714 -0.3755
  185BOLB   C2D 4438  17.759   4.961  21.354 -0.0150  0.0692 -0.2589
  185BOLB   C3D 4439  17.580   5.320  21.465  0.0626  0.0484  0.0294
  185BOLB   C4D 4440  17.392   5.743  21.507 -0.3392  0.2314  0.1514
  186BOLB   NC1 4441  14.104   5.597  20.006  0.0452  0.1174  0.1484
  186BOLB   PO1 4442  14.286   5.684  20.458 -0.3238 -0.1361  0.0080
  186BOLB   GL1 4443  14.508   5.452  20.795 -0.2379  0.0685 -0.3842
  186BOLB   GL2 4444  14.825   5.250  20.559  0.1330 -0.1885 -0.0675
  186BOLB   C1A 4445  14.772   5.495  21.167  0.2153  0.1751 -0.2188
  186BOLB   C2A 4446  15.057   5.541  21.515  0.1655 -0.0732 -0.1610
  186BOLB   C3A 4447  15.360   5.368  21.763 -0.1504 -0.0867  0.0078
  186BOLB   C4A 4448  15.687   5.241  22.039 -0.0072 -0.0380  0.0085
  186BOLB   C1B 4449  15.019   5.123  20.137 -0.0241 -0.1338 -0.0254
  186BOLB   C2B 4450  15.375   5.407  19.965  0.0895 -0.4291 -0.1153
  186BOLB   C3B 4451  15.714   5.478  19.685  0.1929 -0.0087 -0.0147
  186BOLB   C4B 4452  16.065   5.331  19.618  0.2153 -0.1618 -0.1287
  186BOLB   NC2 4453  17.695   4.541  22.840  0.0337  0.0609 -0.0906
  186BOLB   PO2 4454  17.359   4.374  22.870  0.1750 -0.2446 -0.2868
  186BOLB   GL3 4455  17.151   4.634  23.058  0.0394  0.2669 -0.0758
  186BOLB   GL4 4456  17.336   4.922  22.866 -0.2110 -0.2867  0.3560
  186BOLB   C1C 4457  16.807   4.932  23.052 -0.0117 -0.0121 -0.0871
  186BOLB   C2C 4458  16.456   5.204  22.916  0.2417  0.0854 -0.1179
  186BOLB   C3C 4459  16.099   5.209  22.763  0.3699 -0.0316  0.2370
  186BOLB   C4C 4460  15.913   5.159  22.367  0.1458  0.2096  0.2449
  186BOLB   C1D 4461  17.198   5.218  22.760 -0.2084  0.0830  0.2130
  186BOLB   C2D 4462  16.963   5.494  22.722 -0.2341 -0.1796  0.2860
  186BOLB   C3D 4463  16.578   5.554  22.561 -0.0389  0.3556 -0.0231
  186BOLB   C4D 4464  16.282   5.671  22.684 -0.0213 -0.0824  0.2051
  187BOLB   NC1 4465  15.407   7.905  20.627  0.2280 -0.3779 -0.2815
  187BOLB   PO1 4466  15.351   7.539  20.352  0.2783  0.0295 -0.1672
  187BOLB   GL1 4467  15.682   7.218  20.496 -0.1768  0.0093 -0.3932
  187BOLB   GL2 4468  15.629   7.031  20.301  0.0670 -0.1785 -0.1460
  187BOLB   C1A 4469  15.898   7.106  20.721  0.1753  0.2984  0.2675
  187BOLB   C2A 4470  16.065   6.929  21.065  0.0017 -0.1000  0.3825
  187BOLB   C3A 4471  16.336   6.538  21.163  0.0819  0.1396  0.1142
  187BOLB   C4A 4472  16.763   6.425  21.361 -0.3877 -0.3351 -0.2483
  187BOLB   C1B 4473  15.746   6.634  20.198 -0.2163 -0.1817  0.0111
  187BOLB   C2B 4474  15.666   6.190  20.140  0.2443  0.0138 -0.0934
  187BOLB   C3B 4475  16.022   5.836  20.206  0.1125  0.0146  0.2191
  187BOLB   C4B 4476  16.450   5.848  20.397  0.0214 -0.2871  0.0027
  187BOLB   NC2 4477  18.692   5.298  22.596  0.1731 -0.1111 -0.2530
  187BOLB   PO2 4478  18.714   5.773  22.578  0.0444 -0.0236 -0.4228
  187BOLB   GL3 4479  18.435   5.891  22.273  0.1112  0.1312 -0.0354
  187BOLB   GL4 4480  18.257   6.125  22.414  0.1318  0.0776  0.0312
  187BOLB   C1C 4481  18.099   5.832  21.948 -0.0719 -0.5334  0.1025
  187BOLB   C2C 4482  17.840   5.965  21.815  0.0973 -0.0174  0.2042
  187BOLB   C3C 4483  17.433   6.183  21.727  0.3308  0.0778  0.1687
  187BOLB   C4C 4484  17.072   6.347  21.503 -0.2505  0.4061 -0.2960
  187BOLB   C1D 4485  18.031   6.336  22.237 -0.0271 -0.2008  0.2324
  187BOLB   C2D 4486  17.693   6.519  21.953 -0.0177 -0.0948  0.3137
  187BOLB   C3D 4487  17.518   6.772  21.753  0.1003 -0.0737 -0.2775
  187BOLB   C4D 4488  17.160   6.845  21.512  0.0274 -0.0531  0.0047
  188BOLB   NC1 4489  12.772   6.306  22.397 -0.0613 -0.0902 -0.0122
  188BOLB   PO1 4490  13.246   6.554  22.542  0.1247 -0.2718 -0.1573
  188BOLB   GL1 4491  13.665   6.686  22.660  0.1848  0.0094 -0.1146
  188BOLB   GL2 4492  13.948   6.545  22.650  0.0612 -0.0761  0.2377
  188BOLB   C1A 4493  13.707   6.876  23.065  0.2347  0.1624 -0.1893
  188BOLB   C2A 4494  13.637   6.841  23.415  0.0907  0.1742  0.1353
  188BOLB   C3A 4495  13.451   7.073  23.754 -0.0721  0.0740  0.0994
  188BOLB   C4A 4496  13.240   7.311  23.948 -0.0368 -0.1908 -0.2186
  188BOLB   C1B 4497  14.351   6.556  22.480 -0.3250  0.0877  0.2020
  188BOLB   C2B 4498  14.739   6.673  22.185 -0.1636  0.0190  0.0339
  188BOLB   C3B 4499  15.060   6.472  21.963  0.1781 -0.0757  0.0469
  188BOLB   C4B 4500  15.347   6.410  21.610 -0.0803 -0.3334 -0.0146
  188BOLB   NC2 4501  13.321   6.196  25.610 -0.0610 -0.0731  0.1455
  188BOLB   PO2 4502  12.972   5.937  25.430  0.2236  0.1114 -0.4935
  188BOLB   GL3 4503  12.961   6.350  25.311 -0.0375  0.1804  0.0826
  188BOLB   GL4 4504  13.294   6.531  25.233 -0.1160  0.0341  0.1300
  188BOLB   C1C 4505  12.687   6.683  25.339 -0.0297  0.1765  0.4587
  188BOLB   C2C 4506  12.682   7.033  25.021  0.0598 -0.0625 -0.1361
  188BOLB   C3C 4507  12.869   7.346  24.733  0.0169 -0.1002  0.0692
  188BOLB   C4C 4508  13.174   7.273  24.358  0.2747  0.2604  0.1320
  188BOLB   C1D 4509  13.167   6.477  24.793 -0.3255  0.1581  0.0861
  188BOLB   C2D 4510  13.044   6.312  24.300  0.0184  0.1350  0.0739
  188BOLB   C3D 4511  13.000   6.349  23.824 -0.1148  0.1297 -0.0419
  188BOLB   C4D 4512  13.169   6.626  23.524  0.0097 -0.2156  0.0683
  189BOLB   NC1 4513  14.063   4.976  23.153  0.1981 -0.1953  0.0467
  189BOLB   PO1 4514  13.995   5.079  22.726 -0.2423 -0.2694  0.0984
  189BOLB   GL1 4515  14.205   5.447  22.848 -0.3672  0.0673 -0.0863
  189BOLB   GL2 4516  14.156   5.744  22.623 -0.1924  0.3749  0.3244
  189BOLB   C1A 4517  14.595   5.751  23.049 -0.2304  0.1603  0.0916
  189BOLB   C2A 4518  15.004   5.884  22.993  0.1312 -0.1926 -0.1490
  189BOLB   C3A 4519  15.297   5.960  22.719 -0.0803  0.1084  0.0624
  189BOLB   C4A 4520  15.604   6.084  22.374  0.0061 -0.3092  0.0732
  189BOLB   C1B 4521  14.171   6.054  22.921 -0.2989  0.2503  0.2210
  189BOLB   C2B 4522  14.342   6.265  23.340 -0.2243 -0.3222  0.3110
  189BOLB   C3B 4523  14.535   6.497  23.678  0.2489  0.0888  0.2947
  189BOLB   C4B 4524  14.321   6.913  23.880 -0.1081 -0.0158  0.1604
  189BOLB   NC2 4525  17.023   4.073  23.031 -0.5156  0.2731 -0.0834
  189BOLB   PO2 4526  16.890   4.052  22.586  0.1876 -0.0747 -0.3124
  189BOLB   GL3 4527  17.022   4.442  22.499  0.0879 -0.0350 -0.2563
  189BOLB   GL4 4528  16.983   4.466  22.121  0.3284  0.1685 -0.1465
  189BOLB   C1C 4529  16.888   4.900  22.562  0.0883  0.1657 -0.0760
  189BOLB   C2C 4530  16.480   5.121  22.304  0.1650  0.0481 -0.1261
  189BOLB   C3C 4531  16.290   5.444  22.148  0.0146 -0.2147 -0.0673
  189BOLB   C4C 4532  16.006   5.827  22.221 -0.2719 -0.1061  0.0878
  189BOLB   C1D 4533  16.757   4.808  21.924  0.0709  0.2358 -0.1300
  189BOLB   C2D 4534  16.561   5.233  21.801 -0.1821  0.1983  0.2142
  189BOLB   C3D 4535  16.574   5.725  21.726 -0.1765 -0.0710  0.0072
  189BOLB   C4D 4536  16.332   6.021  21.433 -0.2801  0.0600  0.0547
  190BOLB   NC1 4537  14.741   4.322  18.312  0.0732 -0.0361  0.3164
  190BOLB   PO1 4538  15.099   4.415  18.547 -0.0029 -0.2755  0.2570
  190BOLB   GL1 4539  15.454   4.564  18.206 -0.0482  0.3914 -0.2227
  190BOLB   GL2 4540  15.513   4.664  18.525 -0.0471 -0.0256  0.1117
  190BOLB   C1A 4541  15.830   4.645  17.981  0.1152  0.1994 -0.1092
  190BOLB   C2A 4542  16.238   4.730  17.713  0.1297 -0.1124 -0.0457
  190BOLB   C3A 4543  16.636   4.544  17.421  0.1738  0.1224 -0.1303
  190BOLB   C4A 4544  16.664   4.472  16.982 -0.1305  0.1888 -0.0782
  190BOLB   C1B 4545  15.585   5.017  18.632 -0.1997  0.0813 -0.0591
  190BOLB   C2B 4546  15.932   5.003  18.916  0.0625 -0.2686  0.0647
  190BOLB   C3B 4547  16.217   5.103  19.159  0.1633  0.1360  0.0892
  190BOLB   C4B 4548  16.522   4.852  19.162  0.0867  0.2481  0.1792
  190BOLB   NC2 4549  17.388   2.447  16.238  0.0143  0.0310  0.2396
  190BOLB   PO2 4550  17.442   2.773  16.590  0.4505 -0.1927 -0.0200
  190BOLB   GL3 4551  17.587   3.218  16.581 -0.1155  0.2733  0.2041
  190BOLB   GL4 4552  17.906   3.384  16.708 -0.2328  0.1762 -0.2388
  190BOLB   C1C 4553  17.446   3.574  16.302  0.1852 -0.1765  0.0852
  190BOLB   C2C 4554  17.088   3.873  16.199  0.3387  0.0833  0.1174
  190BOLB   C3C 4555  16.836   4.142  16.394 -0.2042  0.0727 -0.0441
  190BOLB   C4C 4556  16.777   4.266  16.704 -0.0484  0.0502  0.1471
  190BOLB   C1D 4557  17.648   3.697  16.776 -0.3504  0.1695  0.2538
  190BOLB   C2D 4558  17.261   3.947  16.710  0.1269 -0.0317  0.1503
  190BOLB   C3D 4559  17.197   4.480  16.972  0.0113  0.1938 -0.0571
  190BOLB   C4D 4560  17.382   4.911  16.694 -0.2866  0.0521 -0.2295
  191BOLB   NC1 4561  18.574   8.456  19.278  0.2400  0.1517  0.2218
  191BOLB   PO1 4562  18.761   8.528  18.818  0.0502  0.2128 -0.1980
  191BOLB   GL1 4563  18.842   8.112  18.962  0.0566 -0.1559 -0.0464
  191BOLB   GL2 4564  19.065   8.088  19.223 -0.3079 -0.1763  0.1905
  191BOLB   C1A 4565  19.074   7.782  18.834  0.1737 -0.0651  0.0823
  191BOLB   C2A 4566  19.282   7.347  18.907 -0.0929  0.3204  0.1363
  191BOLB   C3A 4567  19.506   7.028  18.853 -0.0082  0.0866  0.1302
  191BOLB   C4A 4568  19.399   6.614  18.732  0.2880  0.1111 -0.0499
  191BOLB   C1B 4569  19.255   7.740  19.314  0.1237  0.2196 -0.0588
  191BOLB   C2B 4570  19.536   7.595  19.352  0.1154 -0.1062  0.1194
  191BOLB   C3B 4571  19.747   7.306  19.261  0.0582 -0.1792  0.1313
  191BOLB   C4B 4572  19.879   6.913  19.153  0.2278  0.1272  0.0178
  191BOLB   NC2 4573  20.025   4.332  18.681 -0.0778  0.2469 -0.1337
  191BOLB   PO2 4574  19.724   4.582  18.672 -0.0010  0.0603  0.0425
  191BOLB   GL3 4575  19.371   4.817  18.739  0.1466 -0.1486 -0.3681
  191BOLB   GL4 4576  19.176   4.616  18.535 -0.0574  0.0919 -0.0425
  191BOLB   C1C 4577  19.126   5.189  18.450  0.4355 -0.3052  0.0393
  191BOLB   C2C 4578  19.248   5.616  18.319 -0.0293  0.1996 -0.1054
  191BOLB   C3C 4579  19.114   6.054  18.287  0.0373 -0.1616 -0.1391
  191BOLB   C4C 4580  19.215   6.417  18.408 -0.0351 -0.3738  0.0810
  191BOLB   C1D 4581  18.724   4.614  18.431  0.1786 -0.3940 -0.2414
  191BOLB   C2D 4582  18.502   4.636  18.062  0.3197 -0.3277  0.1997
  191BOLB   C3D 4583  18.042   4.752  17.861  0.0017 -0.1406  0.1477
  191BOLB   C4D 4584  17.725   4.929  17.574 -0.0387  0.1404 -0.1560
  192BOLB   NC1 4585  20.506   9.640  18.755 -0.1075  0.1135 -0.1583
  192BOLB   PO1 4586  20.800   9.981  18.790 -0.1525  0.0796  0.2210
  192BOLB   GL1 4587  21.019   9.558  18.690 -0.1063  0.2109 -0.1416
  192BOLB   GL2 4588  20.881   9.337  18.480  0.1990  0.0309 -0.3072
  192BOLB   C1A 4589  21.290   9.215  18.871  0.0811 -0.3566  0.4898
  192BOLB   C2A 4590  21.494   8.917  19.221  0.1721  0.4228  0.2491
  192BOLB   C3A 4591  21.594   8.562  19.235  0.0792 -0.1691  0.1049
  192BOLB   C4A 4592  21.471   8.097  19.368  0.1325  0.3658 -0.0583
  192BOLB   C1B 4593  21.070   8.839  18.572  0.3262  0.2699  0.1777
  192BOLB   C2B 4594  21.220   8.492  18.485 -0.0892  0.0777  0.0592
  192BOLB   C3B 4595  21.448   8.185  18.446 -0.1895 -0.4581  0.0833
  192BOLB   C4B 4596  21.706   7.735  18.407 -0.1916 -0.1288  0.2683
  192BOLB   NC2 4597  22.879   6.206  18.817  0.0530  0.2266 -0.0600
  192BOLB   PO2 4598  22.664   6.414  18.430  0.1771  0.1645 -0.0066
  192BOLB   GL3 4599  22.351   6.747  18.472 -0.2929  0.0995 -0.0016
  192BOLB   GL4 4600  22.274   6.975  18.196 -0.3811  0.1768 -0.1106
  192BOLB   C1C 4601  22.215   7.093  18.761  0.0771 -0.0595 -0.1630
  192BOLB   C2C 4602  21.938   7.259  18.939  0.0830  0.0607 -0.1542
  192BOLB   C3C 4603  21.658   7.312  19.191  0.2019  0.1881 -0.0480
  192BOLB   C4C 4604  21.455   7.645  19.379  0.0121  0.1999  0.2377
  192BOLB   C1D 4605  22.296   7.088  17.804 -0.0928 -0.0625  0.0116
  192BOLB   C2D 4606  22.020   7.324  17.445 -0.0821 -0.0994  0.1768
  192BOLB   C3D 4607  21.886   7.507  17.043  0.2389  0.3190  0.0130
  192BOLB   C4D 4608  21.908   7.871  16.768 -0.1338  0.2204 -0.1760
  193BOLB   NC1 4609  14.099   7.233  21.671  0.1939  0.0083  0.0595
  193BOLB   PO1 4610  13.943   7.586  21.845  0.1896  0.4542 -0.0696
  193BOLB   GL1 4611  14.261   7.620  22.131 -0.2081 -0.0342  0.2213
  193BOLB   GL2 4612  14.533   7.592  22.173 -0.3540  0.2849  0.5504
  193BOLB   C1A 4613  14.362   7.527  22.620  0.1763  0.0722  0.0298
  193BOLB   C2A 4614  14.601   7.438  22.963 -0.1898  0.0801 -0.2168
  193BOLB   C3A 4615  14.933   7.519  23.225 -0.0830  0.2423 -0.2990
  193BOLB   C4A 4616  15.154   7.228  23.497  0.1328 -0.2499 -0.0413
  193BOLB   C1B 4617  14.879   7.581  22.457  0.2241  0.0061  0.0111
  193BOLB   C2B 4618  15.195   7.625  22.786  0.3003  0.3457  0.1385
  193BOLB   C3B 4619  15.621   7.686  22.690  0.3208  0.0212 -0.2502
  193BOLB   C4B 4620  15.758   7.449  22.947 -0.0489 -0.0007  0.0141
  193BOLB   NC2 4621  15.339   5.825  25.397  0.2771 -0.2735  0.1784
  193BOLB   PO2 4622  15.650   6.057  25.539  0.2501 -0.2640  0.1722
  193BOLB   GL3 4623  15.604   6.203  25.101 -0.0694 -0.1795  0.0415
  193BOLB   GL4 4624  15.429   5.911  24.891 -0.0859 -0.0771  0.1358
  193BOLB   C1C 4625  15.747   6.439  24.783  0.0680  0.1961 -0.0646
  193BOLB   C2C 4626  15.629   6.687  24.506  0.1664 -0.2439 -0.0541
  193BOLB   C3C 4627  15.662   6.925  24.151  0.0439 -0.1507  0.1109
  193BOLB   C4C 4628  15.434   7.269  23.880 -0.0705  0.1469  0.2364
  193BOLB   C1D 4629  15.536   5.997  24.439 -0.1819 -0.1292 -0.0060
  193BOLB   C2D 4630  15.539   6.045  23.979  0.2094 -0.1656  0.1340
  193BOLB   C3D 4631  15.596   6.089  23.554  0.1785 -0.2315  0.2637
  193BOLB   C4D 4632  15.681   5.945  23.173 -0.1173  0.0780  0.2426
  194BOLB   NC1 4633  15.719   6.974  18.102 -0.3107 -0.2489 -0.2028
  194BOLB   PO1 4634  15.516   6.607  18.236 -0.3942 -0.1269  0.0733
  194BOLB   GL1 4635  15.937   6.466  18.314 -0.0471 -0.1961  0.1052
  194BOLB   GL2 4636  16.159   6.731  18.191 -0.0050 -0.0433 -0.0569
  194BOLB   C1A 4637  16.198   6.128  18.422  0.1934  0.0789  0.2591
  194BOLB   C2A 4638  16.662   5.951  18.452  0.0748  0.0278 -0.0115
  194BOLB   C3A 4639  17.078   5.891  18.650 -0.4991  0.1731  0.1585
  194BOLB   C4A 4640  17.201   5.872  18.954 -0.0999 -0.0406  0.0371
  194BOLB   C1B 4641  16.512   6.460  18.060  0.1549 -0.0489 -0.0057
  194BOLB   C2B 4642  16.920   6.312  18.127  0.1502 -0.2988 -0.1801
  194BOLB   C3B 4643  17.400   6.049  18.351  0.0881 -0.2187  0.4343
  194BOLB   C4B 4644  17.616   5.828  18.665  0.4013  0.1876  0.1888
  194BOLB   NC2 4645  19.098   3.780  19.688  0.1468  0.1777  0.0714
  194BOLB   PO2 4646  18.757   3.957  19.859 -0.1884 -0.2319  0.0465
  194BOLB   GL3 4647  18.435   4.228  19.805 -0.0903  0.0225 -0.2914
  194BOLB   GL4 4648  18.173   4.221  20.029 -0.1790 -0.0903 -0.1056
  194BOLB   C1C 4649  18.266   4.609  19.546  0.1727 -0.1862 -0.3338
  194BOLB   C2C 4650  18.108   4.933  19.337  0.1225  0.2030  0.1797
  194BOLB   C3C 4651  17.904   5.336  19.250 -0.1448 -0.1224  0.0438
  194BOLB   C4C 4652  17.519   5.690  19.175 -0.1387  0.1938 -0.2841
  194BOLB   C1D 4653  17.988   4.571  20.073  0.1122 -0.1646 -0.0840
  194BOLB   C2D 4654  18.063   4.978  19.857 -0.2370 -0.4712 -0.0600
  194BOLB   C3D 4655  17.818   5.348  19.820 -0.1180 -0.0919  0.0186
  194BOLB   C4D 4656  17.432   5.613  19.795 -0.2290  0.2089  0.1240
  195BOLB   NC1 4657  16.713   7.526  18.281 -0.1178 -0.3381  0.0665
  195BOLB   PO1 4658  16.789   7.588  18.719 -0.1453 -0.2944  0.2360
  195BOLB   GL1 4659  17.248   7.344  18.685 -0.1874  0.1311 -0.3422
  195BOLB   GL2 4660  17.293   7.272  18.370  0.0543 -0.2687  0.0295
  195BOLB   C1A 4661  17.449   6.871  18.721 -0.2863  0.0202  0.2341
  195BOLB   C2A 4662  17.740   6.600  18.766  0.1639 -0.2071 -0.0223
  195BOLB   C3A 4663  18.084   6.573  18.842 -0.3334  0.0103  0.0658
  195BOLB   C4A 4664  18.418   6.227  18.768  0.2804 -0.0637 -0.1340
  195BOLB   C1B 4665  17.679   7.112  18.300 -0.0842 -0.0015  0.1379
  195BOLB   C2B 4666  18.080   6.765  18.264 -0.3036 -0.1490 -0.0699
  195BOLB   C3B 4667  18.361   6.520  18.396  0.2846 -0.0110 -0.2769
  195BOLB   C4B 4668  18.734   6.372  18.426 -0.1128  0.0206  0.0399
  195BOLB   NC2 4669  20.165   4.684  18.402  0.1652  0.0174 -0.0392
  195BOLB   PO2 4670  20.178   4.756  18.907 -0.0485  0.1932  0.0904
  195BOLB   GL3 4671  19.938   5.064  18.692 -0.0988 -0.2264 -0.2204
  195BOLB   GL4 4672  20.145   5.234  18.372  0.2263  0.1264  0.0853
  195BOLB   C1C 4673  19.529   5.415  18.695 -0.3745 -0.0769 -0.3696
  195BOLB   C2C 4674  19.140   5.408  18.875  0.3667  0.3062  0.0422
  195BOLB   C3C 4675  18.934   5.607  18.789  0.0562 -0.2236 -0.0886
  195BOLB   C4C 4676  18.567   5.826  18.921  0.0205  0.0609  0.3323
  195BOLB   C1D 4677  19.963   5.616  18.385 -0.0851  0.1752  0.5351
  195BOLB   C2D 4678  19.701   5.835  18.504 -0.2003  0.1168 -0.0540
  195BOLB   C3D 4679  19.382   5.891  18.770 -0.2020 -0.0489  0.1399
  195BOLB   C4D 4680  19.360   6.246  19.051  0.0555  0.0630  0.4292
  196BOLB   NC1 4681  16.008   7.446  18.401 -0.2350 -0.1017 -0.0029
  196BOLB   PO1 4682  16.237   7.277  18.123  0.1242  0.7375  0.1099
  196BOLB   GL1 4683  16.623   7.088  18.026  0.0984 -0.0177 -0.3618
  196BOLB   GL2 4684  16.585   6.985  17.790  0.1750 -0.1266  0.0631
  196BOLB   C1A 4685  16.962   6.807  18.055  0.0319  0.2016  0.3083
  196BOLB   C2A 4686  17.267   6.686  18.281  0.2180  0.1011  0.1523
  196BOLB   C3A 4687  17.644   6.591  18.316  0.2555  0.0037  0.0652
  196BOLB   C4A 4688  17.885   6.205  18.460 -0.1076  0.0133 -0.0475
  196BOLB   C1B 4689  16.801   6.571  17.657  0.1544 -0.1787 -0.0506
  196BOLB   C2B 4690  17.156   6.385  17.546 -0.1241  0.1077  0.0598
  196BOLB   C3B 4691  17.671   6.201  17.518  0.0344 -0.1747 -0.3107
  196BOLB   C4B 4692  17.757   5.801  17.477  0.0523 -0.1786  0.1687
  196BOLB   NC2 4693  18.722   4.069  19.346 -0.0757  0.1005 -0.1814
  196BOLB   PO2 4694  18.910   4.064  18.851  0.4220  0.1705 -0.3124
  196BOLB   GL3 4695  18.846   4.468  19.018 -0.0406  0.0719 -0.2808
  196BOLB   GL4 4696  18.449   4.605  18.951  0.2063  0.1207 -0.0449
  196BOLB   C1C 4697  18.859   4.894  18.861 -0.1004 -0.1168 -0.1212
  196BOLB   C2C 4698  18.420   5.168  19.045 -0.0622  0.0542  0.2041
  196BOLB   C3C 4699  18.241   5.456  18.769  0.0164  0.0656  0.1362
  196BOLB   C4C 4700  18.155   5.817  18.609 -0.1119  0.0584  0.1434
  196BOLB   C1D 4701  18.425   4.947  18.648  0.0331  0.0718 -0.2618
  196BOLB   C2D 4702  18.662   5.276  18.485 -0.1603 -0.0851 -0.2516
  196BOLB   C3D 4703  18.757   5.568  18.230  0.2759  0.0961 -0.3138
  196BOLB   C4D 4704  18.649   5.889  18.455 -0.2274 -0.0881 -0.1935
  197BOLB   NC1 4705  17.745   8.525  20.262 -0.1082 -0.0238 -0.0933
  197BOLB   PO1 4706  17.603   8.688  20.595 -0.0528 -0.0192  0.0317
  197BOLB   GL1 4707  17.883   8.416  20.793  0.1072  0.2499 -0.2073
  197BOLB   GL2 4708  18.278   8.437  20.630  0.0553 -0.1007  0.0586
  197BOLB   C1A 4709  18.085   8.393  21.109 -0.1679  0.2054 -0.2416
  197BOLB   C2A 4710  18.199   8.242  21.516  0.0069 -0.1816  0.1344
  197BOLB   C3A 4711  18.376   7.730  21.591  0.0689 -0.1381 -0.0208
  197BOLB   C4A 4712  18.543   7.382  21.390  0.2482 -0.0012 -0.0838
  197BOLB   C1B 4713  18.250   7.996  20.739  0.0002 -0.0189 -0.1151
  197BOLB   C2B 4714  18.229   7.565  21.019  0.1054 -0.0361  0.0183
  197BOLB   C3B 4715  18.385   7.204  20.864  0.0393  0.0255 -0.1787
  197BOLB   C4B 4716  18.176   6.819  20.815 -0.0986  0.2534  0.2278
  197BOLB   NC2 4717  19.477   5.863  22.358 -0.0216 -0.2729 -0.1148
  197BOLB   PO2 4718  19.939   5.800  22.378 -0.1951  0.0191 -0.2091
  197BOLB   GL3 4719  19.742   6.186  22.107 -0.1038 -0.1592  0.2417
  197BOLB   GL4 4720  19.678   6.523  22.134  0.1509 -0.0231  0.3153
  197BOLB   C1C 4721  19.446   6.235  21.774  0.0615 -0.2703 -0.0167
  197BOLB   C2C 4722  19.278   6.447  21.430  0.2708 -0.2111 -0.1063
  197BOLB   C3C 4723  19.083   6.750  21.278 -0.0152  0.2227  0.0918
  197BOLB   C4C 4724  18.910   7.173  21.295  0.0892  0.3195 -0.0674
  197BOLB   C1D 4725  19.225   6.578  22.128  0.0621 -0.0265  0.1234
  197BOLB   C2D 4726  18.871   6.857  22.228 -0.2216  0.0555 -0.2823
  197BOLB   C3D 4727  18.779   7.334  22.198 -0.0844 -0.2154 -0.0505
  197BOLB   C4D 4728  18.745   7.766  22.218 -0.0176  0.3396  0.0944
  198BOLB   NC1 4729  22.294  20.367  22.122  0.0502 -0.1196 -0.0250
  198BOLB   PO1 4730  22.426  20.778  22.027 -0.1190 -0.1942 -0.1907
  198BOLB   GL1 4731  22.436  20.757  22.449 -0.0530  0.2955 -0.0295
  198BOLB   GL2 4732  22.610  20.471  22.472 -0.0428  0.0311 -0.0203
  198BOLB   C1A 4733  22.561  20.850  22.922  0.2385  0.0983  0.1194
  198BOLB   C2A 4734  22.652  21.091  23.222  0.2637 -0.2699  0.0577
  198BOLB   C3A 4735  22.887  21.431  23.441 -0.3006 -0.2407 -0.1560
  198BOLB   C4A 4736  23.132  21.390  23.804  0.0348  0.0650  0.2325
  198BOLB   C1B 4737  22.932  20.667  22.678  0.2114 -0.0218  0.2029
  198BOLB   C2B 4738  23.388  20.725  22.652 -0.0407  0.2194  0.0289
  198BOLB   C3B 4739  23.584  21.002  23.002  0.2398 -0.0318  0.4524
  198BOLB   C4B 4740  24.031  20.883  23.173  0.2088 -0.0431 -0.1942
  198BOLB   NC2 4741  24.846  21.449  25.220 -0.1176 -0.0480  0.0287
  198BOLB   PO2 4742  24.644  21.112  25.485 -0.0599 -0.5510  0.1481
  198BOLB   GL3 4743  24.365  21.252  25.226  0.0635  0.0796  0.1417
  198BOLB   GL4 4744  24.309  20.925  25.079  0.1164 -0.1953 -0.0671
  198BOLB   C1C 4745  24.190  21.447  24.917 -0.1768 -0.1366 -0.1486
  198BOLB   C2C 4746  24.092  21.556  24.502  0.0894 -0.0880  0.0071
  198BOLB   C3C 4747  23.924  21.541  24.039 -0.1748 -0.0292  0.2559
  198BOLB   C4C 4748  23.491  21.277  23.931 -0.1957 -0.1125 -0.2871
  198BOLB   C1D 4749  24.436  20.628  24.819  0.0977  0.1592 -0.1851
  198BOLB   C2D 4750  24.367  20.342  24.488  0.1996 -0.0758 -0.0417
  198BOLB   C3D 4751  24.119  20.035  24.268  0.1010  0.1738 -0.1223
  198BOLB   C4D 4752  23.822  19.892  24.212  0.0121  0.1817  0.4825
  199BOLB   NC1 4753   9.760  11.667  23.276 -0.0737 -0.2226  0.0813
  199BOLB   PO1 4754   9.454  11.961  23.367  0.1465 -0.2967 -0.0340
  199BOLB   GL1 4755   9.410  11.833  23.757 -0.0301 -0.4468  0.1100
  199BOLB   GL2 4756   9.303  11.579  23.678  0.1105  0.1353 -0.0024
  199BOLB   C1A 4757   9.566  12.011  24.196 -0.3395 -0.0584 -0.2868
  199BOLB   C2A 4758   9.578  12.150  24.618  0.0741 -0.3611 -0.2509
  199BOLB   C3A 4759   9.736  12.265  24.967  0.1278 -0.1038  0.1507
  199BOLB   C4A 4760   9.611  12.472  25.329  0.2505  0.4151 -0.1218
  199BOLB   C1B 4761   9.044  11.783  24.040  0.3424 -0.1870  0.1119
  199BOLB   C2B 4762   9.089  11.885  24.487 -0.3044 -0.1308  0.0071
  199BOLB   C3B 4763   9.238  12.159  24.962 -0.0664 -0.0720 -0.0154
  199BOLB   C4B 4764   9.258  12.159  25.409  0.1412 -0.2247 -0.0843
  199BOLB   NC2 4765   8.682  12.637  27.815  0.1155  0.2594  0.1820
  199BOLB   PO2 4766   9.129  12.622  27.663  0.1169 -0.0412  0.2517
  199BOLB   GL3 4767   9.181  12.673  27.251  0.1113  0.0001 -0.0369
  199BOLB   GL4 4768   9.305  12.406  27.171 -0.1342 -0.0862 -0.2038
  199BOLB   C1C 4769   9.029  12.722  26.797  0.3607  0.1360  0.4001
  199BOLB   C2C 4770   9.108  12.855  26.476 -0.3491  0.0360  0.0023
  199BOLB   C3C 4771   9.253  12.802  26.133 -0.0456 -0.0325  0.1356
  199BOLB   C4C 4772   9.597  12.529  25.843  0.1719  0.0445  0.1645
  199BOLB   C1D 4773   9.528  12.066  26.922  0.2094  0.2598  0.1174
  199BOLB   C2D 4774   9.526  11.936  26.469 -0.1510 -0.2548 -0.2507
  199BOLB   C3D 4775   9.551  11.983  25.934  0.2122 -0.2742 -0.0340
  199BOLB   C4D 4776   9.728  12.035  25.478 -0.3762  0.1376  0.1884
  200BOLB   NC1 4777  16.578  17.421  24.832 -0.0682 -0.1555  0.1192
  200BOLB   PO1 4778  16.400  17.122  25.120  0.0053  0.0171 -0.1056
  200BOLB   GL1 4779  16.351  16.961  25.546  0.1041 -0.2334 -0.0626
  200BOLB   GL2 4780  16.329  16.636  25.554  0.4267 -0.3391 -0.0074
  200BOLB   C1A 4781  16.129  16.968  25.996  0.1320  0.2627  0.1613
  200BOLB   C2A 4782  16.228  16.969  26.439  0.0605 -0.4653  0.2456
  200BOLB   C3A 4783  16.418  17.030  26.725  0.1539  0.3219  0.1291
  200BOLB   C4A 4784  16.746  16.904  27.067  0.0638  0.1424 -0.0772
  200BOLB   C1B 4785  16.361  16.529  25.960 -0.0302 -0.0261 -0.0478
  200BOLB   C2B 4786  16.403  16.478  26.378 -0.0224  0.0145  0.0318
  200BOLB   C3B 4787  16.471  16.530  26.795  0.2026 -0.0344 -0.0467
  200BOLB   C4B 4788  16.139  16.789  27.099 -0.0476  0.0573  0.0202
  200BOLB   NC2 4789  16.643  15.914  29.473  0.0731  0.0714  0.1608
  200BOLB   PO2 4790  16.632  15.842  28.899  0.2865  0.1200 -0.0753
  200BOLB   GL3 4791  16.362  15.776  28.492  0.2641 -0.2229  0.0665
  200BOLB   GL4 4792  16.101  15.675  28.372 -0.0545  0.1015 -0.0752
  200BOLB   C1C 4793  16.329  16.207  28.271 -0.0950  0.1503  0.0573
  200BOLB   C2C 4794  16.476  16.523  28.027 -0.2806  0.0088 -0.4760
  200BOLB   C3C 4795  16.791  16.832  27.973 -0.1030 -0.0490  0.0779
  200BOLB   C4C 4796  16.965  16.960  27.577  0.0084 -0.2388 -0.4244
  200BOLB   C1D 4797  15.955  15.896  28.111 -0.0580  0.0913 -0.0320
  200BOLB   C2D 4798  16.100  15.972  27.677  0.1646  0.3455  0.1379
  200BOLB   C3D 4799  16.340  16.315  27.601 -0.2278  0.0423  0.0823
  200BOLB   C4D 4800  16.389  16.776  27.580 -0.2973  0.0451 -0.0076
  201BOLB   NC1 4801  24.043  23.815  20.621 -0.0946 -0.1928 -0.1023
  201BOLB   PO1 4802  24.223  24.090  20.832  0.3285 -0.1650 -0.0791
  201BOLB   GL1 4803  24.067  24.285  21.130 -0.1245 -0.3708  0.2083
  201BOLB   GL2 4804  24.297  24.171  21.345  0.1486  0.1304 -0.0582
  201BOLB   C1A 4805  23.735  24.504  21.180  0.0490  0.2640  0.1323
  201BOLB   C2A 4806  23.631  24.993  21.168  0.2700 -0.0612  0.1690
  201BOLB   C3A 4807  23.314  25.177  21.427  0.2643 -0.2355 -0.1053
  201BOLB   C4A 4808  23.080  25.625  21.527  0.1175 -0.0972  0.2553
  201BOLB   C1B 4809  23.916  24.122  21.561 -0.3013 -0.1568 -0.1104
  201BOLB   C2B 4810  23.861  23.916  21.921  0.1215  0.1937 -0.0998
  201BOLB   C3B 4811  23.672  23.551  22.148  0.2392  0.1844 -0.1080
  201BOLB   C4B 4812  23.617  23.521  22.613  0.0658  0.3568 -0.0646
  201BOLB   NC2 4813  21.977  27.555  22.738  0.2722 -0.2161 -0.3016
  201BOLB   PO2 4814  22.375  27.494  22.826  0.2391 -0.0850 -0.1063
  201BOLB   GL3 4815  22.136  27.059  22.836  0.0634 -0.0313 -0.1961
  201BOLB   GL4 4816  22.501  26.898  22.894  0.1387  0.0456 -0.1203
  201BOLB   C1C 4817  22.147  26.661  22.585  0.2338  0.1357  0.2242
  201BOLB   C2C 4818  22.218  26.370  22.207 -0.1086  0.0641  0.0254
  201BOLB   C3C 4819  22.504  25.954  22.060 -0.1912 -0.1936  0.1009
  201BOLB   C4C 4820  22.860  25.921  21.840 -0.0203 -0.2957 -0.0438
  201BOLB   C1D 4821  22.668  26.574  22.677  0.1792  0.2684  0.1966
  201BOLB   C2D 4822  22.434  26.138  22.651  0.2466  0.0161  0.1537
  201BOLB   C3D 4823  22.240  25.743  22.480 -0.0119  0.2592 -0.0381
  201BOLB   C4D 4824  22.111  25.379  22.170 -0.1016 -0.0602 -0.0995
  202BOLB   NC1 4825  13.370  13.650  24.218 -0.1643  0.0867  0.0206
  202BOLB   PO1 4826  13.383  13.411  24.517  0.1067 -0.2514  0.1940
  202BOLB   GL1 4827  13.073  13.337  24.838 -0.0199 -0.2482 -0.2609
  202BOLB   GL2 4828  12.929  13.130  24.771 -0.0859 -0.1557 -0.1090
  202BOLB   C1A 4829  12.848  13.366  25.211  0.1955  0.1412  0.0034
  202BOLB   C2A 4830  12.779  13.632  25.595  0.2252  0.4948  0.1055
  202BOLB   C3A 4831  12.542  13.504  25.819 -0.0679  0.0431  0.0767
  202BOLB   C4A 4832  12.388  13.357  26.171  0.0592  0.0412 -0.0250
  202BOLB   C1B 4833  12.967  12.915  25.074  0.0574 -0.1692  0.1628
  202BOLB   C2B 4834  12.922  12.810  25.459 -0.2282 -0.0907 -0.1799
  202BOLB   C3B 4835  13.138  12.941  25.843 -0.1934  0.3877  0.0480
  202BOLB   C4B 4836  13.233  12.819  26.300  0.3393 -0.1060 -0.3968
  202BOLB   NC2 4837  12.517  12.726  28.445  0.4608  0.1270 -0.2976
  202BOLB   PO2 4838  12.184  13.002  28.562 -0.1739  0.0980  0.1329
  202BOLB   GL3 4839  12.027  13.214  28.233  0.1161  0.0568  0.1578
  202BOLB   GL4 4840  11.648  13.332  28.091  0.0565 -0.1315  0.2302
  202BOLB   C1C 4841  12.257  13.401  27.903  0.2303  0.1924 -0.1291
  202BOLB   C2C 4842  12.363  13.548  27.443  0.1462 -0.1081  0.0641
  202BOLB   C3C 4843  12.287  13.374  27.049 -0.2670  0.1639  0.0219
  202BOLB   C4C 4844  12.181  13.373  26.568 -0.1805 -0.2128  0.2562
  202BOLB   C1D 4845  11.588  13.307  27.589 -0.0123  0.0153  0.0268
  202BOLB   C2D 4846  11.599  13.108  27.202  0.1180  0.0395 -0.0103
  202BOLB   C3D 4847  11.734  13.125  26.835 -0.1190  0.1007 -0.3085
  202BOLB   C4D 4848  11.554  13.218  26.477  0.2951  0.3514 -0.3769
  203BOLB   NC1 4849  12.178  13.997  24.803  0.2110  0.2366 -0.0654
  203BOLB   PO1 4850  12.118  14.427  24.762  0.0941 -0.0609  0.0285
  203BOLB   GL1 4851  11.881  14.288  25.127  0.2266  0.1117 -0.0818
  203BOLB   GL2 4852  12.008  14.106  25.301 -0.0100 -0.0130 -0.1091
  203BOLB   C1A 4853  11.696  14.459  25.511 -0.2126  0.2550 -0.0553
  203BOLB   C2A 4854  11.721  14.545  25.905  0.0493 -0.1210 -0.0943
  203BOLB   C3A 4855  11.740  14.546  26.350 -0.3007 -0.0423 -0.2154
  203BOLB   C4A 4856  11.872  14.597  26.803 -0.2087  0.6212  0.1251
  203BOLB   C1B 4857  11.758  13.955  25.565 -0.1379 -0.1762 -0.0794
  203BOLB   C2B 4858  11.581  13.764  25.878 -0.0955  0.0216  0.1058
  203BOLB   C3B 4859  11.263  13.694  25.984 -0.2277  0.1242  0.0058
  203BOLB   C4B 4860  10.840  13.808  26.328  0.0803 -0.1314  0.3387
  203BOLB   NC2 4861  13.196  14.367  29.083  0.0059  0.0961  0.0599
  203BOLB   PO2 4862  13.155  14.733  28.970  0.0091 -0.0848 -0.2975
  203BOLB   GL3 4863  13.150  14.678  28.583  0.0537 -0.3526  0.0316
  203BOLB   GL4 4864  13.303  14.929  28.438 -0.0984 -0.2751  0.3440
  203BOLB   C1C 4865  12.823  14.751  28.182  0.1600  0.2270  0.1440
  203BOLB   C2C 4866  12.403  14.759  28.120 -0.2663 -0.1709  0.1563
  203BOLB   C3C 4867  12.201  14.621  27.618 -0.0022  0.4351  0.0066
  203BOLB   C4C 4868  11.990  14.728  27.227 -0.3204 -0.3762  0.1337
  203BOLB   C1D 4869  13.060  15.287  28.251 -0.0724 -0.3475  0.3850
  203BOLB   C2D 4870  12.866  15.655  28.118 -0.1221 -0.2056  0.2527
  203BOLB   C3D 4871  12.831  15.692  27.697 -0.0513  0.0267  0.1505
  203BOLB   C4D 4872  12.718  15.277  27.393  0.2017 -0.2839  0.1966
  204BOLB   NC1 4873  15.730  10.938  22.877 -0.0213  0.0666  0.0402
  204BOLB   PO1 4874  16.147  10.730  22.822 -0.0081  0.0334  0.0608
  204BOLB   GL1 4875  16.225  10.683  23.233  0.1016  0.0865  0.0461
  204BOLB   GL2 4876  16.359  10.943  23.437  0.0730 -0.3323  0.0703
  204BOLB   C1A 4877  16.341  10.405  23.580  0.0728 -0.0312 -0.0095
  204BOLB   C2A 4878  16.161  10.130  23.913 -0.2734 -0.1889  0.1553
  204BOLB   C3A 4879  16.302  10.071  24.375  0.4893  0.0798  0.1619
  204BOLB   C4A 4880  16.381   9.863  24.801  0.3100 -0.1644 -0.1706
  204BOLB   C1B 4881  16.386  10.847  23.764 -0.1740  0.2050 -0.4733
  204BOLB   C2B 4882  16.503  10.456  24.107  0.1087 -0.0595  0.0745
  204BOLB   C3B 4883  16.753  10.331  24.418 -0.0708  0.1963 -0.1382
  204BOLB   C4B 4884  16.693  10.251  24.825  0.0223 -0.2433  0.2846
  204BOLB   NC2 4885  15.894   8.629  26.834 -0.2273 -0.2337  0.0989
  204BOLB   PO2 4886  16.176   8.666  26.483 -0.1351 -0.1116 -0.0206
  204BOLB   GL3 4887  15.897   8.773  26.227 -0.1022 -0.0860 -0.0115
  204BOLB   GL4 4888  15.595   8.686  26.283 -0.0322 -0.3326  0.0076
  204BOLB   C1C 4889  15.654   8.893  25.805 -0.0306  0.0176 -0.0253
  204BOLB   C2C 4890  15.677   9.209  25.435  0.0187 -0.0726 -0.0007
  204BOLB   C3C 4891  15.928   9.411  25.313 -0.2086  0.2071 -0.3197
  204BOLB   C4C 4892  16.156   9.640  25.132 -0.1232 -0.4178  0.0078
  204BOLB   C1D 4893  15.505   9.183  26.164 -0.1695 -0.2256  0.2155
  204BOLB   C2D 4894  15.332   9.605  26.254  0.0563 -0.4875 -0.1272
  204BOLB   C3D 4895  15.173   9.981  26.129  0.0283 -0.1735  0.2288
  204BOLB   C4D 4896  15.052  10.324  25.892  0.1109 -0.0917  0.2942
  205BOLB   NC1 4897  14.356  20.409  24.092 -0.0627 -0.1607  0.1005
  205BOLB   PO1 4898  14.135  20.435  23.640 -0.0346 -0.0432  0.0009
  205BOLB   GL1 4899  14.091  20.809  23.995 -0.0530 -0.1824  0.1079
  205BOLB   GL2 4900  13.819  20.762  24.228 -0.2841 -0.2007  0.0117
  205BOLB   C1A 4901  14.272  21.064  24.304  0.0864  0.3904  0.0232
  205BOLB   C2A 4902  14.168  20.986  24.696 -0.2242 -0.2527  0.2164
  205BOLB   C3A 4903  14.379  21.028  25.040  0.0762  0.2658 -0.2635
  205BOLB   C4A 4904  14.431  21.465  25.143 -0.0538  0.1744 -0.2103
  205BOLB   C1B 4905  13.926  20.551  24.609  0.3830 -0.0398 -0.0608
  205BOLB   C2B 4906  13.642  20.414  24.915 -0.0293 -0.1425  0.1313
  205BOLB   C3B 4907  13.325  20.611  25.144  0.0184  0.3677 -0.1214
  205BOLB   C4B 4908  13.265  20.583  25.489 -0.0007 -0.0324  0.0166
  205BOLB   NC2 4909  14.858  23.309  27.349 -0.1779 -0.1225  0.1583
  205BOLB   PO2 4910  14.397  23.098  27.118 -0.0878  0.0965  0.1167
  205BOLB   GL3 4911  14.369  22.906  26.723 -0.1087  0.0795 -0.0711
  205BOLB   GL4 4912  14.235  23.241  26.573  0.0549 -0.0023  0.0680
  205BOLB   C1C 4913  14.443  22.579  26.421  0.1929  0.0350  0.1851
  205BOLB   C2C 4914  14.612  22.474  26.020 -0.3096  0.0806  0.3491
  205BOLB   C3C 4915  14.780  22.103  25.690 -0.1042 -0.3548 -0.0884
  205BOLB   C4C 4916  14.615  21.727  25.512  0.1925 -0.1534 -0.0173
  205BOLB   C1D 4917  14.277  23.378  26.182 -0.0690  0.0978  0.1584
  205BOLB   C2D 4918  14.080  23.230  25.837 -0.0116 -0.2791  0.1383
  205BOLB   C3D 4919  13.849  23.428  25.458 -0.3449  0.1101 -0.1890
  205BOLB   C4D 4920  13.504  23.626  25.215  0.0228 -0.1005 -0.2660
  206BOLB   NC1 4921  13.046   8.909  22.858  0.0677 -0.4260 -0.2776
  206BOLB   PO1 4922  13.251   9.217  22.920  0.0791  0.0170  0.0390
  206BOLB   GL1 4923  13.191   9.162  23.361  0.1832 -0.1822 -0.0470
  206BOLB   GL2 4924  12.996   8.922  23.346  0.3912  0.5433  0.0138
  206BOLB   C1A 4925  13.177   9.126  23.771  0.0710  0.3446  0.0273
  206BOLB   C2A 4926  13.310   9.135  24.191  0.0835  0.0228 -0.0592
  206BOLB   C3A 4927  13.479   9.169  24.566  0.0516  0.2535  0.3405
  206BOLB   C4A 4928  13.630   9.451  24.826 -0.1418 -0.3220  0.2613
  206BOLB   C1B 4929  13.343   8.715  23.520  0.2006  0.2748  0.0007
  206BOLB   C2B 4930  13.519   8.392  23.816 -0.0921  0.1924 -0.3477
  206BOLB   C3B 4931  13.736   8.143  23.774  0.1167  0.2958 -0.0785
  206BOLB   C4B 4932  13.872   8.033  24.167  0.1796  0.1166 -0.2773
  206BOLB   NC2 4933  14.207   8.745  27.356 -0.0089 -0.0705 -0.0335
  206BOLB   PO2 4934  14.303   8.971  27.012  0.0215  0.0353 -0.0705
  206BOLB   GL3 4935  14.086   9.209  26.780  0.2978  0.0345 -0.0326
  206BOLB   GL4 4936  14.035   9.449  26.933 -0.1557  0.2510  0.2330
  206BOLB   C1C 4937  13.937   9.356  26.395 -0.2370 -0.1005  0.2272
  206BOLB   C2C 4938  13.981   9.401  25.964 -0.3005 -0.2215 -0.2429
  206BOLB   C3C 4939  13.888   9.541  25.543 -0.1487 -0.1995 -0.2694
  206BOLB   C4C 4940  13.692   9.393  25.214 -0.0920 -0.2303 -0.1511
  206BOLB   C1D 4941  13.925   9.814  26.710 -0.1197 -0.2094 -0.0059
  206BOLB   C2D 4942  13.752  10.240  26.584  0.1928 -0.2275  0.1762
  206BOLB   C3D 4943  13.399  10.382  26.582  0.1230  0.0608 -0.1778
  206BOLB   C4D 4944  13.006  10.623  26.698 -0.0846 -0.1461 -0.0448
  207BOLB   NC1 4945  12.269  10.744  23.500 -0.3877  0.4102 -0.0611
  207BOLB   PO1 4946  12.661  10.597  23.432  0.0795 -0.2870 -0.1934
  207BOLB   GL1 4947  12.662  10.526  23.903 -0.0232  0.0955 -0.2917
  207BOLB   GL2 4948  13.014  10.395  23.904  0.1666  0.3200  0.0568
  207BOLB   C1A 4949  12.766  10.288  24.276  0.2104 -0.1409  0.2008
  207BOLB   C2A 4950  12.769  10.021  24.697 -0.0665 -0.4009 -0.2471
  207BOLB   C3A 4951  12.505  10.017  25.066  0.0692 -0.1531  0.1080
  207BOLB   C4A 4952  12.375  10.023  25.481  0.0883  0.0503  0.1918
  207BOLB   C1B 4953  13.309  10.224  24.291  0.0489  0.2145 -0.0720
  207BOLB   C2B 4954  13.730  10.433  24.466  0.3129 -0.0925 -0.0556
  207BOLB   C3B 4955  13.841  10.784  24.731 -0.3070  0.2455  0.0057
  207BOLB   C4B 4956  13.691  10.909  25.044 -0.2425 -0.4617  0.0359
  207BOLB   NC2 4957  12.424  10.715  28.120 -0.3090 -0.0214  0.4267
  207BOLB   PO2 4958  12.652  10.429  27.849 -0.2722  0.1417 -0.0141
  207BOLB   GL3 4959  12.374  10.574  27.592  0.0993  0.1199  0.0459
  207BOLB   GL4 4960  12.323  10.864  27.598 -0.2207 -0.1694 -0.2676
  207BOLB   C1C 4961  12.259  10.610  27.186  0.1161  0.0162  0.1481
  207BOLB   C2C 4962  12.510  10.377  26.793 -0.0682  0.0469  0.1219
  207BOLB   C3C 4963  12.456  10.308  26.293  0.1059  0.0203 -0.4370
  207BOLB   C4C 4964  12.539  10.159  25.928  0.1581  0.0951 -0.0909
  207BOLB   C1D 4965  12.408  11.179  27.248 -0.1065  0.0041  0.0756
  207BOLB   C2D 4966  12.703  11.375  27.024 -0.1515  0.0573  0.1410
  207BOLB   C3D 4967  13.043  11.554  26.761  0.1149  0.1943 -0.4316
  207BOLB   C4D 4968  12.888  11.941  26.479  0.1378 -0.3429  0.5374
  208BOLB   NC1 4969  10.178  16.119  23.518 -0.0658  0.1147  0.0401
  208BOLB   PO1 4970  10.193  16.548  23.710  0.0082 -0.3116 -0.0279
  208BOLB   GL1 4971  10.020  16.794  23.919 -0.2587  0.5006  0.0961
  208BOLB   GL2 4972   9.781  17.005  23.928  0.1099 -0.5150 -0.2295
  208BOLB   C1A 4973  10.019  16.652  24.385 -0.2157 -0.1587  0.1483
  208BOLB   C2A 4974   9.954  16.648  24.775 -0.1979  0.1634  0.1489
  208BOLB   C3A 4975   9.981  16.587  25.166 -0.1216  0.2691  0.1454
  208BOLB   C4A 4976   9.769  16.467  25.512 -0.1675  0.2630 -0.2887
  208BOLB   C1B 4977   9.571  17.186  24.277 -0.0265 -0.1852 -0.3303
  208BOLB   C2B 4978   9.552  17.099  24.717 -0.0125 -0.1675  0.1756
  208BOLB   C3B 4979   9.646  16.975  25.154  0.0832  0.0533  0.3420
  208BOLB   C4B 4980   9.877  16.935  25.478  0.0107  0.0646 -0.0643
  208BOLB   NC2 4981  10.006  17.491  28.155 -0.2089  0.0758 -0.0336
  208BOLB   PO2 4982   9.712  17.541  27.727  0.1433  0.1295  0.1395
  208BOLB   GL3 4983   9.703  17.431  27.368  0.0147  0.1145  0.1829
  208BOLB   GL4 4984   9.870  17.656  27.238 -0.3079  0.0144 -0.2994
  208BOLB   C1C 4985   9.840  17.242  26.996 -0.1682 -0.0422  0.0941
  208BOLB   C2C 4986   9.603  17.033  26.625 -0.0292 -0.0342 -0.1877
  208BOLB   C3C 4987   9.554  16.818  26.286 -0.4618  0.2463 -0.2719
  208BOLB   C4C 4988   9.868  16.673  25.923 -0.1128 -0.0322 -0.2895
  208BOLB   C1D 4989  10.247  17.534  27.204 -0.1849 -0.2421  0.0452
  208BOLB   C2D 4990  10.323  17.481  26.809  0.1702  0.1562 -0.0612
  208BOLB   C3D 4991  10.450  17.608  26.426  0.0342 -0.1335  0.0462
  208BOLB   C4D 4992  10.715  17.952  26.241 -0.2757  0.2399 -0.1889
  209BOLB   NC1 4993  22.653  19.498  22.476  0.2254  0.0066  0.0975
  209BOLB   PO1 4994  22.443  19.958  22.447 -0.1915  0.0724  0.3182
  209BOLB   GL1 4995  22.219  20.176  22.721 -0.2099 -0.2184  0.2441
  209BOLB   GL2 4996  21.974  20.025  22.886 -0.1894  0.0898  0.3563
  209BOLB   C1A 4997  22.404  20.429  23.063  0.4410 -0.0648 -0.0121
  209BOLB   C2A 4998  22.684  20.639  23.365  0.1400  0.0364 -0.3052
  209BOLB   C3A 4999  22.875  20.982  23.661 -0.3920 -0.0537 -0.0725
  209BOLB   C4A 5000  22.899  21.112  24.129  0.5144  0.1244  0.2320
  209BOLB   C1B 5001  22.037  20.177  23.387 -0.1177  0.0471  0.0208
  209BOLB   C2B 5002  22.109  20.364  23.796  0.0445 -0.0760  0.3002
  209BOLB   C3B 5003  21.960  20.624  24.206  0.0329 -0.0120 -0.2601
  209BOLB   C4B 5004  22.200  20.724  24.550 -0.0018 -0.2573  0.4473
  209BOLB   NC2 5005  22.344  21.956  26.292  0.1533 -0.1633  0.0353
  209BOLB   PO2 5006  22.767  21.750  26.525  0.1572 -0.0732 -0.1905
  209BOLB   GL3 5007  22.889  21.716  26.106  0.2208  0.0392 -0.1083
  209BOLB   GL4 5008  22.647  21.943  25.810  0.2141 -0.3626 -0.3276
  209BOLB   C1C 5009  22.990  21.610  25.597 -0.3875 -0.1319 -0.0808
  209BOLB   C2C 5010  22.997  21.152  25.341  0.1692 -0.2871 -0.0367
  209BOLB   C3C 5011  22.935  20.928  24.947  0.1488 -0.0196  0.0392
  209BOLB   C4C 5012  22.913  20.894  24.490 -0.1866  0.1238 -0.0825
  209BOLB   C1D 5013  22.194  21.915  25.553  0.1697 -0.0500 -0.2270
  209BOLB   C2D 5014  22.178  21.996  25.086  0.2081  0.1100 -0.0885
  209BOLB   C3D 5015  22.373  22.045  24.783 -0.1405  0.0711 -0.2799
  209BOLB   C4D 5016  22.295  22.119  24.370  0.1337 -0.1348  0.0038
  210BOLB   NC1 5017  12.260  22.448  22.074  0.3202 -0.1445 -0.4330
  210BOLB   PO1 5018  11.893  22.702  22.325  0.1562  0.2349  0.1006
  210BOLB   GL1 5019  11.916  22.773  22.796  0.0988  0.0101  0.1109
  210BOLB   GL2 5020  12.214  22.789  22.947 -0.0884  0.1191  0.1673
  210BOLB   C1A 5021  11.819  22.996  23.165  0.2308 -0.0373 -0.0053
  210BOLB   C2A 5022  11.747  23.103  23.558  0.1168  0.1522  0.1391
  210BOLB   C3A 5023  11.718  23.388  23.988  0.1491  0.0389 -0.2224
  210BOLB   C4A 5024  11.819  23.544  24.353 -0.0431 -0.0566  0.1810
  210BOLB   C1B 5025  12.325  22.876  23.388 -0.0551 -0.0021  0.1670
  210BOLB   C2B 5026  12.308  23.259  23.562  0.1167 -0.0066  0.0348
  210BOLB   C3B 5027  12.180  23.606  23.902  0.0994 -0.0355  0.2595
  210BOLB   C4B 5028  12.070  23.897  24.066 -0.2179 -0.3088 -0.0302
  210BOLB   NC2 5029  11.250  24.739  26.254 -0.2680  0.1580  0.0890
  210BOLB   PO2 5030  11.666  24.684  26.352  0.0444  0.7076  0.1726
  210BOLB   GL3 5031  11.844  24.325  26.123 -0.1109  0.1268  0.0761
  210BOLB   GL4 5032  11.728  24.594  25.861 -0.1748  0.1756 -0.3319
  210BOLB   C1C 5033  11.687  23.867  25.967  0.0610 -0.2102 -0.0939
  210BOLB   C2C 5034  11.766  23.530  25.639 -0.0522 -0.2606  0.1870
  210BOLB   C3C 5035  11.827  23.345  25.239  0.1693  0.0111  0.0279
  210BOLB   C4C 5036  11.735  23.548  24.816  0.1697  0.3361  0.1674
  210BOLB   C1D 5037  11.693  24.634  25.403  0.2800  0.0073  0.1119
  210BOLB   C2D 5038  11.639  24.451  25.037 -0.1326 -0.3292  0.0850
  210BOLB   C3D 5039  11.371  24.475  24.731 -0.1026 -0.0761 -0.1228
  210BOLB   C4D 5040  11.084  24.337  24.458 -0.0990 -0.3840  0.0984
  211BOLB   NC1 5041  18.665  19.232  24.023  0.0274 -0.0733 -0.0884
  211BOLB   PO1 5042  18.720  18.872  24.203 -0.5592 -0.2659  0.3443
  211BOLB   GL1 5043  18.560  19.093  24.493  0.0747 -0.0227 -0.1406
  211BOLB   GL2 5044  18.238  19.303  24.483  0.2515  0.0906 -0.0470
  211BOLB   C1A 5045  18.753  19.293  24.769  0.2766  0.2238  0.0032
  211BOLB   C2A 5046  18.845  19.320  25.221 -0.3591  0.0718 -0.1072
  211BOLB   C3A 5047  19.173  19.482  25.448  0.0899 -0.0191 -0.1472
  211BOLB   C4A 5048  19.283  19.538  25.819 -0.0511  0.0515 -0.1152
  211BOLB   C1B 5049  18.274  19.429  24.876  0.3367  0.1969  0.0183
  211BOLB   C2B 5050  18.322  19.381  25.315  0.4261  0.0231  0.2397
  211BOLB   C3B 5051  18.620  19.510  25.631  0.0212 -0.0183  0.2492
  211BOLB   C4B 5052  18.853  19.766  25.987  0.0365  0.1906 -0.3013
  211BOLB   NC2 5053  20.041  19.738  28.603  0.1735  0.0149 -0.1486
  211BOLB   PO2 5054  19.624  19.355  28.414  0.0814 -0.1308  0.1250
  211BOLB   GL3 5055  19.515  19.299  28.015  0.3815 -0.1815 -0.0256
  211BOLB   GL4 5056  19.602  19.145  27.737 -0.3775  0.2890 -0.1547
  211BOLB   C1C 5057  19.317  19.573  27.732  0.0490  0.0642  0.3086
  211BOLB   C2C 5058  19.344  19.529  27.210 -0.0177  0.0655  0.1149
  211BOLB   C3C 5059  19.265  19.533  26.752 -0.2397 -0.1835  0.0185
  211BOLB   C4C 5060  19.235  19.439  26.268  0.1587 -0.3232  0.2285
  211BOLB   C1D 5061  19.709  19.139  27.378  0.0243 -0.0975 -0.1300
  211BOLB   C2D 5062  19.983  18.914  27.026  0.2204  0.1875 -0.0741
  211BOLB   C3D 5063  20.274  18.796  26.859  0.0589 -0.3811 -0.1167
  211BOLB   C4D 5064  20.590  18.908  26.566  0.1619 -0.0683 -0.0598
  212BOLB   NC1 5065  17.269  21.375  22.183  0.2179  0.0547 -0.0517
  212BOLB   PO1 5066  17.220  21.646  22.501  0.1004  0.0045 -0.3791
  212BOLB   GL1 5067  17.238  21.918  22.947 -0.2585  0.0465  0.0443
  212BOLB   GL2 5068  17.562  22.032  23.086 -0.1151 -0.0857 -0.1263
  212BOLB   C1A 5069  17.122  21.948  23.333 -0.0483  0.0170 -0.2098
  212BOLB   C2A 5070  17.113  22.159  23.679  0.2967  0.0013 -0.1215
  212BOLB   C3A 5071  17.301  22.221  24.106 -0.0241 -0.1891 -0.2258
  212BOLB   C4A 5072  17.299  22.338  24.502  0.2280  0.0273 -0.4516
  212BOLB   C1B 5073  17.428  22.394  23.364 -0.3004 -0.0600  0.0144
  212BOLB   C2B 5074  17.465  22.607  23.733  0.2238 -0.2421  0.0838
  212BOLB   C3B 5075  17.643  22.736  24.107 -0.0671  0.0679  0.1934
  212BOLB   C4B 5076  17.702  22.670  24.578 -0.1059  0.0131 -0.2114
  212BOLB   NC2 5077  18.898  23.415  26.697  0.2630  0.1011  0.2867
  212BOLB   PO2 5078  18.865  23.046  26.540 -0.1716  0.2124 -0.0813
  212BOLB   GL3 5079  18.424  22.775  26.335 -0.1130  0.2957 -0.0823
  212BOLB   GL4 5080  18.328  22.650  26.597  0.0086  0.1792  0.1728
  212BOLB   C1C 5081  18.058  22.686  26.053 -0.1828  0.0015  0.1649
  212BOLB   C2C 5082  17.934  22.566  25.654 -0.0960  0.4347 -0.0985
  212BOLB   C3C 5083  17.637  22.456  25.264  0.1566  0.1917  0.1062
  212BOLB   C4C 5084  17.443  22.192  24.881 -0.1053  0.3874 -0.1544
  212BOLB   C1D 5085  18.163  22.315  26.397 -0.2982  0.1806 -0.1324
  212BOLB   C2D 5086  17.906  22.035  26.129  0.0953 -0.1343 -0.2307
  212BOLB   C3D 5087  18.082  22.048  25.773  0.0897 -0.3314  0.3567
  212BOLB   C4D 5088  18.528  21.988  25.578  0.3330 -0.0449  0.0592
  213BOLB   NC1 5089  22.866  23.198  21.017  0.0815  0.0756 -0.0780
  213BOLB   PO1 5090  22.388  23.318  21.223  0.3538  0.1712 -0.3712
  213BOLB   GL1 5091  22.222  23.326  21.711 -0.1114  0.0546  0.0711
  213BOLB   GL2 5092  22.081  23.034  21.894 -0.0473  0.0590  0.0136
  213BOLB   C1A 5093  22.142  23.664  22.065  0.1035 -0.0496  0.1078
  213BOLB   C2A 5094  22.010  23.731  22.379 -0.0828 -0.2057  0.2037
  213BOLB   C3A 5095  21.735  23.514  22.736  0.1778  0.0401 -0.1692
  213BOLB   C4A 5096  21.644  23.648  23.170 -0.0669 -0.1137 -0.0651
  213BOLB   C1B 5097  22.454  23.116  22.124  0.0395 -0.1645 -0.0093
  213BOLB   C2B 5098  22.785  23.237  22.304  0.0245 -0.0472  0.2806
  213BOLB   C3B 5099  23.074  22.999  22.475 -0.1082  0.3363 -0.1962
  213BOLB   C4B 5100  23.372  23.029  22.776 -0.2920 -0.1903 -0.1175
  213BOLB   NC2 5101  21.598  25.231  25.014 -0.1366  0.2920 -0.0966
  213BOLB   PO2 5102  21.878  25.134  25.338  0.1569  0.3318 -0.1914
  213BOLB   GL3 5103  21.956  24.828  24.919 -0.0434 -0.2931 -0.3333
  213BOLB   GL4 5104  21.851  25.001  24.631 -0.1708  0.0246 -0.0509
  213BOLB   C1C 5105  21.776  24.516  24.582 -0.0029  0.2057 -0.2192
  213BOLB   C2C 5106  21.526  24.289  24.311 -0.1836  0.1275  0.0033
  213BOLB   C3C 5107  21.681  24.016  23.985  0.1423 -0.3707 -0.2066
  213BOLB   C4C 5108  21.636  23.888  23.480 -0.1589 -0.2849 -0.0032
  213BOLB   C1D 5109  21.644  24.771  24.209 -0.1747 -0.0980  0.2322
  213BOLB   C2D 5110  21.508  24.549  23.853 -0.2122 -0.1377  0.0603
  213BOLB   C3D 5111  21.359  24.337  23.363 -0.2009 -0.2299 -0.2320
  213BOLB   C4D 5112  21.416  24.075  23.006  0.0336 -0.1542 -0.0063
  214BOLB   NC1 5113  19.022  21.208  22.641  0.1812 -0.1404 -0.1869
  214BOLB   PO1 5114  18.733  21.536  22.750 -0.0150  0.0997  0.0310
  214BOLB   GL1 5115  18.860  21.756  23.155 -0.0773  0.0442  0.0622
  214BOLB   GL2 5116  18.561  21.845  23.336  0.1275 -0.1580 -0.0726
  214BOLB   C1A 5117  19.167  21.935  23.463  0.2035 -0.1251 -0.1387
  214BOLB   C2A 5118  19.224  22.194  23.867  0.0485  0.0244 -0.0732
  214BOLB   C3A 5119  19.214  22.390  24.178 -0.2462  0.2812 -0.0555
  214BOLB   C4A 5120  19.580  22.515  24.509 -0.0335 -0.2262  0.1724
  214BOLB   C1B 5121  18.702  22.183  23.656 -0.2121 -0.0719 -0.0162
  214BOLB   C2B 5122  18.711  22.426  24.057  0.1263  0.0183 -0.2127
  214BOLB   C3B 5123  18.729  22.612  24.500 -0.0025 -0.0655 -0.3286
  214BOLB   C4B 5124  19.141  22.627  24.812 -0.0555  0.1819 -0.0334
  214BOLB   NC2 5125  19.389  22.381  26.464 -0.0605  0.1758  0.0188
  214BOLB   PO2 5126  19.822  22.400  26.749 -0.2174  0.1943 -0.2762
  214BOLB   GL3 5127  19.804  22.029  26.464 -0.1029 -0.1015 -0.4763
  214BOLB   GL4 5128  19.946  21.613  26.463 -0.4381 -0.2182  0.0700
  214BOLB   C1C 5129  19.757  21.941  26.040 -0.3766  0.1920 -0.0313
  214BOLB   C2C 5130  19.592  22.213  25.645  0.3575 -0.2016  0.0435
  214BOLB   C3C 5131  19.761  22.567  25.379  0.1375 -0.2096 -0.2040
  214BOLB   C4C 5132  19.708  22.576  25.018 -0.0993  0.2326  0.2410
  214BOLB   C1D 5133  20.025  21.500  25.957  0.1884 -0.3142  0.1342
  214BOLB   C2D 5134  19.933  21.680  25.553  0.1163  0.0338  0.0559
  214BOLB   C3D 5135  19.636  21.978  25.248  0.0057  0.0251  0.3780
  214BOLB   C4D 5136  19.543  22.063  24.863 -0.2122 -0.1677  0.1972
  215BOLB   NC1 5137   9.058  11.043  22.902 -0.0704  0.2684  0.0660
  215BOLB   PO1 5138   9.249  10.744  23.223  0.1249 -0.0529  0.4353
  215BOLB   GL1 5139   9.468  10.828  23.532  0.1979  0.2968 -0.2022
  215BOLB   GL2 5140   9.419  11.099  23.554 -0.2904 -0.0799  0.1045
  215BOLB   C1A 5141   9.474  10.575  23.840 -0.1863  0.0556  0.1673
  215BOLB   C2A 5142   9.198  10.488  24.211 -0.0299  0.2219  0.0368
  215BOLB   C3A 5143   9.148  10.599  24.624 -0.3044 -0.0472  0.1125
  215BOLB   C4A 5144   8.865  10.603  25.063 -0.0013  0.5108  0.0986
  215BOLB   C1B 5145   9.424  11.146  23.935 -0.2198  0.2285 -0.0258
  215BOLB   C2B 5146   9.309  11.378  24.138  0.0346 -0.2311 -0.2722
  215BOLB   C3B 5147   9.418  11.503  24.547 -0.1266  0.0830  0.0501
  215BOLB   C4B 5148   9.247  11.624  24.910  0.0023  0.0648  0.0617
  215BOLB   NC2 5149   8.010  10.841  27.195 -0.1771  0.0049 -0.0954
  215BOLB   PO2 5150   8.191  11.182  27.221 -0.3140 -0.0134 -0.0708
  215BOLB   GL3 5151   8.360  11.354  26.902  0.0861 -0.0709 -0.4685
  215BOLB   GL4 5152   8.575  11.515  26.881 -0.2633 -0.2794 -0.2667
  215BOLB   C1C 5153   8.479  11.183  26.452 -0.0648 -0.0384 -0.1737
  215BOLB   C2C 5154   8.610  11.055  26.047 -0.0664 -0.1535 -0.2093
  215BOLB   C3C 5155   8.509  10.709  25.878  0.1028 -0.3248  0.0379
  215BOLB   C4C 5156   8.752  10.686  25.492 -0.0512 -0.1350  0.3164
  215BOLB   C1D 5157   8.707  11.781  26.594 -0.4888 -0.0122  0.1336
  215BOLB   C2D 5158   8.903  11.954  26.384 -0.5447 -0.5643 -0.1687
  215BOLB   C3D 5159   9.112  11.785  26.103  0.0384  0.1673 -0.1388
  215BOLB   C4D 5160   9.405  11.528  25.899  0.3562  0.3890 -0.2544
  216BOLB   NC1 5161  14.143  21.000  23.532  0.1394 -0.0734 -0.1048
  216BOLB   PO1 5162  14.498  21.239  23.518  0.0367  0.1149 -0.1062
  216BOLB   GL1 5163  14.274  21.430  23.839  0.3065  0.4710  0.0863
  216BOLB   GL2 5164  14.012  21.621  23.681  0.4268 -0.0267  0.0220
  216BOLB   C1A 5165  14.273  21.610  24.251 -0.2188  0.2022 -0.4352
  216BOLB   C2A 5166  14.266  21.826  24.665 -0.1245  0.1805  0.2451
  216BOLB   C3A 5167  14.185  21.873  25.114  0.4263  0.2105  0.2516
  216BOLB   C4A 5168  14.267  22.129  25.372  0.0854  0.1669 -0.3092
  216BOLB   C1B 5169  13.824  21.929  24.008  0.4247 -0.0712  0.2349
  216BOLB   C2B 5170  13.805  21.869  24.448 -0.1330  0.2162  0.1989
  216BOLB   C3B 5171  13.779  21.912  24.851 -0.2860 -0.0803 -0.1460
  216BOLB   C4B 5172  13.684  21.965  25.296 -0.2790  0.0948  0.1392
  216BOLB   NC2 5173  15.574  22.209  27.575  0.2581  0.0863 -0.0719
  216BOLB   PO2 5174  15.360  22.505  27.376  0.0314 -0.1710  0.0814
  216BOLB   GL3 5175  15.168  22.425  27.096  0.0792 -0.2973  0.4175
  216BOLB   GL4 5176  15.375  22.474  26.900 -0.0194 -0.1710 -0.2440
  216BOLB   C1C 5177  14.874  22.269  26.836  0.0177  0.0742  0.1317
  216BOLB   C2C 5178  14.725  22.184  26.497  0.1250  0.4094  0.0683
  216BOLB   C3C 5179  14.454  22.014  26.188  0.0373 -0.1621  0.3867
  216BOLB   C4C 5180  14.337  22.077  25.803  0.2790  0.0001 -0.2239
  216BOLB   C1D 5181  15.299  22.079  26.611  0.4501 -0.1272  0.2279
  216BOLB   C2D 5182  15.428  21.628  26.406 -0.0947 -0.3030 -0.2206
  216BOLB   C3D 5183  15.438  21.501  26.034 -0.0830 -0.1060  0.2921
  216BOLB   C4D 5184  15.410  21.416  25.577 -0.1412  0.1272 -0.1027
  217BOLB   NC1 5185  17.860  12.136  22.756  0.0116  0.1702  0.1840
  217BOLB   PO1 5186  17.603  11.885  22.871  0.2870  0.0256  0.1202
  217BOLB   GL1 5187  17.700  11.668  23.206 -0.2790 -0.0568 -0.1309
  217BOLB   GL2 5188  17.592  11.376  23.108  0.2737  0.4236 -0.2376
  217BOLB   C1A 5189  17.669  11.369  23.582  0.0091 -0.1027  0.1397
  217BOLB   C2A 5190  17.698  10.972  23.785  0.0808  0.0911  0.1518
  217BOLB   C3A 5191  17.769  10.608  24.036  0.4915  0.0785  0.0295
  217BOLB   C4A 5192  18.075  10.408  24.392 -0.0264  0.5489  0.1766
  217BOLB   C1B 5193  17.345  11.052  23.379 -0.3483 -0.3055  0.0512
  217BOLB   C2B 5194  17.266  10.739  23.713  0.3439  0.0297  0.0212
  217BOLB   C3B 5195  17.000  10.404  24.032 -0.2495 -0.1613 -0.2544
  217BOLB   C4B 5196  17.128   9.965  24.103  0.0657  0.0063  0.0303
  217BOLB   NC2 5197  18.053   9.039  26.037 -0.3384  0.3040  0.0423
  217BOLB   PO2 5198  18.499   8.759  25.890 -0.1763  0.0809 -0.3316
  217BOLB   GL3 5199  18.669   9.001  25.514  0.3316  0.1386  0.1066
  217BOLB   GL4 5200  18.297   9.077  25.479  0.0254  0.0591 -0.1065
  217BOLB   C1C 5201  18.708   9.297  25.146 -0.2510 -0.0066  0.4930
  217BOLB   C2C 5202  18.648   9.386  24.708 -0.0606 -0.1546 -0.2570
  217BOLB   C3C 5203  18.568   9.642  24.396  0.0072  0.0778  0.1892
  217BOLB   C4C 5204  18.321  10.056  24.448 -0.0406  0.0146 -0.2138
  217BOLB   C1D 5205  18.192   9.465  25.180 -0.3885  0.1036 -0.1895
  217BOLB   C2D 5206  17.861   9.622  25.513  0.2303  0.1139 -0.2596
  217BOLB   C3D 5207  17.431   9.687  25.482  0.0172 -0.0023  0.0789
  217BOLB   C4D 5208  17.038   9.575  25.584 -0.1065 -0.0386 -0.1030
  218BOLB   NC1 5209  14.867  10.987  23.187  0.2776  0.0131  0.1769
  218BOLB   PO1 5210  15.222  10.709  23.053 -0.1383  0.1443  0.1682
  218BOLB   GL1 5211  15.442  10.421  23.182  0.1370  0.0500  0.1106
  218BOLB   GL2 5212  15.688  10.415  22.935 -0.1209 -0.1292 -0.3169
  218BOLB   C1A 5213  15.561  10.265  23.619 -0.4163  0.0797 -0.1261
  218BOLB   C2A 5214  15.658  10.149  24.002 -0.0890 -0.2248 -0.1096
  218BOLB   C3A 5215  15.851   9.877  24.245  0.0668  0.1453  0.2163
  218BOLB   C4A 5216  16.261   9.582  24.412 -0.1363 -0.0265  0.3034
  218BOLB   C1B 5217  15.992  10.219  23.214  0.1191  0.1474  0.1078
  218BOLB   C2B 5218  15.970   9.816  23.472 -0.0970 -0.0064  0.0695
  218BOLB   C3B 5219  15.762   9.509  23.932  0.1889 -0.1408 -0.1033
  218BOLB   C4B 5220  15.826   9.330  24.419  0.3281 -0.0537 -0.0546
  218BOLB   NC2 5221  17.452   8.191  26.017 -0.2456  0.0074 -0.0438
  218BOLB   PO2 5222  17.197   7.764  26.036 -0.1197 -0.2242  0.1884
  218BOLB   GL3 5223  17.183   8.004  25.647 -0.0642  0.0268  0.4112
  218BOLB   GL4 5224  17.189   7.948  25.379 -0.5897  0.0852  0.0940
  218BOLB   C1C 5225  16.988   8.384  25.577  0.3403 -0.4056 -0.0584
  218BOLB   C2C 5226  16.865   8.774  25.310 -0.1251 -0.2254 -0.2648
  218BOLB   C3C 5227  16.735   8.982  24.964  0.1531  0.0941  0.2162
  218BOLB   C4C 5228  16.574   9.342  24.752  0.0440  0.0780 -0.4435
  218BOLB   C1D 5229  17.069   8.153  25.055 -0.2068  0.2717 -0.0135
  218BOLB   C2D 5230  16.839   7.836  24.791  0.1509  0.1287  0.0360
  218BOLB   C3D 5231  16.811   7.560  24.443  0.1124 -0.1539  0.0205
  218BOLB   C4D 5232  16.752   7.655  23.962 -0.1133 -0.0448  0.3340
  219BOLB   NC1 5233  21.580  19.625  22.821  0.1168 -0.0114  0.3874
  219BOLB   PO1 5234  21.487  20.002  22.741 -0.0252  0.1866 -0.0174
  219BOLB   GL1 5235  21.435  20.021  23.163  0.0120 -0.4253 -0.0413
  219BOLB   GL2 5236  21.665  19.841  23.330  0.1320  0.4765  0.0030
  219BOLB   C1A 5237  21.401  20.284  23.478  0.0938 -0.3631 -0.3474
  219BOLB   C2A 5238  21.508  20.395  23.859 -0.1953 -0.2563  0.0597
  219BOLB   C3A 5239  21.475  20.535  24.275 -0.2224  0.0423 -0.1564
  219BOLB   C4A 5240  21.667  20.737  24.628  0.1303 -0.0553 -0.2833
  219BOLB   C1B 5241  21.805  19.890  23.802  0.0553 -0.2333  0.2187
  219BOLB   C2B 5242  21.873  20.105  24.175  0.3945 -0.3373 -0.0516
  219BOLB   C3B 5243  21.976  20.267  24.573  0.3038 -0.0975  0.2075
  219BOLB   C4B 5244  22.326  20.154  24.888 -0.0055  0.1071 -0.0495
  219BOLB   NC2 5245  22.353  20.044  26.868  0.2990  0.1677  0.0306
  219BOLB   PO2 5246  22.051  20.393  26.628  0.3139  0.1905 -0.0773
  219BOLB   GL3 5247  22.210  20.154  26.298  0.0095  0.2029  0.0086
  219BOLB   GL4 5248  22.506  20.119  26.401  0.1329  0.0886 -0.0648
  219BOLB   C1C 5249  22.160  20.045  25.925 -0.2030  0.0751  0.1514
  219BOLB   C2C 5250  22.151  20.091  25.469  0.2651 -0.0140  0.1451
  219BOLB   C3C 5251  22.141  20.431  25.236  0.3911  0.1385  0.3093
  219BOLB   C4C 5252  21.987  20.684  24.955 -0.0622 -0.0548 -0.2647
  219BOLB   C1D 5253  22.666  20.322  25.984  0.0904  0.1600  0.0038
  219BOLB   C2D 5254  22.619  20.363  25.641  0.1487 -0.0297  0.2069
  219BOLB   C3D 5255  22.663  20.156  25.274 -0.2720  0.3401  0.1375
  219BOLB   C4D 5256  22.926  20.260  24.945 -0.0270  0.0927  0.1549
  220BOLB   NC1 5257  14.365  11.387  22.999 -0.4641 -0.0702  0.1388
  220BOLB   PO1 5258  14.723  11.458  23.286 -0.2822 -0.0667  0.3688
  220BOLB   GL1 5259  14.735  11.289  23.667 -0.3966 -0.1587  0.0252
  220BOLB   GL2 5260  15.051  11.253  23.679 -0.0543 -0.1385 -0.2480
  220BOLB   C1A 5261  14.617  11.128  23.974 -0.0890  0.1333  0.0216
  220BOLB   C2A 5262  14.821  11.024  24.432 -0.1139 -0.1496 -0.0780
  220BOLB   C3A 5263  15.004  10.812  24.818  0.1043 -0.1068 -0.2609
  220BOLB   C4A 5264  15.041  10.628  25.167 -0.3551 -0.5360  0.2177
  220BOLB   C1B 5265  15.264  11.152  24.167  0.2562  0.1494  0.0544
  220BOLB   C2B 5266  15.384  11.142  24.546 -0.1597 -0.0628  0.0681
  220BOLB   C3B 5267  15.449  11.061  24.942  0.1268 -0.2674 -0.2533
  220BOLB   C4B 5268  15.431  11.417  25.115 -0.4111 -0.0587 -0.0150
  220BOLB   NC2 5269  15.499   9.580  27.451  0.2598  0.0708 -0.2977
  220BOLB   PO2 5270  15.180   9.415  27.250  0.0945 -0.2648  0.0697
  220BOLB   GL3 5271  15.093   9.524  26.766 -0.3790  0.0243  0.1553
  220BOLB   GL4 5272  14.975   9.788  26.836 -0.0662  0.0253 -0.2204
  220BOLB   C1C 5273  14.864   9.597  26.390  0.0035 -0.2773 -0.1269
  220BOLB   C2C 5274  14.674   9.957  26.107  0.2988 -0.1126  0.1037
  220BOLB   C3C 5275  14.591  10.192  25.705 -0.0118  0.1538 -0.3379
  220BOLB   C4C 5276  14.831  10.591  25.535 -0.0226  0.0110 -0.0001
  220BOLB   C1D 5277  14.852  10.144  26.532 -0.1393 -0.2544  0.1321
  220BOLB   C2D 5278  14.722  10.425  26.313  0.2548  0.0130  0.1280
  220BOLB   C3D 5279  14.788  10.715  25.990  0.0590  0.4621  0.4310
  220BOLB   C4D 5280  15.067  10.981  25.847  0.0315 -0.0129  0.1549
  221BOLB   NC1 5281  21.213  10.883  19.862  0.1152 -0.1247  0.1073
  221BOLB   PO1 5282  21.354  10.442  19.799 -0.0785 -0.0591 -0.1016
  221BOLB   GL1 5283  21.273  10.196  20.136 -0.1495  0.2838 -0.1154
  221BOLB   GL2 5284  20.980  10.053  20.188  0.0583 -0.1836 -0.1669
  221BOLB   C1A 5285  21.603   9.904  20.222  0.1864 -0.0279  0.2920
  221BOLB   C2A 5286  21.699   9.538  20.592  0.1066 -0.5738  0.0797
  221BOLB   C3A 5287  21.474   9.142  20.678  0.0900 -0.1690  0.0766
  221BOLB   C4A 5288  21.419   8.739  20.882  0.0552 -0.0488  0.2361
  221BOLB   C1B 5289  21.168   9.673  20.332 -0.0056  0.3925 -0.0998
  221BOLB   C2B 5290  21.485   9.288  20.157  0.2579 -0.2176 -0.0074
  221BOLB   C3B 5291  21.846   9.012  20.057  0.1144  0.2822 -0.0954
  221BOLB   C4B 5292  21.970   8.523  20.093  0.0538  0.2659  0.0993
  221BOLB   NC2 5293  22.797   6.984  21.611  0.3317  0.1033 -0.2372
  221BOLB   PO2 5294  22.883   6.801  21.170  0.0271 -0.0026 -0.2717
  221BOLB   GL3 5295  22.634   7.038  20.999  0.1276  0.1173 -0.2871
  221BOLB   GL4 5296  22.337   7.093  21.189  0.0146 -0.0486 -0.2796
  221BOLB   C1C 5297  22.497   7.492  20.980  0.0539 -0.3322  0.0933
  221BOLB   C2C 5298  22.181   7.752  20.932 -0.4600 -0.1802  0.0171
  221BOLB   C3C 5299  21.979   8.176  20.934 -0.1642 -0.1881  0.2000
  221BOLB   C4C 5300  21.709   8.500  21.057 -0.4271 -0.0339 -0.0585
  221BOLB   C1D 5301  21.940   7.320  21.022 -0.0780  0.0649  0.4664
  221BOLB   C2D 5302  21.561   7.574  21.025  0.0839 -0.1015 -0.0848
  221BOLB   C3D 5303  21.331   7.503  20.604  0.0258  0.0317  0.0266
  221BOLB   C4D 5304  21.408   7.626  20.264 -0.1889 -0.0766 -0.3436
  222BOLB   NC1 5305  19.119  22.129  22.268  0.0217 -0.3398  0.0190
  222BOLB   PO1 5306  19.476  21.931  22.257  0.0898  0.1636  0.0169
  222BOLB   GL1 5307  19.508  22.114  22.592  0.0837 -0.1303  0.0036
  222BOLB   GL2 5308  19.788  21.946  22.842 -0.1464  0.0542  0.0966
  222BOLB   C1A 5309  19.420  22.191  23.114  0.2875  0.1423 -0.0223
  222BOLB   C2A 5310  19.487  22.489  23.406 -0.1448  0.1712  0.0244
  222BOLB   C3A 5311  19.264  22.782  23.726  0.0908  0.2344 -0.3195
  222BOLB   C4A 5312  19.548  23.120  23.898  0.1137  0.2491 -0.2103
  222BOLB   C1B 5313  19.919  22.169  23.151 -0.1925 -0.3988  0.0989
  222BOLB   C2B 5314  19.910  22.392  23.569  0.1547 -0.0712  0.0886
  222BOLB   C3B 5315  19.821  22.588  23.946  0.0955  0.0996  0.1568
  222BOLB   C4B 5316  19.746  22.959  24.310  0.2287  0.0974  0.0266
  222BOLB   NC2 5317  19.520  24.471  26.340  0.1632 -0.1020  0.0618
  222BOLB   PO2 5318  19.691  24.494  25.912  0.0404 -0.3244 -0.3901
  222BOLB   GL3 5319  19.436  24.231  25.460  0.2568  0.0860 -0.1531
  222BOLB   GL4 5320  19.090  24.074  25.549 -0.4818  0.0728 -0.1031
  222BOLB   C1C 5321  19.485  24.072  25.013 -0.1296  0.2267 -0.0570
  222BOLB   C2C 5322  19.769  23.908  24.725 -0.0081 -0.1590  0.2003
  222BOLB   C3C 5323  19.823  23.633  24.493 -0.1867  0.0127 -0.0547
  222BOLB   C4C 5324  19.826  23.418  24.091 -0.3458 -0.0767 -0.3149
  222BOLB   C1D 5325  18.768  23.793  25.305 -0.3874 -0.1276  0.1188
  222BOLB   C2D 5326  18.526  23.756  24.855  0.0347  0.0906  0.0678
  222BOLB   C3D 5327  18.038  23.671  24.696  0.0513  0.0617 -0.1876
  222BOLB   C4D 5328  17.809  23.962  24.653 -0.1044 -0.0976 -0.2398
  223BOLB   NC1 5329  14.109  17.177  25.029  0.0729  0.2104  0.3074
  223BOLB   PO1 5330  14.241  16.758  25.042 -0.1535 -0.4337  0.0788
  223BOLB   GL1 5331  14.371  16.853  25.321  0.3092  0.0976  0.3081
  223BOLB   GL2 5332  14.768  16.806  25.379 -0.0439  0.0019 -0.1541
  223BOLB   C1A 5333  14.212  16.740  25.723 -0.2584  0.0772 -0.2003
  223BOLB   C2A 5334  14.193  16.888  26.081 -0.0216 -0.1707  0.0655
  223BOLB   C3A 5335  14.149  17.037  26.575 -0.2464  0.0308 -0.0253
  223BOLB   C4A 5336  14.171  17.315  26.939 -0.1372  0.1797 -0.0204
  223BOLB   C1B 5337  14.715  16.886  25.858 -0.0484  0.1462  0.0102
  223BOLB   C2B 5338  14.691  16.764  26.283  0.2648  0.0936 -0.0285
  223BOLB   C3B 5339  14.858  16.853  26.665  0.1626  0.1579  0.1603
  223BOLB   C4B 5340  14.996  16.977  27.091 -0.4597 -0.3230  0.1373
  223BOLB   NC2 5341  13.262  18.922  28.368 -0.4915 -0.0274 -0.2027
  223BOLB   PO2 5342  13.444  18.602  28.690 -0.1222  0.0344 -0.0106
  223BOLB   GL3 5343  13.681  18.623  28.313  0.5103 -0.1463  0.2315
  223BOLB   GL4 5344  13.897  18.408  28.452 -0.0934  0.2703  0.0446
  223BOLB   C1C 5345  13.785  18.562  27.867  0.1220  0.0920 -0.0438
  223BOLB   C2C 5346  13.978  18.202  27.655 -0.0910 -0.2630 -0.2462
  223BOLB   C3C 5347  13.878  17.821  27.536 -0.0919 -0.1242  0.1512
  223BOLB   C4C 5348  14.041  17.630  27.271  0.1902  0.0750  0.0019
  223BOLB   C1D 5349  14.078  18.815  28.266 -0.0367 -0.0115  0.1249
  223BOLB   C2D 5350  14.451  18.812  28.010 -0.2293  0.1285 -0.0402
  223BOLB   C3D 5351  14.276  18.608  27.635 -0.3081  0.0501  0.2104
  223BOLB   C4D 5352  14.479  18.605  27.297 -0.1960  0.4529 -0.0186
  224BOLB   NC1 5353  14.341  18.751  24.898  0.1703 -0.2357  0.0523
  224BOLB   PO1 5354  14.380  19.238  24.877  0.0384 -0.2219 -0.0022
  224BOLB   GL1 5355  14.552  19.432  25.317  0.1903 -0.1092 -0.2141
  224BOLB   GL2 5356  14.892  19.589  25.207  0.0704 -0.0584 -0.1860
  224BOLB   C1A 5357  14.682  19.225  25.690  0.4833  0.2329 -0.0473
  224BOLB   C2A 5358  14.818  19.395  26.096  0.0134 -0.1051 -0.1962
  224BOLB   C3A 5359  14.821  19.571  26.468 -0.0755  0.0156 -0.1300
  224BOLB   C4A 5360  14.827  19.475  26.968  0.5634  0.2218  0.2732
  224BOLB   C1B 5361  14.839  19.700  25.645 -0.2458 -0.0491 -0.1319
  224BOLB   C2B 5362  15.102  19.799  25.947 -0.1556  0.1451 -0.0582
  224BOLB   C3B 5363  15.249  19.873  26.336  0.1310 -0.0115 -0.0645
  224BOLB   C4B 5364  15.278  19.525  26.558  0.1104 -0.3264 -0.1572
  224BOLB   NC2 5365  13.968  19.668  29.177  0.2579  0.2216 -0.3417
  224BOLB   PO2 5366  14.311  19.404  29.010 -0.0910  0.2615 -0.0449
  224BOLB   GL3 5367  14.616  19.472  28.607  0.0766 -0.3398  0.2446
  224BOLB   GL4 5368  14.441  19.690  28.429  0.0263  0.2127  0.2539
  224BOLB   C1C 5369  14.940  19.460  28.186 -0.1237  0.0306 -0.2028
  224BOLB   C2C 5370  15.374  19.469  27.914  0.2037  0.0744  0.4026
  224BOLB   C3C 5371  15.336  19.397  27.507 -0.3170  0.2400  0.0268
  224BOLB   C4C 5372  15.030  19.372  27.237 -0.3375 -0.0822 -0.2633
  224BOLB   C1D 5373  14.181  19.586  28.052 -0.0580 -0.1546 -0.1732
  224BOLB   C2D 5374  13.816  19.405  27.773  0.1055 -0.4171  0.2547
  224BOLB   C3D 5375  13.919  19.073  27.504 -0.1293 -0.0641  0.0572
  224BOLB   C4D 5376  14.028  18.801  27.211  0.0466 -0.1427  0.2249
  225BOLB   NC1 5377  13.990  11.639  23.224  0.1525  0.1517  0.1237
  225BOLB   PO1 5378  13.907  11.280  23.468 -0.3075  0.2307 -0.0776
  225BOLB   GL1 5379  14.084  11.085  23.779 -0.2194 -0.0258  0.0433
  225BOLB   GL2 5380  14.146  11.290  23.985 -0.1127  0.0123 -0.0776
  225BOLB   C1A 5381  14.010  10.648  24.064  0.3609  0.0985  0.1540
  225BOLB   C2A 5382  14.237  10.438  24.410  0.0258  0.0400  0.0082
  225BOLB   C3A 5383  14.243  10.391  24.724 -0.0563  0.0427 -0.0462
  225BOLB   C4A 5384  14.174  10.554  25.162  0.1490  0.1242  0.1611
  225BOLB   C1B 5385  14.230  11.011  24.289  0.0371 -0.2076 -0.0950
  225BOLB   C2B 5386  14.278  10.919  24.646 -0.0501 -0.2892 -0.3941
  225BOLB   C3B 5387  14.543  10.873  24.961  0.1481 -0.0974  0.2650
  225BOLB   C4B 5388  14.559  11.035  25.319  0.1572  0.0716  0.0561
  225BOLB   NC2 5389  14.967  10.461  27.980 -0.1633  0.2888 -0.0382
  225BOLB   PO2 5390  15.039  10.332  27.565  0.1505  0.0440 -0.1353
  225BOLB   GL3 5391  14.690  10.400  27.259 -0.0089 -0.0239 -0.2048
  225BOLB   GL4 5392  14.657  10.082  27.031 -0.2794  0.2789 -0.1047
  225BOLB   C1C 5393  14.656  10.542  26.811  0.0204 -0.2520 -0.0716
  225BOLB   C2C 5394  14.304  10.701  26.478  0.0863  0.3267 -0.0501
  225BOLB   C3C 5395  14.175  10.776  26.041  0.2440  0.0403  0.2854
  225BOLB   C4C 5396  14.361  10.625  25.625 -0.2123  0.1734 -0.2029
  225BOLB   C1D 5397  14.540   9.743  26.806 -0.3986 -0.0595 -0.1116
  225BOLB   C2D 5398  14.317   9.634  26.510  0.2139 -0.0412  0.0751
  225BOLB   C3D 5399  14.008   9.853  26.202 -0.3046  0.0044 -0.0073
  225BOLB   C4D 5400  13.711  10.373  26.072  0.2143 -0.0728  0.0435
  226BOLB   NC1 5401  21.501  15.462  23.281  0.2279 -0.0052  0.0853
  226BOLB   PO1 5402  21.189  15.515  23.608  0.3157 -0.0161  0.3545
  226BOLB   GL1 5403  21.058  15.525  24.050 -0.0186 -0.2140 -0.0646
  226BOLB   GL2 5404  20.999  15.191  24.128 -0.1870 -0.1009  0.0187
  226BOLB   C1A 5405  21.235  15.704  24.416  0.0276 -0.2252  0.3444
  226BOLB   C2A 5406  21.472  15.686  24.773 -0.0157 -0.0040 -0.0218
  226BOLB   C3A 5407  21.648  15.937  25.206  0.1372  0.1977 -0.2210
  226BOLB   C4A 5408  21.829  16.379  25.349  0.1165  0.1045 -0.1887
  226BOLB   C1B 5409  21.278  15.234  24.566  0.0241 -0.0956  0.0398
  226BOLB   C2B 5410  21.540  15.211  24.916  0.5403 -0.4107  0.0458
  226BOLB   C3B 5411  21.662  15.361  25.327  0.0283 -0.0042  0.0462
  226BOLB   C4B 5412  21.906  15.525  25.490 -0.1274  0.2206  0.1088
  226BOLB   NC2 5413  22.042  16.270  27.826 -0.2997  0.0007 -0.3000
  226BOLB   PO2 5414  22.366  16.601  27.752 -0.0246  0.0719 -0.4464
  226BOLB   GL3 5415  22.314  16.482  27.289 -0.0878 -0.2912  0.0380
  226BOLB   GL4 5416  22.494  16.639  27.106 -0.0731 -0.3004 -0.0084
  226BOLB   C1C 5417  22.138  16.502  26.840  0.2940 -0.0350 -0.0278
  226BOLB   C2C 5418  21.951  16.489  26.496  0.1487  0.0664 -0.1063
  226BOLB   C3C 5419  21.920  16.617  26.170 -0.2391  0.0899 -0.3228
  226BOLB   C4C 5420  21.722  16.580  25.723  0.3365 -0.1759 -0.1611
  226BOLB   C1D 5421  22.424  16.866  26.831 -0.4255 -0.1801 -0.0483
  226BOLB   C2D 5422  22.705  17.101  26.469 -0.1213  0.1401 -0.0881
  226BOLB   C3D 5423  22.544  17.271  26.161  0.0274  0.1432 -0.2957
  226BOLB   C4D 5424  22.424  17.329  25.688  0.0941 -0.4649 -0.5073
  227BOLB   NC1 5425  13.576  11.338  23.817 -0.1529 -0.2901  0.1784
  227BOLB   PO1 5426  13.838  11.702  23.703  0.1035  0.1240 -0.0898
  227BOLB   GL1 5427  13.823  11.615  24.176 -0.0313 -0.3024  0.3553
  227BOLB   GL2 5428  13.571  11.666  24.443  0.3862  0.1116  0.0207
  227BOLB   C1A 5429  14.026  11.732  24.584 -0.1157 -0.1711  0.1161
  227BOLB   C2A 5430  13.809  11.852  24.929  0.5676 -0.1358 -0.2332
  227BOLB   C3A 5431  13.877  11.762  25.352  0.2141  0.1765 -0.2604
  227BOLB   C4A 5432  13.939  11.821  25.847 -0.0293  0.1790 -0.3336
  227BOLB   C1B 5433  13.411  11.562  24.783  0.0796  0.0306 -0.0720
  227BOLB   C2B 5434  13.530  11.334  25.191 -0.4392  0.2787  0.0859
  227BOLB   C3B 5435  13.537  10.985  25.477 -0.1210  0.0662  0.1333
  227BOLB   C4B 5436  13.792  10.621  25.522 -0.1901  0.1052  0.1022
  227BOLB   NC2 5437  14.262  12.293  28.524 -0.0816 -0.1393 -0.0055
  227BOLB   PO2 5438  13.873  12.109  28.319  0.1245 -0.0596 -0.3122
  227BOLB   GL3 5439  14.077  12.057  27.872 -0.2186  0.0871 -0.3177
  227BOLB   GL4 5440  14.288  12.312  27.953 -0.2345  0.0170 -0.0092
  227BOLB   C1C 5441  13.948  12.008  27.387 -0.2000  0.4374 -0.0767
  227BOLB   C2C 5442  14.249  12.006  27.046  0.1268  0.3964  0.5558
  227BOLB   C3C 5443  14.338  12.049  26.540  0.2184  0.0350 -0.1329
  227BOLB   C4C 5444  14.141  11.988  26.177  0.0477  0.4277 -0.0092
  227BOLB   C1D 5445  14.250  12.486  27.595  0.2171  0.1678  0.0204
  227BOLB   C2D 5446  14.003  12.791  27.300 -0.0368  0.0739  0.2073
  227BOLB   C3D 5447  13.771  13.137  26.938  0.0610  0.0433  0.1617
  227BOLB   C4D 5448  13.543  13.458  26.761  0.2778  0.1228  0.1019
  228BOLB   NC1 5449  10.138  25.416  20.371 -0.0130 -0.2624  0.0790
  228BOLB   PO1 5450  10.467  25.313  20.060  0.0687 -0.1240 -0.0465
  228BOLB   GL1 5451  10.627  25.518  20.476 -0.1184 -0.0838  0.2290
  228BOLB   GL2 5452  11.016  25.588  20.327  0.2568  0.2699 -0.0283
  228BOLB   C1A 5453  10.953  25.810  20.771  0.0434  0.0684 -0.0141
  228BOLB   C2A 5454  11.077  26.127  21.123 -0.0333 -0.0918 -0.0004
  228BOLB   C3A 5455  11.200  26.286  21.493  0.1344  0.2017  0.0924
  228BOLB   C4A 5456  11.462  26.314  21.764  0.0449 -0.1285 -0.4527
  228BOLB   C1B 5457  11.354  25.824  20.419 -0.2814  0.0650 -0.2736
  228BOLB   C2B 5458  11.656  26.249  20.402  0.3347 -0.2483 -0.0352
  228BOLB   C3B 5459  11.577  26.706  20.440  0.0609  0.1682 -0.0222
  228BOLB   C4B 5460  11.857  27.084  20.547  0.1457 -0.0818  0.0657
  228BOLB   NC2 5461  11.603  28.600  22.923  0.3028 -0.0066 -0.0056
  228BOLB   PO2 5462  11.472  28.164  22.802  0.2405  0.1590 -0.0683
  228BOLB   GL3 5463  11.593  27.771  22.698  0.1163  0.1771  0.1537
  228BOLB   GL4 5464  11.432  27.457  22.953  0.0560  0.1182  0.0775
  228BOLB   C1C 5465  11.548  27.489  22.440 -0.2268  0.2184 -0.2003
  228BOLB   C2C 5466  11.573  27.133  22.311  0.1893  0.0190  0.3036
  228BOLB   C3C 5467  11.829  26.814  22.129  0.1007 -0.1400  0.3567
  228BOLB   C4C 5468  11.752  26.569  21.813 -0.0726 -0.0020  0.3173
  228BOLB   C1D 5469  11.544  27.092  22.824  0.1699 -0.1403  0.0064
  228BOLB   C2D 5470  11.611  26.730  22.620 -0.2620  0.0152  0.0988
  228BOLB   C3D 5471  11.777  26.389  22.429 -0.0991  0.1217 -0.0784
  228BOLB   C4D 5472  12.057  26.020  22.406  0.0126  0.4907  0.3355
  229BOLB   NC1 5473  12.035  13.229  23.818  0.1960  0.1406  0.2190
  229BOLB   PO1 5474  12.068  13.043  24.311  0.0791 -0.0147 -0.0535
  229BOLB   GL1 5475  12.241  12.631  24.573  0.0853 -0.0554  0.1540
  229BOLB   GL2 5476  12.574  12.694  24.813  0.0063  0.2056 -0.2507
  229BOLB   C1A 5477  12.059  12.510  24.980  0.1123  0.3857  0.0717
  229BOLB   C2A 5478  11.973  12.224  25.349 -0.3349  0.0092  0.1436
  229BOLB   C3A 5479  11.881  12.079  25.719 -0.1618 -0.1124 -0.1395
  229BOLB   C4A 5480  11.832  12.082  26.151 -0.4858 -0.1204 -0.0881
  229BOLB   C1B 5481  12.481  12.639  25.290 -0.0274  0.1758 -0.1362
  229BOLB   C2B 5482  12.351  12.358  25.626  0.2293  0.2882 -0.0484
  229BOLB   C3B 5483  12.232  12.428  26.042 -0.0920  0.1761  0.2929
  229BOLB   C4B 5484  12.261  12.729  26.274  0.0349  0.1143 -0.2228
  229BOLB   NC2 5485  10.929  12.679  28.205  0.2898  0.2713 -0.0132
  229BOLB   PO2 5486  11.077  12.266  28.159 -0.0679  0.0748  0.2019
  229BOLB   GL3 5487  11.474  12.291  28.028  0.0813 -0.1829  0.2687
  229BOLB   GL4 5488  11.401  12.005  27.784 -0.1734  0.3971 -0.1097
  229BOLB   C1C 5489  11.819  12.214  27.709  0.1027 -0.0142 -0.1267
  229BOLB   C2C 5490  11.872  12.110  27.320  0.2983  0.0715  0.0877
  229BOLB   C3C 5491  11.999  12.081  26.968 -0.0448 -0.0878 -0.0815
  229BOLB   C4C 5492  11.937  12.197  26.586  0.0082  0.0354 -0.2198
  229BOLB   C1D 5493  11.259  12.159  27.492 -0.1459  0.0952 -0.1560
  229BOLB   C2D 5494  11.015  12.314  27.138 -0.0840  0.1900 -0.0608
  229BOLB   C3D 5495  11.124  12.295  26.707 -0.1486  0.1731  0.1211
  229BOLB   C4D 5496  11.323  12.033  26.340  0.0098 -0.1873 -0.2288
  230BOLB   NC1 5497  20.493  24.521  19.821  0.0716 -0.0681  0.1404
  230BOLB   PO1 5498  20.764  24.756  19.628 -0.0566  0.1932 -0.0230
  230BOLB   GL1 5499  20.886  25.075  19.862 -0.0338 -0.1196 -0.1024
  230BOLB   GL2 5500  20.864  24.912  20.214 -0.0345  0.2431 -0.0415
  230BOLB   C1A 5501  20.665  25.316  20.094  0.0146  0.2876  0.0654
  230BOLB   C2A 5502  20.498  25.461  20.406  0.0573  0.0088 -0.0964
  230BOLB   C3A 5503  20.435  25.610  20.770  0.0315  0.0575  0.0254
  230BOLB   C4A 5504  20.593  25.501  21.159  0.0367 -0.0240 -0.0982
  230BOLB   C1B 5505  20.579  24.937  20.529 -0.2112 -0.0630  0.3058
  230BOLB   C2B 5506  20.299  25.061  20.766 -0.2599  0.1439 -0.2056
  230BOLB   C3B 5507  20.339  24.994  21.303  0.1591  0.0458  0.0263
  230BOLB   C4B 5508  20.180  25.024  21.732 -0.1796 -0.1487  0.3410
  230BOLB   NC2 5509  21.237  27.909  22.855 -0.1480 -0.0229  0.1528
  230BOLB   PO2 5510  21.379  27.626  22.602  0.4543 -0.0297 -0.0444
  230BOLB   GL3 5511  21.338  27.320  22.251 -0.0601  0.4189 -0.5385
  230BOLB   GL4 5512  21.049  27.488  22.157  0.0309  0.0207  0.1245
  230BOLB   C1C 5513  21.286  27.036  21.853  0.1087 -0.1276  0.1247
  230BOLB   C2C 5514  21.111  26.630  21.714 -0.1849 -0.1724 -0.0930
  230BOLB   C3C 5515  20.996  26.163  21.708  0.2027  0.0049 -0.1390
  230BOLB   C4C 5516  20.751  25.769  21.555  0.1545  0.2712 -0.1346
  230BOLB   C1D 5517  20.870  27.117  22.207  0.3975 -0.3721  0.5543
  230BOLB   C2D 5518  20.761  26.650  22.160 -0.0879  0.1027 -0.2822
  230BOLB   C3D 5519  20.745  26.208  22.227 -0.1298 -0.1021 -0.0383
  230BOLB   C4D 5520  20.837  25.856  22.121  0.0899  0.1090  0.3890
  231BOLB   NC1 5521  15.689  20.004  24.392  0.0948 -0.0791 -0.2741
  231BOLB   PO1 5522  15.949  20.020  24.107  0.2667  0.1954  0.0362
  231BOLB   GL1 5523  16.135  20.304  24.440 -0.1552 -0.2986 -0.0589
  231BOLB   GL2 5524  16.111  20.112  24.636  0.0358 -0.0032 -0.2796
  231BOLB   C1A 5525  16.415  20.575  24.807 -0.1168 -0.1491  0.1542
  231BOLB   C2A 5526  16.370  20.749  25.173  0.0689  0.0115 -0.1099
  231BOLB   C3A 5527  16.042  20.953  25.492 -0.0066  0.2422 -0.0332
  231BOLB   C4A 5528  15.725  21.013  25.625  0.1378 -0.2846  0.0970
  231BOLB   C1B 5529  16.082  20.115  25.020 -0.1655 -0.0207 -0.0638
  231BOLB   C2B 5530  16.227  20.340  25.332 -0.1977 -0.0231  0.2695
  231BOLB   C3B 5531  16.302  20.615  25.691 -0.0039  0.4244 -0.1939
  231BOLB   C4B 5532  16.258  20.856  26.115 -0.0796 -0.0189  0.3001
  231BOLB   NC2 5533  14.928  21.699  27.638 -0.3437 -0.2263 -0.4970
  231BOLB   PO2 5534  14.961  21.461  27.926 -0.5554  0.0787 -0.0240
  231BOLB   GL3 5535  15.312  21.256  27.703  0.0597 -0.1799  0.0902
  231BOLB   GL4 5536  15.272  20.885  27.686 -0.0369 -0.0499 -0.3145
  231BOLB   C1C 5537  15.604  21.164  27.400 -0.0250  0.4174 -0.0656
  231BOLB   C2C 5538  15.639  20.982  26.934 -0.1162  0.0900  0.2391
  231BOLB   C3C 5539  15.664  21.203  26.513 -0.0437  0.2826 -0.2922
  231BOLB   C4C 5540  15.649  21.063  26.058 -0.0344 -0.0788  0.0522
  231BOLB   C1D 5541  15.226  20.845  27.114 -0.1315 -0.3616 -0.1727
  231BOLB   C2D 5542  14.945  20.872  26.731 -0.0279 -0.0563 -0.0933
  231BOLB   C3D 5543  14.830  20.714  26.430  0.1438  0.1045  0.2577
  231BOLB   C4D 5544  14.490  20.481  26.444 -0.1981 -0.4322 -0.0120
  232BOLB   NC1 5545  17.185  12.393  23.805 -0.2006  0.0606 -0.1012
  232BOLB   PO1 5546  16.988  12.617  24.112  0.2531 -0.1080  0.3992
  232BOLB   GL1 5547  17.229  12.457  24.473  0.2321  0.0566  0.2440
  232BOLB   GL2 5548  17.524  12.382  24.214  0.2740  0.0542 -0.1747
  232BOLB   C1A 5549  17.144  12.146  24.731  0.0119  0.0081 -0.1920
  232BOLB   C2A 5550  17.243  11.822  25.021  0.0625 -0.0492 -0.0026
  232BOLB   C3A 5551  17.415  11.368  25.038  0.2700  0.1430  0.1348
  232BOLB   C4A 5552  17.371  10.984  25.332 -0.0216 -0.0131 -0.3783
  232BOLB   C1B 5553  17.675  12.257  24.605 -0.3194  0.0794  0.1345
  232BOLB   C2B 5554  17.521  12.223  25.011 -0.1591 -0.1024  0.0534
  232BOLB   C3B 5555  17.660  12.111  25.443  0.2075  0.2078  0.0200
  232BOLB   C4B 5556  17.836  11.922  25.842 -0.0546 -0.0773 -0.1863
  232BOLB   NC2 5557  17.534  10.022  26.670 -0.2319 -0.0944 -0.0448
  232BOLB   PO2 5558  17.622  10.216  27.093 -0.1306 -0.1538  0.1741
  232BOLB   GL3 5559  17.520  10.562  26.725 -0.2394  0.2042  0.1476
  232BOLB   GL4 5560  17.701  10.465  26.446 -0.0773 -0.0420  0.0969
  232BOLB   C1C 5561  17.330  10.967  26.539 -0.0986 -0.3923 -0.2584
  232BOLB   C2C 5562  17.321  11.248  26.294  0.0334  0.1115  0.1959
  232BOLB   C3C 5563  17.417  11.248  25.907  0.4124 -0.0291  0.1355
  232BOLB   C4C 5564  17.582  11.029  25.621 -0.0726 -0.2334  0.0760
  232BOLB   C1D 5565  17.378  10.468  26.097 -0.1243  0.1983  0.1037
  232BOLB   C2D 5566  17.430  10.517  25.665  0.2944  0.1736 -0.0985
  232BOLB   C3D 5567  17.164  10.491  25.355 -0.0255  0.0708  0.0878
  232BOLB   C4D 5568  17.104  10.546  24.997 -0.2045 -0.2366  0.0803
  233BOLB   NC1 5569  11.998  14.221  23.983 -0.4060 -0.2268 -0.0518
  233BOLB   PO1 5570  11.818  14.009  24.380 -0.1459 -0.0164 -0.2637
  233BOLB   GL1 5571  11.656  13.983  24.759 -0.2200 -0.2825  0.1509
  233BOLB   GL2 5572  11.717  13.741  25.036  0.1910 -0.0344  0.0400
  233BOLB   C1A 5573  11.288  13.981  25.097  0.0314  0.0108 -0.2492
  233BOLB   C2A 5574  11.208  14.030  25.517 -0.1096 -0.0696 -0.0929
  233BOLB   C3A 5575  10.927  14.046  25.815  0.0777  0.2652 -0.2810
  233BOLB   C4A 5576  10.870  14.283  26.046 -0.1220 -0.2921 -0.1113
  233BOLB   C1B 5577  11.490  13.626  25.328 -0.0239 -0.1635 -0.0220
  233BOLB   C2B 5578  11.216  13.417  25.587 -0.0150  0.1386 -0.1937
  233BOLB   C3B 5579  10.874  13.102  25.703 -0.1201 -0.1480  0.3100
  233BOLB   C4B 5580  10.697  13.394  25.976 -0.3057  0.1180 -0.1812
  233BOLB   NC2 5581  11.119  14.092  28.742  0.0610  0.0214  0.1030
  233BOLB   PO2 5582  10.688  14.169  28.470 -0.1926 -0.0405 -0.1065
  233BOLB   GL3 5583  10.879  14.105  28.070  0.0880  0.0603 -0.0905
  233BOLB   GL4 5584  11.067  14.343  27.813 -0.1082 -0.1067  0.0241
  233BOLB   C1C 5585  10.694  14.075  27.717  0.2519  0.1027  0.0608
  233BOLB   C2C 5586  10.451  14.225  27.391  0.1764  0.0145 -0.5697
  233BOLB   C3C 5587  10.609  14.346  27.042  0.4132  0.1617 -0.0052
  233BOLB   C4C 5588  10.723  14.260  26.521  0.1187 -0.1069  0.4117
  233BOLB   C1D 5589  11.083  14.254  27.368 -0.3050 -0.2655 -0.1292
  233BOLB   C2D 5590  11.132  14.298  26.826 -0.0191 -0.0367 -0.2457
  233BOLB   C3D 5591  11.609  14.128  26.637  0.0378  0.0701 -0.0984
  233BOLB   C4D 5592  11.834  13.784  26.771  0.1414  0.1692  0.0669
  234BOLB   NC1 5593  17.386  19.086  23.527 -0.2049 -0.3795 -0.0043
  234BOLB   PO1 5594  17.469  18.921  23.896  0.0603  0.0268 -0.0893
  234BOLB   GL1 5595  17.630  19.012  24.350  0.1066 -0.0456 -0.1085
  234BOLB   GL2 5596  17.509  18.896  24.645 -0.1872  0.0665  0.1465
  234BOLB   C1A 5597  17.736  19.315  24.633  0.0125 -0.0030 -0.3233
  234BOLB   C2A 5598  17.853  19.482  25.156  0.1886  0.3595 -0.0056
  234BOLB   C3A 5599  17.911  19.678  25.536  0.2549  0.3294 -0.1573
  234BOLB   C4A 5600  18.205  19.727  25.905  0.1022  0.0804  0.2025
  234BOLB   C1B 5601  17.493  19.119  25.009  0.2518 -0.0481  0.1618
  234BOLB   C2B 5602  17.343  19.465  25.236 -0.1142 -0.1394  0.2302
  234BOLB   C3B 5603  17.510  19.424  25.688  0.0830  0.0918 -0.1230
  234BOLB   C4B 5604  17.685  19.687  26.003 -0.0968 -0.0601 -0.4363
  234BOLB   NC2 5605  19.212  20.370  28.127  0.3836 -0.4319  0.2165
  234BOLB   PO2 5606  18.994  20.055  27.941 -0.0807 -0.0470  0.0692
  234BOLB   GL3 5607  18.849  20.015  27.615  0.1958 -0.2121 -0.1167
  234BOLB   GL4 5608  18.792  20.306  27.591 -0.1902  0.0606  0.3415
  234BOLB   C1C 5609  18.967  19.846  27.197  0.0081 -0.0692  0.0921
  234BOLB   C2C 5610  18.889  19.915  26.807  0.3080  0.0412 -0.1895
  234BOLB   C3C 5611  18.819  19.552  26.520  0.5514 -0.0410 -0.2745
  234BOLB   C4C 5612  18.473  19.615  26.290 -0.1530 -0.2039  0.3432
  234BOLB   C1D 5613  18.579  20.168  27.236 -0.1001 -0.1359  0.3792
  234BOLB   C2D 5614  18.405  20.162  26.819  0.3683 -0.0971  0.1748
  234BOLB   C3D 5615  18.126  19.776  26.655 -0.1192 -0.1947 -0.3488
  234BOLB   C4D 5616  17.908  19.433  26.355 -0.0684  0.2243  0.0058
  235BOLB   NC1 5617  19.595  14.264  23.950 -0.1931  0.2532 -0.0781
  235BOLB   PO1 5618  19.464  14.700  23.914 -0.1241  0.1242 -0.0349
  235BOLB   GL1 5619  19.772  14.701  24.278 -0.2169  0.0125 -0.3960
  235BOLB   GL2 5620  19.567  14.516  24.374 -0.0352  0.3268  0.2053
  235BOLB   C1A 5621  19.846  14.748  24.745  0.0132  0.1275 -0.0673
  235BOLB   C2A 5622  19.875  14.679  25.156 -0.2548 -0.0674 -0.2833
  235BOLB   C3A 5623  20.016  14.807  25.527  0.2407  0.0491  0.3121
  235BOLB   C4A 5624  20.271  14.714  25.814 -0.2140  0.1315  0.0129
  235BOLB   C1B 5625  19.852  14.254  24.687  0.2260  0.1002  0.1548
  235BOLB   C2B 5626  20.016  14.190  25.044  0.2281 -0.5254  0.0791
  235BOLB   C3B 5627  19.951  14.278  25.465  0.1667 -0.1733 -0.0170
  235BOLB   C4B 5628  20.179  14.245  25.771 -0.3907 -0.1072  0.0989
  235BOLB   NC2 5629  20.847  14.685  28.101 -0.1867 -0.1535  0.0835
  235BOLB   PO2 5630  20.625  15.003  28.252  0.1674  0.2131  0.3449
  235BOLB   GL3 5631  20.647  15.146  27.734 -0.0012 -0.0103  0.0049
  235BOLB   GL4 5632  20.295  15.096  27.505  0.0123 -0.1326  0.2136
  235BOLB   C1C 5633  20.871  15.119  27.379  0.0564  0.1812  0.0749
  235BOLB   C2C 5634  20.679  15.083  27.046 -0.0302 -0.1849 -0.0210
  235BOLB   C3C 5635  20.627  15.061  26.566  0.4419 -0.0584  0.3361
  235BOLB   C4C 5636  20.403  14.927  26.192  0.2388  0.0200  0.0046
  235BOLB   C1D 5637  20.248  14.898  27.164  0.1134 -0.2152 -0.0357
  235BOLB   C2D 5638  19.826  14.997  26.926  0.1105  0.1835  0.0095
  235BOLB   C3D 5639  19.480  14.728  26.981 -0.0158  0.0284  0.0982
  235BOLB   C4D 5640  19.154  14.770  27.169 -0.1678 -0.0499  0.3674
  236BOLB   NC1 5641  13.082  13.810  24.630  0.0507  0.2639  0.0479
  236BOLB   PO1 5642  12.639  14.083  24.682 -0.2790 -0.1941 -0.1641
  236BOLB   GL1 5643  12.851  13.951  25.082  0.1396 -0.3284  0.0358
  236BOLB   GL2 5644  12.593  13.792  25.137 -0.1403 -0.1744 -0.0987
  236BOLB   C1A 5645  13.016  14.138  25.594 -0.0592  0.2574 -0.2128
  236BOLB   C2A 5646  13.121  13.866  25.886  0.0069  0.0163  0.0815
  236BOLB   C3A 5647  12.834  13.683  26.165 -0.0231 -0.3284  0.1464
  236BOLB   C4A 5648  12.625  13.640  26.634 -0.0583 -0.2966 -0.0394
  236BOLB   C1B 5649  12.335  13.845  25.484  0.1422  0.1152 -0.0404
  236BOLB   C2B 5650  12.148  13.820  25.896  0.0950 -0.0150  0.1150
  236BOLB   C3B 5651  11.884  14.066  26.129  0.3650  0.1410  0.1105
  236BOLB   C4B 5652  11.347  14.142  26.144  0.3020 -0.1728  0.3082
  236BOLB   NC2 5653  13.897  13.221  28.713 -0.0332  0.2772  0.0537
  236BOLB   PO2 5654  14.192  13.068  28.559 -0.0641  0.1716 -0.2916
  236BOLB   GL3 5655  13.954  13.134  28.202 -0.1379  0.0619  0.0086
  236BOLB   GL4 5656  13.752  13.387  28.170  0.2176 -0.0100 -0.0225
  236BOLB   C1C 5657  13.737  13.042  27.787 -0.2564 -0.0251 -0.0888
  236BOLB   C2C 5658  13.425  12.886  27.410  0.2568  0.2058  0.2252
  236BOLB   C3C 5659  13.275  13.317  27.195  0.4683  0.0117  0.1495
  236BOLB   C4C 5660  12.895  13.493  26.970 -0.2250  0.0693  0.0341
  236BOLB   C1D 5661  13.935  13.772  27.895  0.1475  0.2490  0.0793
  236BOLB   C2D 5662  14.005  13.890  27.477 -0.1290 -0.2377  0.0365
  236BOLB   C3D 5663  14.333  13.888  27.180 -0.0983  0.1249  0.0115
  236BOLB   C4D 5664  14.627  13.637  27.155 -0.1810 -0.1622  0.1645
  237BOLB   NC1 5665  17.205  22.996  22.542  0.1162  0.3366  0.3898
  237BOLB   PO1 5666  16.866  22.825  22.673  0.3671  0.3000  0.2161
  237BOLB   GL1 5667  16.908  22.934  23.093 -0.2507  0.2313 -0.2843
  237BOLB   GL2 5668  16.600  23.078  23.202  0.4530 -0.0567  0.1179
  237BOLB   C1A 5669  17.033  23.306  23.320  0.0209  0.2170  0.3219
  237BOLB   C2A 5670  17.137  23.623  23.524  0.0770 -0.0479 -0.1386
  237BOLB   C3A 5671  17.234  23.570  23.951  0.1022 -0.0277  0.0795
  237BOLB   C4A 5672  17.060  23.398  24.293 -0.1889  0.0042 -0.3209
  237BOLB   C1B 5673  16.271  23.298  23.456 -0.0419 -0.0119  0.2398
  237BOLB   C2B 5674  15.846  23.428  23.592 -0.3727  0.2159 -0.1430
  237BOLB   C3B 5675  15.633  23.619  23.913  0.2815 -0.1662  0.3428
  237BOLB   C4B 5676  15.105  23.672  23.964 -0.0292  0.1058  0.0012
  237BOLB   NC2 5677  17.718  24.380  26.017 -0.1888 -0.0197 -0.2468
  237BOLB   PO2 5678  17.959  24.028  26.150 -0.1781  0.1166  0.0408
  237BOLB   GL3 5679  17.922  23.634  25.934  0.1165  0.2260 -0.0605
  237BOLB   GL4 5680  18.064  23.319  26.186  0.0710 -0.0239  0.0782
  237BOLB   C1C 5681  17.663  23.427  25.706 -0.4284 -0.2561  0.0902
  237BOLB   C2C 5682  17.309  23.429  25.440 -0.2258  0.1332 -0.2017
  237BOLB   C3C 5683  17.145  23.573  25.138 -0.1524  0.0900 -0.0679
  237BOLB   C4C 5684  17.019  23.578  24.748  0.0810  0.0963  0.3230
  237BOLB   C1D 5685  18.148  23.172  25.792  0.1924 -0.0743  0.0523
  237BOLB   C2D 5686  18.549  23.066  25.621  0.0326  0.1278  0.1614
  237BOLB   C3D 5687  18.873  22.713  25.563 -0.0148 -0.3189 -0.0999
  237BOLB   C4D 5688  19.053  22.414  25.895  0.2723  0.2804  0.0281
  238BOLB   NC1 5689  14.668  17.565  24.542 -0.1805 -0.1511  0.2224
  238BOLB   PO1 5690  14.343  17.535  24.753 -0.3219  0.0305  0.1894
  238BOLB   GL1 5691  14.224  17.653  25.195 -0.1034  0.1440  0.0565
  238BOLB   GL2 5692  13.948  17.734  25.296  0.1032 -0.0847  0.1584
  238BOLB   C1A 5693  14.337  17.789  25.592 -0.1028  0.1689  0.4803
  238BOLB   C2A 5694  14.443  17.777  25.998 -0.0605  0.0291 -0.0829
  238BOLB   C3A 5695  14.471  17.927  26.294 -0.0298 -0.2951  0.2896
  238BOLB   C4A 5696  14.663  18.052  26.656  0.1759 -0.0575  0.0976
  238BOLB   C1B 5697  13.841  17.734  25.782 -0.2137  0.3047  0.2124
  238BOLB   C2B 5698  13.939  17.943  26.154 -0.0967 -0.0312 -0.1782
  238BOLB   C3B 5699  14.002  18.249  26.455  0.0691 -0.0122 -0.1005
  238BOLB   C4B 5700  13.858  18.618  26.802 -0.1808  0.2972  0.3211
  238BOLB   NC2 5701  13.888  18.623  28.935  0.2651  0.1318 -0.1117
  238BOLB   PO2 5702  14.174  18.296  28.965 -0.2736  0.1001  0.0677
  238BOLB   GL3 5703  14.339  18.543  28.612  0.0723  0.0676 -0.1554
  238BOLB   GL4 5704  14.522  18.417  28.559  0.2326  0.2517  0.2276
  238BOLB   C1C 5705  14.247  18.369  28.169  0.0677 -0.1044  0.2451
  238BOLB   C2C 5706  14.498  18.187  27.860 -0.1496 -0.1859  0.0138
  238BOLB   C3C 5707  14.456  17.988  27.453  0.0118  0.0822  0.1849
  238BOLB   C4C 5708  14.550  17.872  27.088  0.2749 -0.0765  0.0463
  238BOLB   C1D 5709  14.790  18.363  28.212 -0.3116  0.0451 -0.1243
  238BOLB   C2D 5710  14.973  18.034  27.878  0.0270 -0.0470 -0.1154
  238BOLB   C3D 5711  15.277  18.245  27.691 -0.2074  0.0918  0.0116
  238BOLB   C4D 5712  15.743  18.419  27.854  0.0747  0.1171 -0.0452
  239BOLB   NC1 5713  13.982  22.380  23.014 -0.1787 -0.1902  0.0096
  239BOLB   PO1 5714  14.020  22.754  22.782  0.0434 -0.4124  0.0353
  239BOLB   GL1 5715  13.969  23.238  22.864  0.0850  0.0934  0.2791
  239BOLB   GL2 5716  13.989  23.421  22.698 -0.2181 -0.4051 -0.0259
  239BOLB   C1A 5717  14.254  23.457  23.134 -0.1465 -0.1252  0.2825
  239BOLB   C2A 5718  14.537  23.613  23.503 -0.1863 -0.2418 -0.0037
  239BOLB   C3A 5719  14.623  23.632  23.863  0.4620 -0.2952  0.2769
  239BOLB   C4A 5720  14.723  23.742  24.269  0.1834  0.1940  0.1962
  239BOLB   C1B 5721  14.151  23.807  22.717 -0.4798  0.1002 -0.1110
  239BOLB   C2B 5722  14.012  23.959  23.179  0.3610  0.1080  0.2967
  239BOLB   C3B 5723  13.885  24.225  23.614  0.1117  0.3220  0.1549
  239BOLB   C4B 5724  13.734  24.183  24.077  0.1294  0.1670  0.1334
  239BOLB   NC2 5725  15.960  25.207  25.988 -0.1556 -0.1771  0.1293
  239BOLB   PO2 5726  15.632  24.988  26.154 -0.4136  0.3204 -0.2082
  239BOLB   GL3 5727  15.455  24.761  25.712 -0.2051  0.1353  0.0367
  239BOLB   GL4 5728  15.287  25.033  25.394  0.0873  0.0330  0.3428
  239BOLB   C1C 5729  15.453  24.632  25.246 -0.1891  0.2887  0.1825
  239BOLB   C2C 5730  15.511  24.367  24.912  0.1417  0.1612  0.1373
  239BOLB   C3C 5731  15.288  24.078  24.845 -0.0580 -0.5177 -0.0685
  239BOLB   C4C 5732  15.041  23.927  24.501 -0.3484  0.0569 -0.2036
  239BOLB   C1D 5733  14.941  24.974  25.047 -0.0577  0.1362  0.0904
  239BOLB   C2D 5734  14.865  24.911  24.610  0.1818 -0.0335  0.0842
  239BOLB   C3D 5735  14.615  24.925  24.268 -0.1755  0.1556  0.2248
  239BOLB   C4D 5736  14.445  25.015  23.732  0.2046 -0.2735  0.3272
  240BOLB   NC1 5737  22.160  11.365  21.084  0.1889  0.1890  0.0612
  240BOLB   PO1 5738  22.541  11.210  20.933  0.0351 -0.1952 -0.1787
  240BOLB   GL1 5739  22.473  10.918  21.161  0.3014  0.1340 -0.2711
  240BOLB   GL2 5740  22.712  10.765  21.107  0.0813 -0.1290 -0.0269
  240BOLB   C1A 5741  22.434  10.569  21.431  0.0766 -0.1301 -0.2088
  240BOLB   C2A 5742  22.645  10.475  21.682 -0.0308  0.3062  0.1661
  240BOLB   C3A 5743  22.895  10.456  22.133  0.0204 -0.0020  0.0788
  240BOLB   C4A 5744  22.840  10.360  22.520  0.0815  0.6004  0.1718
  240BOLB   C1B 5745  22.839  10.332  21.175  0.2220  0.1683  0.1823
  240BOLB   C2B 5746  22.976   9.892  21.231  0.1245  0.0823 -0.0943
  240BOLB   C3B 5747  23.162   9.451  21.122 -0.1367  0.2462 -0.0647
  240BOLB   C4B 5748  23.231   9.006  21.296 -0.0441  0.0664 -0.1462
  240BOLB   NC2 5749  23.571   8.181  22.919  0.0748  0.1405  0.1668
  240BOLB   PO2 5750  23.530   8.086  22.412 -0.0775 -0.0417 -0.1303
  240BOLB   GL3 5751  23.598   8.473  22.468 -0.3620  0.0686 -0.1202
  240BOLB   GL4 5752  23.449   8.627  22.162  0.1279  0.2124 -0.2604
  240BOLB   C1C 5753  23.380   8.808  22.638 -0.0825 -0.2749  0.1118
  240BOLB   C2C 5754  23.309   9.214  22.797  0.0617  0.1679  0.1116
  240BOLB   C3C 5755  23.130   9.548  22.905  0.1331  0.1356 -0.1263
  240BOLB   C4C 5756  22.900   9.936  22.830 -0.0407 -0.3133 -0.3515
  240BOLB   C1D 5757  23.380   9.086  22.230 -0.1999  0.0556 -0.1378
  240BOLB   C2D 5758  23.149   9.464  22.165 -0.2964 -0.0352 -0.1053
  240BOLB   C3D 5759  23.015   9.871  22.081 -0.1994  0.0544 -0.1558
  240BOLB   C4D 5760  22.920   9.962  21.713 -0.2979 -0.2522  0.1754
  241BOLB   NC1 5761  15.656  14.973  24.216 -0.2691 -0.0691 -0.4225
  241BOLB   PO1 5762  15.539  14.834  24.632 -0.2188 -0.1217 -0.2238
  241BOLB   GL1 5763  15.718  14.609  24.980 -0.1936  0.2231  0.2700
  241BOLB   GL2 5764  15.565  14.434  25.173 -0.2677  0.0279 -0.0944
  241BOLB   C1A 5765  15.992  14.298  25.340  0.3890  0.0661 -0.1388
  241BOLB   C2A 5766  16.213  14.017  25.628 -0.0213 -0.0979 -0.1883
  241BOLB   C3A 5767  16.566  13.721  25.825  0.2912 -0.2760  0.1486
  241BOLB   C4A 5768  16.572  13.415  26.148 -0.0644 -0.0676  0.2659
  241BOLB   C1B 5769  15.525  14.273  25.568 -0.0794 -0.1213 -0.0199
  241BOLB   C2B 5770  15.466  14.183  25.894  0.0723  0.3477 -0.1080
  241BOLB   C3B 5771  15.579  14.261  26.246 -0.1393  0.1268  0.3409
  241BOLB   C4B 5772  15.679  14.148  26.658  0.0451 -0.2724  0.3497
  241BOLB   NC2 5773  16.510  12.476  28.141 -0.2806  0.2048  0.1324
  241BOLB   PO2 5774  16.336  12.840  28.406 -0.0182  0.4988  0.0548
  241BOLB   GL3 5775  16.190  12.914  28.001  0.1582  0.1527 -0.0152
  241BOLB   GL4 5776  16.623  12.988  28.039 -0.0817 -0.0450 -0.1471
  241BOLB   C1C 5777  16.100  13.011  27.566 -0.0730  0.1442 -0.0300
  241BOLB   C2C 5778  16.334  13.256  27.397 -0.2268 -0.1481 -0.0876
  241BOLB   C3C 5779  16.243  13.331  26.916 -0.2556 -0.0616  0.2290
  241BOLB   C4C 5780  16.177  13.360  26.497  0.0201  0.5666  0.0038
  241BOLB   C1D 5781  16.803  13.082  27.573 -0.1169 -0.1108  0.1290
  241BOLB   C2D 5782  17.236  13.298  27.337 -0.0237 -0.1216 -0.0051
  241BOLB   C3D 5783  17.288  13.235  26.835 -0.3009 -0.0471 -0.4119
  241BOLB   C4D 5784  17.322  12.881  26.672  0.1013  0.1692  0.3630
  242BOLB   NC1 5785  19.475  11.912  22.609 -0.1899 -0.1565  0.1950
  242BOLB   PO1 5786  19.527  11.643  22.222 -0.1125  0.3320  0.2629
  242BOLB   GL1 5787  19.575  11.297  22.548 -0.0658 -0.2225  0.1602
  242BOLB   GL2 5788  19.526  11.429  22.780  0.0477 -0.1052 -0.2414
  242BOLB   C1A 5789  19.838  11.020  22.797 -0.2097 -0.2343 -0.1752
  242BOLB   C2A 5790  19.997  10.730  23.122 -0.1555  0.0884  0.0401
  242BOLB   C3A 5791  20.176  10.502  23.406 -0.1564  0.1360 -0.3602
  242BOLB   C4A 5792  20.197  10.420  23.770 -0.2260 -0.3123 -0.1528
  242BOLB   C1B 5793  19.518  11.219  23.182 -0.0282 -0.2224  0.1944
  242BOLB   C2B 5794  19.595  10.935  23.465 -0.0933  0.2498 -0.1139
  242BOLB   C3B 5795  19.607  10.727  23.827  0.2688 -0.1079 -0.2594
  242BOLB   C4B 5796  19.778  10.460  23.995  0.2510  0.1920  0.0294
  242BOLB   NC2 5797  19.854   9.996  26.519  0.1958  0.0446  0.1318
  242BOLB   PO2 5798  20.269  10.186  26.452 -0.0825 -0.0685  0.1503
  242BOLB   GL3 5799  20.216  10.278  26.015  0.0826  0.2677 -0.0533
  242BOLB   GL4 5800  19.913  10.341  26.021 -0.0613  0.1768  0.0303
  242BOLB   C1C 5801  20.331  10.393  25.646  0.2897 -0.2112  0.0467
  242BOLB   C2C 5802  20.295  10.256  25.174  0.1841  0.1733  0.1979
  242BOLB   C3C 5803  20.410  10.133  24.746 -0.2238 -0.3387 -0.0839
  242BOLB   C4C 5804  20.232  10.267  24.334 -0.0503  0.2304  0.0691
  242BOLB   C1D 5805  19.571  10.444  25.817 -0.0454  0.3411 -0.4336
  242BOLB   C2D 5806  19.457  10.814  25.883  0.0196  0.2358  0.0697
  242BOLB   C3D 5807  19.080  10.980  26.112 -0.1424 -0.0922  0.1010
  242BOLB   C4D 5808  18.742  10.981  26.412  0.0347 -0.1010 -0.1786
  243BOLB   NC1 5809  15.127   9.681  21.870  0.0164 -0.0227 -0.0544
  243BOLB   PO1 5810  15.185   9.249  22.114 -0.0343 -0.0912 -0.0496
  243BOLB   GL1 5811  15.106   8.894  22.363  0.2361 -0.1890  0.1769
  243BOLB   GL2 5812  15.345   8.762  22.059 -0.0890 -0.3754  0.0897
  243BOLB   C1A 5813  14.853   8.952  22.727 -0.3610 -0.1672  0.1185
  243BOLB   C2A 5814  14.741   9.003  23.210  0.1412 -0.1525  0.0333
  243BOLB   C3A 5815  14.891   8.763  23.606  0.2373  0.0446 -0.0204
  243BOLB   C4A 5816  15.221   8.648  23.987  0.0267 -0.3321 -0.1319
  243BOLB   C1B 5817  15.474   8.498  22.403 -0.0003  0.0468  0.1108
  243BOLB   C2B 5818  15.535   8.610  22.845  0.1142 -0.0504  0.1494
  243BOLB   C3B 5819  15.635   8.507  23.114 -0.3546  0.0833 -0.2189
  243BOLB   C4B 5820  15.731   8.127  23.328 -0.0632 -0.0698  0.2554
  243BOLB   NC2 5821  15.053   7.315  26.389  0.0875  0.2337  0.1356
  243BOLB   PO2 5822  15.311   7.290  26.107 -0.1118 -0.2105 -0.0673
  243BOLB   GL3 5823  15.332   7.708  25.899  0.0654  0.2642  0.1992
  243BOLB   GL4 5824  15.515   7.615  25.683  0.1732  0.1896  0.4364
  243BOLB   C1C 5825  15.277   8.094  25.586  0.0738 -0.1013  0.1870
  243BOLB   C2C 5826  15.344   8.242  25.194  0.1376 -0.0683  0.1249
  243BOLB   C3C 5827  15.267   8.518  24.896  0.1550  0.0811  0.0374
  243BOLB   C4C 5828  15.129   8.584  24.425 -0.0194 -0.0112  0.0697
  243BOLB   C1D 5829  15.630   7.734  25.171  0.3504 -0.0248  0.2822
  243BOLB   C2D 5830  15.884   7.808  24.830  0.0114  0.1072  0.1044
  243BOLB   C3D 5831  16.233   7.589  24.702 -0.0781 -0.1466  0.0588
  243BOLB   C4D 5832  16.465   7.208  24.624  0.2342  0.0395  0.0051
  244BOLB   NC1 5833  10.727  10.110  22.887 -0.1161  0.0456  0.1487
  244BOLB   PO1 5834  10.729  10.030  23.335  0.0565 -0.1290 -0.4736
  244BOLB   GL1 5835  10.846   9.969  23.673  0.0554 -0.0699  0.1153
  244BOLB   GL2 5836  10.975  10.268  23.720  0.0836  0.1700 -0.0114
  244BOLB   C1A 5837  10.801   9.858  24.189  0.0696  0.1772  0.0843
  244BOLB   C2A 5838  10.699  10.149  24.529 -0.0423  0.2118 -0.1982
  244BOLB   C3A 5839  10.654  10.578  24.756 -0.0798 -0.1765  0.0832
  244BOLB   C4A 5840  10.632  10.719  25.163  0.0542  0.1931 -0.1583
  244BOLB   C1B 5841  10.446  10.198  23.994 -0.0954  0.2579 -0.0802
  244BOLB   C2B 5842  10.253  10.127  24.332 -0.1448 -0.2026  0.2516
  244BOLB   C3B 5843  10.303   9.817  24.631  0.0917  0.2072  0.1984
  244BOLB   C4B 5844  10.315   9.838  24.966 -0.1271  0.0470  0.0313
  244BOLB   NC2 5845   9.757   9.789  27.232 -0.0913 -0.2789  0.0474
  244BOLB   PO2 5846   9.998   9.423  27.240  0.1641  0.2726 -0.0964
  244BOLB   GL3 5847   9.970   9.558  26.858  0.0510  0.2677  0.1670
  244BOLB   GL4 5848   9.903   9.201  26.688  0.0076 -0.1951  0.0886
  244BOLB   C1C 5849   9.944   9.696  26.342 -0.2687  0.1022  0.0461
  244BOLB   C2C 5850  10.223   9.963  26.165 -0.0877 -0.2204  0.1253
  244BOLB   C3C 5851  10.494  10.244  25.928 -0.5348  0.0690 -0.2438
  244BOLB   C4C 5852  10.564  10.503  25.563 -0.1205 -0.3516 -0.0742
  244BOLB   C1D 5853  10.184   9.121  26.350  0.0076  0.0591  0.2354
  244BOLB   C2D 5854  10.286   9.208  25.884 -0.1395 -0.1182  0.1320
  244BOLB   C3D 5855  10.374   9.018  25.486  0.0304  0.0175  0.1699
  244BOLB   C4D 5856  10.404   8.878  25.124 -0.0125  0.1254  0.0147
  245BOLB   NC1 5857  14.982  23.078  22.429 -0.0154  0.0594  0.1559
  245BOLB   PO1 5858  14.958  23.438  22.371 -0.3048 -0.2936  0.1227
  245BOLB   GL1 5859  15.080  23.772  22.565 -0.0176  0.3080 -0.6751
  245BOLB   GL2 5860  14.825  23.936  22.615 -0.3836 -0.2194 -0.2262
  245BOLB   C1A 5861  15.416  23.953  22.690 -0.0263 -0.2453  0.1810
  245BOLB   C2A 5862  15.558  24.025  23.145  0.0212  0.2034  0.0084
  245BOLB   C3A 5863  15.715  24.264  23.408  0.1909 -0.0311  0.4007
  245BOLB   C4A 5864  15.769  24.798  23.487 -0.2942  0.1171 -0.3546
  245BOLB   C1B 5865  15.149  24.345  22.681  0.0874  0.1875  0.2964
  245BOLB   C2B 5866  15.558  24.462  22.881 -0.1526 -0.0340  0.2199
  245BOLB   C3B 5867  15.657  24.858  22.999 -0.0231  0.4465 -0.0792
  245BOLB   C4B 5868  15.886  25.216  22.895 -0.2312 -0.2800 -0.0636
  245BOLB   NC2 5869  15.125  26.468  25.013 -0.3855  0.1305  0.5286
  245BOLB   PO2 5870  15.399  26.470  25.356  0.1832  0.1178  0.2468
  245BOLB   GL3 5871  15.579  26.240  24.959 -0.1133 -0.0082  0.3082
  245BOLB   GL4 5872  15.744  26.011  25.013 -0.1081 -0.4114 -0.1748
  245BOLB   C1C 5873  15.817  26.283  24.592 -0.0350  0.0885  0.0364
  245BOLB   C2C 5874  15.841  25.893  24.386 -0.0803 -0.0362  0.0452
  245BOLB   C3C 5875  15.926  25.420  24.205 -0.0587  0.0806 -0.0838
  245BOLB   C4C 5876  15.846  25.080  23.883 -0.2281  0.0728 -0.1603
  245BOLB   C1D 5877  15.442  25.830  24.688  0.0225 -0.2383 -0.0995
  245BOLB   C2D 5878  15.461  25.525  24.481  0.3397 -0.0249  0.1738
  245BOLB   C3D 5879  15.343  25.092  24.351 -0.0357 -0.0005  0.0017
  245BOLB   C4D 5880  15.414  24.876  24.066 -0.0183 -0.4972 -0.3010
  246BOLB   NC1 5881  18.837  12.125  23.359 -0.0079  0.3148 -0.2524
  246BOLB   PO1 5882  18.552  12.478  23.401  0.1540  0.0318  0.1237
  246BOLB   GL1 5883  18.381  12.232  23.747  0.0656  0.0367 -0.1735
  246BOLB   GL2 5884  18.076  12.229  23.787 -0.1073 -0.1023 -0.0628
  246BOLB   C1A 5885  18.383  11.971  24.030  0.1795 -0.0739 -0.1365
  246BOLB   C2A 5886  18.657  11.701  24.370  0.2651 -0.0954  0.0770
  246BOLB   C3A 5887  18.581  11.496  24.697  0.0016  0.1184 -0.2119
  246BOLB   C4A 5888  18.809  11.298  25.052  0.0304 -0.0448  0.0370
  246BOLB   C1B 5889  17.936  12.079  24.183 -0.2040  0.3068 -0.2245
  246BOLB   C2B 5890  18.141  11.687  24.456 -0.0292  0.0054 -0.0706
  246BOLB   C3B 5891  18.110  11.330  24.779  0.1303  0.1659 -0.0484
  246BOLB   C4B 5892  17.874  11.150  25.132  0.1617  0.1870 -0.1663
  246BOLB   NC2 5893  20.680  11.351  26.679 -0.2032  0.1542  0.1043
  246BOLB   PO2 5894  20.653  10.905  26.579  0.2749  0.0821 -0.3317
  246BOLB   GL3 5895  20.492  10.738  26.264 -0.0370  0.1693 -0.1849
  246BOLB   GL4 5896  20.637  10.552  26.025  0.1981 -0.2155 -0.2641
  246BOLB   C1C 5897  20.365  10.907  25.873  0.0202  0.0444  0.3988
  246BOLB   C2C 5898  19.911  10.704  25.631 -0.0151  0.0585  0.1720
  246BOLB   C3C 5899  19.504  10.713  25.394  0.0795 -0.0130 -0.0916
  246BOLB   C4C 5900  19.091  11.061  25.334  0.2705 -0.2473 -0.2767
  246BOLB   C1D 5901  20.734  10.712  25.618 -0.2416 -0.4155  0.2278
  246BOLB   C2D 5902  20.474  10.778  25.275 -0.1439 -0.0331  0.1786
  246BOLB   C3D 5903  20.355  10.616  24.855 -0.0308 -0.0116  0.0553
  246BOLB   C4D 5904  20.536  10.723  24.415  0.1093  0.1493 -0.2008
  247BOLB   NC1 5905  14.842  15.770  24.748  0.2058 -0.0672 -0.4482
  247BOLB   PO1 5906  14.626  15.848  25.070 -0.4253 -0.2901 -0.3441
  247BOLB   GL1 5907  14.679  15.786  25.531  0.1041  0.0472  0.3615
  247BOLB   GL2 5908  14.919  15.468  25.564  0.2636  0.1276  0.2609
  247BOLB   C1A 5909  14.562  15.879  25.924 -0.3331 -0.1243  0.4701
  247BOLB   C2A 5910  14.376  15.800  26.310 -0.1146 -0.0107  0.1069
  247BOLB   C3A 5911  14.285  15.744  26.748  0.1013 -0.3870 -0.0414
  247BOLB   C4A 5912  14.224  15.889  27.104  0.0498 -0.0647  0.5215
  247BOLB   C1B 5913  14.894  15.407  25.942 -0.4163 -0.1418  0.2284
  247BOLB   C2B 5914  14.847  15.367  26.471 -0.2760  0.2588 -0.5556
  247BOLB   C3B 5915  14.991  15.399  26.898  0.2265  0.0267 -0.2368
  247BOLB   C4B 5916  15.214  15.582  27.249  0.0731  0.0349  0.0243
  247BOLB   NC2 5917  13.478  16.755  29.344 -0.1539  0.1028 -0.0218
  247BOLB   PO2 5918  13.017  16.721  29.100  0.2391  0.1499 -0.1354
  247BOLB   GL3 5919  13.137  16.492  28.673  0.3900 -0.3232  0.1462
  247BOLB   GL4 5920  12.884  16.596  28.585  0.1768 -0.1706  0.0144
  247BOLB   C1C 5921  13.488  16.332  28.426 -0.0127  0.0220 -0.1185
  247BOLB   C2C 5922  13.583  16.163  28.042  0.1173 -0.1159 -0.3407
  247BOLB   C3C 5923  13.786  15.980  27.812 -0.0245  0.0301  0.3106
  247BOLB   C4C 5924  14.096  15.972  27.506 -0.3175 -0.1009  0.1055
  247BOLB   C1D 5925  12.939  16.849  28.237 -0.0356 -0.2534 -0.2074
  247BOLB   C2D 5926  12.781  16.800  27.829  0.2923  0.3154  0.3115
  247BOLB   C3D 5927  12.662  16.984  27.413 -0.0481 -0.1889  0.2637
  247BOLB   C4D 5928  12.660  17.229  27.119  0.2505 -0.2405  0.0822
  248BOLB   NC1 5929  15.166  18.427  24.341 -0.1414 -0.2196 -0.0944
  248BOLB   PO1 5930  15.212  18.740  24.629  0.0240 -0.0919  0.3140
  248BOLB   GL1 5931  15.286  18.888  25.063  0.1204 -0.2065  0.0593
  248BOLB   GL2 5932  15.263  18.738  25.288 -0.2546  0.1850  0.0120
  248BOLB   C1A 5933  15.111  19.197  25.419 -0.0441  0.0535  0.1926
  248BOLB   C2A 5934  15.260  19.343  25.843 -0.1923 -0.2763  0.1119
  248BOLB   C3A 5935  15.552  19.467  26.106  0.1986 -0.1749  0.3339
  248BOLB   C4A 5936  15.781  19.705  26.505  0.3241  0.0701  0.1685
  248BOLB   C1B 5937  15.438  18.808  25.670 -0.0227 -0.0388 -0.4554
  248BOLB   C2B 5938  15.677  18.791  26.087 -0.0243 -0.0859 -0.0170
  248BOLB   C3B 5939  15.902  18.759  26.473  0.1409  0.2633 -0.1462
  248BOLB   C4B 5940  16.192  18.675  26.852  0.1758 -0.1068  0.0853
  248BOLB   NC2 5941  14.063  21.219  28.081 -0.0532  0.4392 -0.0865
  248BOLB   PO2 5942  14.353  21.127  27.745  0.2365 -0.2301  0.1199
  248BOLB   GL3 5943  14.480  20.942  27.472 -0.1556 -0.2032 -0.0014
  248BOLB   GL4 5944  14.767  21.201  27.486  0.1822 -0.1932 -0.2797
  248BOLB   C1C 5945  14.861  20.664  27.432  0.3256  0.2136 -0.1452
  248BOLB   C2C 5946  15.113  20.374  27.429 -0.4531  0.1697 -0.1825
  248BOLB   C3C 5947  15.523  20.086  27.228 -0.0191 -0.0088 -0.0182
  248BOLB   C4C 5948  15.571  19.988  26.822 -0.1267  0.0757  0.1619
  248BOLB   C1D 5949  14.925  21.235  27.062 -0.1049  0.2601 -0.1407
  248BOLB   C2D 5950  15.258  21.292  26.754  0.0076  0.1451 -0.0888
  248BOLB   C3D 5951  15.163  21.234  26.374 -0.1286  0.0822  0.3056
  248BOLB   C4D 5952  15.029  21.332  25.949 -0.1334 -0.0870 -0.0457
  249BOLB   NC1 5953  10.733  24.619  20.714 -0.0735  0.0029  0.0613
  249BOLB   PO1 5954  10.576  24.931  20.937 -0.0176  0.0943 -0.0959
  249BOLB   GL1 5955  10.930  25.027  21.335 -0.0125  0.1863 -0.0446
  249BOLB   GL2 5956  11.169  25.076  21.229 -0.0097 -0.2377  0.1875
  249BOLB   C1A 5957  11.033  25.193  21.823 -0.2477  0.0392 -0.1819
  249BOLB   C2A 5958  10.899  25.465  22.161 -0.2713  0.0978 -0.1084
  249BOLB   C3A 5959  10.930  25.524  22.544 -0.2396 -0.2420  0.1587
  249BOLB   C4A 5960  11.161  25.521  22.943 -0.0802 -0.2412  0.1739
  249BOLB   C1B 5961  11.462  25.349  21.437  0.0965 -0.1698  0.1740
  249BOLB   C2B 5962  11.761  25.339  21.686 -0.1703  0.0646 -0.3387
  249BOLB   C3B 5963  11.900  25.619  21.987  0.0762 -0.3522 -0.2899
  249BOLB   C4B 5964  11.613  25.980  22.158  0.0954  0.1067  0.2148
  249BOLB   NC2 5965  12.112  25.929  25.469 -0.0827  0.1348 -0.0332
  249BOLB   PO2 5966  11.732  25.994  25.092  0.0313  0.2937 -0.1430
  249BOLB   GL3 5967  11.962  25.979  24.770 -0.1568 -0.2618  0.3247
  249BOLB   GL4 5968  12.176  26.229  24.667 -0.1936  0.1004 -0.1857
  249BOLB   C1C 5969  12.000  25.846  24.358  0.2712 -0.1786  0.1264
  249BOLB   C2C 5970  11.752  25.777  23.966  0.0283 -0.1089  0.3635
  249BOLB   C3C 5971  11.650  25.391  23.749 -0.0922  0.0131 -0.2456
  249BOLB   C4C 5972  11.324  25.347  23.329  0.3975 -0.1244  0.0582
  249BOLB   C1D 5973  12.336  26.216  24.242 -0.1682 -0.0364  0.0716
  249BOLB   C2D 5974  12.276  25.957  23.890  0.2049  0.0258  0.2794
  249BOLB   C3D 5975  12.082  25.634  23.620 -0.3371  0.3387 -0.4792
  249BOLB   C4D 5976  11.901  25.458  23.279  0.0132 -0.0861  0.1196
  250BOLB   NC1 5977  12.816  17.750  24.455 -0.2122  0.2042 -0.5573
  250BOLB   PO1 5978  12.765  18.078  24.566  0.3183  0.0955 -0.1070
  250BOLB   GL1 5979  12.564  18.490  24.753 -0.1602  0.1841  0.1050
  250BOLB   GL2 5980  12.519  18.390  25.067  0.2790 -0.0831  0.0193
  250BOLB   C1A 5981  12.580  18.857  24.805  0.1268  0.0800  0.1539
  250BOLB   C2A 5982  12.678  19.093  25.221  0.1888  0.2901  0.4447
  250BOLB   C3A 5983  12.727  19.507  25.403 -0.1174 -0.0765  0.3762
  250BOLB   C4A 5984  12.767  19.770  25.784  0.1081  0.1103 -0.3019
  250BOLB   C1B 5985  12.397  18.708  25.327  0.2491 -0.0589  0.0596
  250BOLB   C2B 5986  12.486  18.963  25.687 -0.0908  0.2992  0.1355
  250BOLB   C3B 5987  12.392  19.072  26.057  0.0691  0.0106  0.2486
  250BOLB   C4B 5988  12.544  19.042  26.482 -0.3454 -0.1347  0.1814
  250BOLB   NC2 5989  11.978  21.211  27.404 -0.2827 -0.4197  0.1077
  250BOLB   PO2 5990  12.223  21.484  27.337 -0.0310  0.2206 -0.1318
  250BOLB   GL3 5991  12.343  21.252  26.982  0.3436  0.1174 -0.0505
  250BOLB   GL4 5992  12.065  20.987  26.883  0.0912  0.0384 -0.3352
  250BOLB   C1C 5993  12.526  21.149  26.653 -0.0639 -0.2775  0.0397
  250BOLB   C2C 5994  12.925  20.871  26.428  0.1960  0.0897 -0.0871
  250BOLB   C3C 5995  12.939  20.402  26.418 -0.0296 -0.0825 -0.2113
  250BOLB   C4C 5996  12.957  20.009  26.105  0.0232 -0.0137 -0.2648
  250BOLB   C1D 5997  12.073  21.274  26.574  0.1333  0.0205  0.0780
  250BOLB   C2D 5998  12.015  21.615  26.415 -0.3587 -0.3066 -0.3155
  250BOLB   C3D 5999  12.190  22.066  26.505 -0.1772 -0.0759 -0.6680
  250BOLB   C4D 6000  12.418  22.475  26.526  0.0600 -0.3681 -0.1643
  251BOLB   NC1 6001  18.509  13.344  23.978  0.1606  0.0337  0.2960
  251BOLB   PO1 6002  18.370  13.809  24.038  0.1607 -0.2117 -0.1385
  251BOLB   GL1 6003  18.423  13.989  24.441  0.1507 -0.0743  0.1289
  251BOLB   GL2 6004  18.725  14.202  24.529 -0.0617  0.1539 -0.1032
  251BOLB   C1A 6005  18.445  13.925  24.848  0.2196  0.2867 -0.3424
  251BOLB   C2A 6006  18.190  13.854  25.111 -0.2384 -0.0619 -0.3541
  251BOLB   C3A 6007  18.156  13.794  25.549  0.0166  0.1933  0.1743
  251BOLB   C4A 6008  18.084  13.832  25.945  0.2595 -0.1550 -0.0742
  251BOLB   C1B 6009  19.002  14.289  24.807  0.0260  0.0678  0.1941
  251BOLB   C2B 6010  19.045  14.361  25.309  0.2900  0.0878  0.2029
  251BOLB   C3B 6011  19.475  14.630  25.423  0.0594 -0.0236  0.0238
  251BOLB   C4B 6012  19.670  14.514  25.837  0.0662  0.0219  0.3040
  251BOLB   NC2 6013  17.707  13.645  28.427  0.1861 -0.0040 -0.2839
  251BOLB   PO2 6014  18.171  13.704  28.396  0.2001  0.1821  0.0253
  251BOLB   GL3 6015  18.019  14.012  28.072 -0.0900  0.0038 -0.1658
  251BOLB   GL4 6016  17.900  14.404  28.150  0.0381 -0.0626 -0.0515
  251BOLB   C1C 6017  18.149  13.872  27.554  0.1971  0.0457 -0.0818
  251BOLB   C2C 6018  18.104  13.771  27.091  0.1162 -0.1812  0.0535
  251BOLB   C3C 6019  17.945  13.972  26.744  0.1991 -0.5860 -0.3714
  251BOLB   C4C 6020  17.902  13.963  26.334  0.0715 -0.2203  0.0126
  251BOLB   C1D 6021  17.992  14.723  27.769  0.0263  0.1472  0.0885
  251BOLB   C2D 6022  18.351  14.846  27.563 -0.4326 -0.0954  0.0355
  251BOLB   C3D 6023  18.443  14.983  27.157  0.5725 -0.1789  0.1100
  251BOLB   C4D 6024  18.773  15.066  26.997 -0.2586 -0.2130 -0.2265
  252BOLB   NC1 6025  12.817   8.185  22.519 -0.0887  0.0984  0.2731
  252BOLB   PO1 6026  12.736   8.348  22.830 -0.0742  0.1665  0.1191
  252BOLB   GL1 6027  12.868   8.338  23.214  0.0107  0.0018  0.0509
  252BOLB   GL2 6028  13.145   8.471  23.159 -0.1671 -0.0420  0.2849
  252BOLB   C1A 6029  12.920   8.492  23.668 -0.2219  0.3011 -0.0942
  252BOLB   C2A 6030  13.143   8.664  24.016  0.0181 -0.0555  0.0143
  252BOLB   C3A 6031  13.224   8.670  24.553  0.1889 -0.0510  0.0115
  252BOLB   C4A 6032  13.208   8.425  24.816  0.1986  0.1206 -0.0583
  252BOLB   C1B 6033  13.304   8.178  23.373  0.2791  0.0535 -0.0151
  252BOLB   C2B 6034  13.189   8.046  23.779  0.0360  0.2829  0.3647
  252BOLB   C3B 6035  13.239   8.177  24.227  0.0106  0.0553  0.0226
  252BOLB   C4B 6036  13.572   8.311  24.486 -0.2879  0.0531 -0.0655
  252BOLB   NC2 6037  14.190   7.381  26.423  0.1363  0.2676  0.2074
  252BOLB   PO2 6038  14.635   7.500  26.383 -0.0701 -0.1019  0.3198
  252BOLB   GL3 6039  14.398   7.836  26.190 -0.0229  0.0624 -0.2785
  252BOLB   GL4 6040  14.249   8.053  26.452  0.0668 -0.1825 -0.1942
  252BOLB   C1C 6041  14.046   8.047  25.929  0.2118  0.2265  0.0900
  252BOLB   C2C 6042  14.065   8.038  25.469  0.2117 -0.2725  0.1328
  252BOLB   C3C 6043  13.924   8.164  25.116  0.2300 -0.1794  0.0511
  252BOLB   C4C 6044  13.540   8.086  24.944 -0.1324  0.1198 -0.3710
  252BOLB   C1D 6045  14.422   8.309  26.112 -0.3061  0.0301 -0.5497
  252BOLB   C2D 6046  14.299   8.470  25.662 -0.0331  0.1275 -0.1441
  252BOLB   C3D 6047  14.368   8.746  25.334 -0.1356  0.2178 -0.1817
  252BOLB   C4D 6048  14.373   8.448  24.982  0.1882  0.0225 -0.2077
  253BOLB   NC1 6049  16.420  17.844  24.058  0.0492 -0.2174 -0.2948
  253BOLB   PO1 6050  16.117  18.138  24.418  0.2099 -0.1024  0.0383
  253BOLB   GL1 6051  16.260  18.064  24.877 -0.1945  0.2420 -0.1207
  253BOLB   GL2 6052  16.520  17.907  25.107  0.0650  0.2945 -0.0718
  253BOLB   C1A 6053  16.129  18.258  25.363  0.1408 -0.1250  0.1524
  253BOLB   C2A 6054  16.364  18.537  25.615 -0.2494 -0.2513 -0.0180
  253BOLB   C3A 6055  16.236  18.690  26.101 -0.4331 -0.0177  0.0840
  253BOLB   C4A 6056  16.402  18.980  26.432 -0.2849 -0.4186 -0.0183
  253BOLB   C1B 6057  16.559  18.030  25.521  0.1435  0.3321  0.0032
  253BOLB   C2B 6058  16.491  18.150  25.894 -0.0207 -0.0114 -0.0948
  253BOLB   C3B 6059  16.558  17.980  26.350  0.0611  0.0721  0.3354
  253BOLB   C4B 6060  16.669  17.981  26.740  0.1493  0.0464 -0.1254
  253BOLB   NC2 6061  15.595  19.420  28.688 -0.0324 -0.0359 -0.1060
  253BOLB   PO2 6062  15.886  19.018  28.714  0.0003  0.0410  0.0666
  253BOLB   GL3 6063  16.191  18.972  28.355  0.0463 -0.0306  0.1027
  253BOLB   GL4 6064  16.064  19.348  28.214  0.1415  0.0726  0.0944
  253BOLB   C1C 6065  16.178  18.833  28.045 -0.0544  0.1318  0.1486
  253BOLB   C2C 6066  16.228  19.131  27.696 -0.2261 -0.0423 -0.0171
  253BOLB   C3C 6067  16.389  18.939  27.239  0.1651  0.1791  0.2393
  253BOLB   C4C 6068  16.529  19.020  26.776  0.0089  0.2371  0.2438
  253BOLB   C1D 6069  15.748  19.128  27.868 -0.1852  0.0843 -0.3010
  253BOLB   C2D 6070  15.698  18.965  27.528  0.0735  0.1286 -0.1663
  253BOLB   C3D 6071  15.555  19.041  27.137  0.5149  0.1407  0.1051
  253BOLB   C4D 6072  15.607  19.522  26.994  0.0868  0.0714  0.3787
  254BOLB   NC1 6073  10.709  23.676  21.258 -0.0312  0.2306  0.3307
  254BOLB   PO1 6074  10.545  23.862  21.767  0.0428  0.4203  0.3023
  254BOLB   GL1 6075  10.607  24.008  22.176 -0.0437 -0.1119 -0.0880
  254BOLB   GL2 6076  10.326  24.001  22.312 -0.0464 -0.0785  0.2292
  254BOLB   C1A 6077  10.740  23.906  22.554  0.2596 -0.0587  0.0258
  254BOLB   C2A 6078  10.685  23.945  23.010  0.0310  0.0109  0.1305
  254BOLB   C3A 6079  10.836  24.088  23.362 -0.1833 -0.0509 -0.1032
  254BOLB   C4A 6080  10.868  24.087  23.894  0.1682  0.4399  0.0728
  254BOLB   C1B 6081  10.199  24.126  22.811  0.1981  0.0786 -0.1319
  254BOLB   C2B 6082  10.242  24.213  23.194  0.1445  0.2029 -0.2400
  254BOLB   C3B 6083  10.314  24.127  23.645  0.0673 -0.0939 -0.0520
  254BOLB   C4B 6084  10.296  24.303  24.052 -0.2229  0.4817  0.2375
  254BOLB   NC2 6085   9.803  24.276  26.324  0.0019 -0.0526  0.2929
  254BOLB   PO2 6086   9.986  24.004  26.040 -0.0555  0.2043 -0.0062
  254BOLB   GL3 6087  10.192  23.968  25.755  0.0067 -0.1221  0.3211
  254BOLB   GL4 6088  10.440  24.244  25.643 -0.3528 -0.1861 -0.1960
  254BOLB   C1C 6089  10.062  24.104  25.354  0.0663  0.0985  0.1004
  254BOLB   C2C 6090  10.293  24.155  24.977  0.1168 -0.0054  0.1945
  254BOLB   C3C 6091  10.536  24.256  24.649  0.2242  0.0342  0.0017
  254BOLB   C4C 6092  10.718  24.050  24.219 -0.2933 -0.1127 -0.1160
  254BOLB   C1D 6093  10.408  24.511  25.320 -0.1096  0.1587 -0.0637
  254BOLB   C2D 6094  10.327  24.739  24.873  0.0741 -0.0497 -0.3775
  254BOLB   C3D 6095  10.641  24.731  24.592 -0.1006 -0.1329 -0.0172
  254BOLB   C4D 6096  10.976  24.815  24.433  0.1689  0.2134  0.1509
  255BOLB   NC1 6097  18.735  20.783  22.908 -0.0701 -0.2575 -0.3386
  255BOLB   PO1 6098  18.474  20.676  23.252 -0.2424  0.2103 -0.0048
  255BOLB   GL1 6099  18.535  20.925  23.580 -0.0184 -0.2224 -0.4203
  255BOLB   GL2 6100  18.408  21.160  23.531 -0.2803 -0.0858  0.2796
  255BOLB   C1A 6101  18.701  21.176  24.015 -0.0199 -0.2181 -0.0075
  255BOLB   C2A 6102  18.829  21.033  24.422  0.1258  0.1717 -0.3115
  255BOLB   C3A 6103  18.912  21.293  24.842  0.0165  0.1563  0.4009
  255BOLB   C4A 6104  19.093  21.353  25.198 -0.4208  0.1393 -0.2828
  255BOLB   C1B 6105  18.372  21.475  23.828 -0.1480  0.1467  0.2636
  255BOLB   C2B 6106  18.553  21.555  24.285  0.2526  0.1869  0.1784
  255BOLB   C3B 6107  18.687  21.699  24.713  0.0546 -0.1487  0.0943
  255BOLB   C4B 6108  18.740  21.744  25.050  0.1447  0.2266 -0.2029
  255BOLB   NC2 6109  19.424  22.376  27.113 -0.1421  0.5671 -0.0642
  255BOLB   PO2 6110  19.360  21.971  26.824 -0.0716  0.1472 -0.0997
  255BOLB   GL3 6111  19.271  21.887  26.430  0.2897  0.1243  0.1431
  255BOLB   GL4 6112  18.965  21.993  26.440  0.1044 -0.0709  0.0728
  255BOLB   C1C 6113  19.289  21.621  26.214 -0.4088 -0.2233 -0.0586
  255BOLB   C2C 6114  19.535  21.300  26.106  0.2802 -0.3537 -0.0488
  255BOLB   C3C 6115  19.490  21.499  25.700  0.1226  0.2309  0.0906
  255BOLB   C4C 6116  19.506  21.455  25.350  0.0213 -0.0261 -0.0131
  255BOLB   C1D 6117  18.605  21.690  26.559  0.3136 -0.0618 -0.0586
  255BOLB   C2D 6118  18.408  21.405  26.348  0.2789  0.0951 -0.1583
  255BOLB   C3D 6119  17.943  21.514  26.135  0.1489 -0.5296 -0.4990
  255BOLB   C4D 6120  17.783  21.585  25.671 -0.0593  0.1747 -0.0536
  256BOLB   NC1 6121  11.919  10.397  22.818  0.4017  0.2221  0.0291
  256BOLB   PO1 6122  11.874  10.478  23.200  0.3101  0.3664  0.0034
  256BOLB   GL1 6123  11.835  10.364  23.682  0.1872 -0.1168 -0.0426
  256BOLB   GL2 6124  12.183  10.464  23.928 -0.0041  0.0061 -0.2241
  256BOLB   C1A 6125  11.778  10.148  24.056  0.1956 -0.0671 -0.0451
  256BOLB   C2A 6126  11.751  10.210  24.458  0.1224  0.1224  0.5260
  256BOLB   C3A 6127  11.502  10.154  24.849 -0.0238  0.3838  0.3172
  256BOLB   C4A 6128  11.341  10.169  25.259 -0.4646  0.1778 -0.0050
  256BOLB   C1B 6129  12.299  10.590  24.330  0.0167  0.0903  0.0262
  256BOLB   C2B 6130  12.539  10.544  24.715 -0.2591  0.1534 -0.1012
  256BOLB   C3B 6131  12.832  10.488  25.026 -0.0507  0.0386 -0.3271
  256BOLB   C4B 6132  12.959  10.088  25.246 -0.3322  0.0372  0.1477
  256BOLB   NC2 6133  11.417  10.836  27.864  0.0899  0.0802 -0.0227
  256BOLB   PO2 6134  11.198  10.570  27.569  0.1232  0.0698 -0.2639
  256BOLB   GL3 6135  11.149  10.517  27.202 -0.0406 -0.0407 -0.2124
  256BOLB   GL4 6136  11.036  10.829  27.145  0.2865  0.2339  0.1064
  256BOLB   C1C 6137  11.184  10.195  26.824 -0.1759  0.0349  0.2121
  256BOLB   C2C 6138  10.904  10.156  26.439  0.2648 -0.1763 -0.2069
  256BOLB   C3C 6139  10.938  10.046  25.981 -0.0445 -0.1431 -0.1033
  256BOLB   C4C 6140  11.033  10.130  25.570  0.0298 -0.2495 -0.1047
  256BOLB   C1D 6141  11.455  10.768  26.850 -0.3164 -0.1443  0.1867
  256BOLB   C2D 6142  11.757  10.796  26.615 -0.0608  0.0145  0.2954
  256BOLB   C3D 6143  12.005  10.618  26.306 -0.0924 -0.0755  0.1474
  256BOLB   C4D 6144  12.365  10.662  25.954  0.0450 -0.1423 -0.2585
  257BOLB   NC1 6145  17.168  11.904  23.038  0.1615 -0.0654  0.0791
  257BOLB   PO1 6146  17.461  12.078  23.483 -0.0068 -0.1164  0.1098
  257BOLB   GL1 6147  17.520  11.903  23.886 -0.2942  0.3054  0.2656
  257BOLB   GL2 6148  17.169  11.981  24.206  0.2795  0.3075 -0.0603
  257BOLB   C1A 6149  17.616  11.445  24.105  0.1054 -0.2544 -0.1091
  257BOLB   C2A 6150  17.727  11.016  24.324  0.1503 -0.0763  0.3119
  257BOLB   C3A 6151  18.083  10.857  24.608  0.1519 -0.0528  0.0490
  257BOLB   C4A 6152  18.149  10.599  24.911 -0.1673  0.1603 -0.1517
  257BOLB   C1B 6153  17.463  11.813  24.452  0.3024  0.0514  0.0090
  257BOLB   C2B 6154  17.651  11.701  24.686  0.0300 -0.3625 -0.3143
  257BOLB   C3B 6155  17.755  11.730  25.150 -0.1461  0.1805 -0.4949
  257BOLB   C4B 6156  17.588  11.595  25.525 -0.0823  0.0350 -0.1103
  257BOLB   NC2 6157  18.181   8.199  25.686  0.0403 -0.1910  0.0090
  257BOLB   PO2 6158  18.026   8.646  25.598 -0.1582 -0.1484  0.2519
  257BOLB   GL3 6159  17.789   9.000  25.426  0.0788 -0.2676  0.1084
  257BOLB   GL4 6160  17.729   8.776  25.206  0.0066  0.2960 -0.3651
  257BOLB   C1C 6161  17.666   9.224  25.109 -0.1967 -0.1346 -0.0092
  257BOLB   C2C 6162  17.517   9.611  25.008 -0.0195 -0.0954 -0.1856
  257BOLB   C3C 6163  17.842   9.818  25.083  0.0087  0.0886  0.1797
  257BOLB   C4C 6164  18.105  10.202  24.900  0.2587  0.0464 -0.0187
  257BOLB   C1D 6165  17.676   8.880  24.719 -0.2684  0.0872  0.0472
  257BOLB   C2D 6166  17.391   9.198  24.709 -0.1850  0.1350  0.1985
  257BOLB   C3D 6167  17.294   9.573  24.539  0.0486 -0.1204 -0.3175
  257BOLB   C4D 6168  17.531   9.763  24.147  0.2598  0.2522 -0.3222
  258BOLB   NC1 6169  22.295  15.548  23.469  0.1642 -0.1254 -0.3253
  258BOLB   PO1 6170  22.676  15.278  23.376 -0.3154  0.1910 -0.0793
  258BOLB   GL1 6171  22.711  15.496  23.707 -0.0634 -0.4490 -0.0027
  258BOLB   GL2 6172  22.978  15.649  23.818 -0.1525 -0.0309  0.1153
  258BOLB   C1A 6173  22.823  15.278  24.089  0.0209 -0.1263 -0.1444
  258BOLB   C2A 6174  22.853  15.241  24.506  0.2065  0.2446 -0.3266
  258BOLB   C3A 6175  23.047  15.128  24.914  0.0508 -0.0635 -0.2645
  258BOLB   C4A 6176  23.242  14.892  25.246  0.1633  0.1572 -0.1535
  258BOLB   C1B 6177  22.875  15.806  24.132 -0.1731  0.0548 -0.3729
  258BOLB   C2B 6178  23.071  15.713  24.467  0.1449  0.2247 -0.0448
  258BOLB   C3B 6179  23.276  15.647  24.911 -0.0080  0.0588  0.0900
  258BOLB   C4B 6180  23.470  16.061  25.202  0.6498  0.3680 -0.1990
  258BOLB   NC2 6181  24.251  13.257  26.768  0.0480 -0.1570 -0.1401
  258BOLB   PO2 6182  24.071  13.612  26.931 -0.0955  0.0206 -0.0899
  258BOLB   GL3 6183  23.964  13.906  26.570 -0.2486 -0.1307  0.2271
  258BOLB   GL4 6184  23.833  14.270  26.539  0.1275 -0.0004  0.2482
  258BOLB   C1C 6185  24.119  14.058  26.256  0.3369 -0.0080  0.2317
  258BOLB   C2C 6186  24.072  14.336  26.022 -0.0307 -0.1927  0.0437
  258BOLB   C3C 6187  23.764  14.433  25.736 -0.2905 -0.4294 -0.3785
  258BOLB   C4C 6188  23.668  14.752  25.401  0.1599 -0.1113 -0.3387
  258BOLB   C1D 6189  23.695  14.577  26.222 -0.2706 -0.0845 -0.2318
  258BOLB   C2D 6190  23.383  14.786  25.904  0.1083 -0.0109  0.0095
  258BOLB   C3D 6191  23.096  15.139  25.832 -0.0326 -0.3557 -0.1173
  258BOLB   C4D 6192  22.731  15.476  25.824  0.0639  0.0214  0.1472
  259BOLB   NC1 6193  11.316  24.393  21.543 -0.3002 -0.0570 -0.2745
  259BOLB   PO1 6194  11.857  24.315  21.434  0.0202 -0.0746  0.1748
  259BOLB   GL1 6195  11.733  24.558  21.822  0.0601  0.1492  0.0291
  259BOLB   GL2 6196  11.539  24.421  22.103 -0.1539 -0.0733 -0.1491
  259BOLB   C1A 6197  11.945  24.721  22.272 -0.1752  0.2585 -0.1358
  259BOLB   C2A 6198  11.894  24.813  22.644  0.1529 -0.0878 -0.0992
  259BOLB   C3A 6199  12.147  24.948  23.040  0.2762  0.0048 -0.2183
  259BOLB   C4A 6200  12.351  25.235  23.370  0.0804  0.0130 -0.1495
  259BOLB   C1B 6201  11.391  24.677  22.467 -0.1687  0.0120  0.3958
  259BOLB   C2B 6202  11.371  25.181  22.451  0.0627  0.2846  0.1123
  259BOLB   C3B 6203  11.520  25.602  22.517 -0.0839 -0.1157 -0.0252
  259BOLB   C4B 6204  11.699  25.735  22.830  0.4520  0.0122 -0.1586
  259BOLB   NC2 6205  12.468  26.521  24.946 -0.0607  0.1058  0.1664
  259BOLB   PO2 6206  12.397  26.231  25.143  0.2520  0.0038 -0.0766
  259BOLB   GL3 6207  12.579  25.876  24.964 -0.0512  0.2223 -0.1017
  259BOLB   GL4 6208  12.575  25.719  25.301  0.3010 -0.1167 -0.1997
  259BOLB   C1C 6209  12.656  25.446  24.843 -0.2256  0.1337 -0.0291
  259BOLB   C2C 6210  12.708  25.113  24.554 -0.0676  0.0848  0.3886
  259BOLB   C3C 6211  12.672  25.313  24.153 -0.0038 -0.1996  0.0836
  259BOLB   C4C 6212  12.518  25.392  23.747  0.0246 -0.3942 -0.0036
  259BOLB   C1D 6213  12.365  25.302  25.286 -0.0567 -0.0633 -0.0470
  259BOLB   C2D 6214  12.432  25.015  25.010  0.2031  0.0393  0.1104
  259BOLB   C3D 6215  12.448  24.711  24.774  0.2488  0.3808  0.1115
  259BOLB   C4D 6216  12.361  24.291  24.527 -0.0202 -0.0892  0.0652
  260BOLB   NC1 6217  19.490  10.110  21.037  0.0569 -0.3257  0.1094
  260BOLB   PO1 6218  19.855  10.150  20.894 -0.0340 -0.0306 -0.1802
  260BOLB   GL1 6219  19.893   9.787  20.955 -0.0040 -0.2457 -0.1936
  260BOLB   GL2 6220  19.634   9.600  21.147  0.1201 -0.4827  0.1081
  260BOLB   C1A 6221  20.059   9.580  21.287  0.0048 -0.1885 -0.4091
  260BOLB   C2A 6222  20.287   9.401  21.502 -0.0764  0.1132 -0.2887
  260BOLB   C3A 6223  20.657   9.322  21.623 -0.1689 -0.1012 -0.3056
  260BOLB   C4A 6224  21.031   9.051  21.792 -0.2016  0.2570 -0.0247
  260BOLB   C1B 6225  19.567   9.236  20.948 -0.2903 -0.2819  0.1937
  260BOLB   C2B 6226  19.761   8.820  20.760 -0.0935 -0.0346  0.1656
  260BOLB   C3B 6227  19.970   8.460  20.932  0.0197 -0.3593  0.0180
  260BOLB   C4B 6228  19.831   7.998  20.932  0.2882  0.0346  0.0167
  260BOLB   NC2 6229  21.509   6.584  22.933 -0.1147 -0.2497  0.1758
  260BOLB   PO2 6230  21.610   6.872  22.529  0.1953 -0.1100 -0.0505
  260BOLB   GL3 6231  21.751   7.237  22.290  0.2136 -0.1643  0.1616
  260BOLB   GL4 6232  21.901   7.191  21.888 -0.0561  0.1526  0.2205
  260BOLB   C1C 6233  21.766   7.624  22.302 -0.2684 -0.0126  0.0897
  260BOLB   C2C 6234  21.599   8.040  22.229 -0.2204  0.1878 -0.1774
  260BOLB   C3C 6235  21.226   8.288  22.145  0.1606  0.2329  0.0261
  260BOLB   C4C 6236  21.120   8.569  21.884 -0.2658 -0.4743 -0.0041
  260BOLB   C1D 6237  21.721   7.611  21.803  0.0457 -0.3232  0.0307
  260BOLB   C2D 6238  21.647   8.023  21.763 -0.0776 -0.1566  0.1161
  260BOLB   C3D 6239  21.589   8.453  21.721  0.0246  0.0903  0.1206
  260BOLB   C4D 6240  21.674   8.829  21.902  0.3144  0.1742  0.0672
  261BOLB   NC1 6241  18.329  21.546  23.040 -0.0695  0.0186 -0.0194
  261BOLB   PO1 6242  18.049  21.882  23.137  0.0639  0.1037  0.0974
  261BOLB   GL1 6243  18.049  22.088  23.357 -0.0310  0.0541 -0.0680
  261BOLB   GL2 6244  18.209  22.106  23.660  0.1724 -0.0708 -0.1562
  261BOLB   C1A 6245  18.046  22.557  23.543  0.2575 -0.0752 -0.0525
  261BOLB   C2A 6246  17.983  22.906  23.690 -0.2982  0.2277 -0.2113
  261BOLB   C3A 6247  18.040  23.038  24.185 -0.0815 -0.2421 -0.1080
  261BOLB   C4A 6248  17.775  23.185  24.580  0.1180  0.3372  0.0196
  261BOLB   C1B 6249  18.260  22.342  24.004  0.2166  0.2587  0.2101
  261BOLB   C2B 6250  18.208  22.614  24.407 -0.0880  0.1674  0.1765
  261BOLB   C3B 6251  18.202  22.890  24.686  0.1064 -0.1378  0.1987
  261BOLB   C4B 6252  18.151  23.279  24.966 -0.4556  0.0110 -0.0252
  261BOLB   NC2 6253  17.873  23.278  27.260 -0.1115 -0.0355  0.5130
  261BOLB   PO2 6254  17.567  22.972  27.141  0.1074  0.1036 -0.1341
  261BOLB   GL3 6255  17.624  22.763  26.640  0.2963  0.0810 -0.1452
  261BOLB   GL4 6256  17.762  22.467  26.518 -0.3035  0.0524 -0.0139
  261BOLB   C1C 6257  17.674  23.024  26.293  0.2500  0.2159  0.1123
  261BOLB   C2C 6258  17.623  22.957  25.888 -0.1199 -0.0177  0.0006
  261BOLB   C3C 6259  17.546  22.941  25.460 -0.0635  0.0399  0.0025
  261BOLB   C4C 6260  17.728  22.932  25.022 -0.1956 -0.0088  0.1997
  261BOLB   C1D 6261  17.406  22.209  26.264  0.1133 -0.4784 -0.0212
  261BOLB   C2D 6262  17.030  22.191  26.015  0.1557  0.1275 -0.0901
  261BOLB   C3D 6263  16.802  22.071  25.770 -0.1136  0.0583  0.3175
  261BOLB   C4D 6264  16.762  21.972  25.426  0.0601  0.3565 -0.0097
  262BOLB   NC1 6265   9.588  17.234  23.267  0.2497 -0.2172  0.1172
  262BOLB   PO1 6266   9.968  17.468  23.349  0.3400 -0.1480  0.0129
  262BOLB   GL1 6267   9.714  17.468  23.676 -0.0199  0.0470 -0.4308
  262BOLB   GL2 6268   9.392  17.280  23.834  0.2684 -0.1597  0.1967
  262BOLB   C1A 6269   9.538  17.662  24.119 -0.0346  0.2250  0.2880
  262BOLB   C2A 6270   9.362  17.547  24.588 -0.0754  0.2168  0.0144
  262BOLB   C3A 6271   9.211  17.488  25.107 -0.0378  0.1380  0.2459
  262BOLB   C4A 6272   9.165  17.045  25.213  0.3631 -0.0226  0.3567
  262BOLB   C1B 6273   9.116  17.420  24.142  0.0017  0.3344 -0.2972
  262BOLB   C2B 6274   8.850  17.716  24.506 -0.0824  0.4540 -0.2078
  262BOLB   C3B 6275   8.876  17.819  24.871  0.1243 -0.2297 -0.0217
  262BOLB   C4B 6276   8.469  17.762  25.183  0.2800  0.1027  0.1143
  262BOLB   NC2 6277   7.777  17.164  27.310  0.0607 -0.0731 -0.1108
  262BOLB   PO2 6278   7.588  16.982  26.905  0.1798  0.1166 -0.2473
  262BOLB   GL3 6279   7.807  16.896  26.548  0.1514  0.4028 -0.1028
  262BOLB   GL4 6280   8.153  17.027  26.589  0.1288 -0.0849 -0.0964
  262BOLB   C1C 6281   8.089  16.830  26.149  0.1765 -0.1195  0.0574
  262BOLB   C2C 6282   8.313  16.743  25.845  0.1975  0.2034 -0.0725
  262BOLB   C3C 6283   8.586  16.675  25.566 -0.0033 -0.1319 -0.0499
  262BOLB   C4C 6284   8.898  16.864  25.431 -0.2562 -0.1703 -0.2032
  262BOLB   C1D 6285   8.051  17.357  26.393 -0.2856 -0.2480 -0.2193
  262BOLB   C2D 6286   7.995  17.238  25.922  0.1207 -0.1447  0.0993
  262BOLB   C3D 6287   8.214  17.283  25.666 -0.0442  0.4438  0.2310
  262BOLB   C4D 6288   8.292  17.693  25.656 -0.1210 -0.1224  0.1935
  263BOLB   NC1 6289  21.305  15.008  23.673  0.0559 -0.4745  0.0109
  263BOLB   PO1 6290  20.837  14.967  23.692 -0.4341  0.4397 -0.4188
  263BOLB   GL1 6291  20.691  14.736  24.090 -0.1443  0.0900  0.1660
  263BOLB   GL2 6292  20.554  15.012  24.181  0.2244 -0.1636 -0.1400
  263BOLB   C1A 6293  20.833  14.521  24.550 -0.1282 -0.1134  0.0425
  263BOLB   C2A 6294  20.860  14.594  24.995  0.2525  0.1877  0.1668
  263BOLB   C3A 6295  21.051  14.445  25.320  0.1681 -0.4068  0.1321
  263BOLB   C4A 6296  21.169  14.168  25.595 -0.0384  0.0557 -0.0484
  263BOLB   C1B 6297  20.857  15.004  24.561  0.4579  0.0309  0.0316
  263BOLB   C2B 6298  20.876  15.062  24.968 -0.0515  0.1194 -0.2607
  263BOLB   C3B 6299  21.142  15.116  25.253  0.1019 -0.3727  0.2881
  263BOLB   C4B 6300  21.222  14.923  25.728  0.0932  0.0562 -0.0743
  263BOLB   NC2 6301  22.253  12.183  27.172 -0.0638 -0.1779 -0.1175
  263BOLB   PO2 6302  22.033  12.586  27.182  0.3502  0.0661 -0.2815
  263BOLB   GL3 6303  22.212  12.642  26.807 -0.0066 -0.1102  0.0266
  263BOLB   GL4 6304  22.105  12.379  26.610 -0.1681 -0.1159  0.1568
  263BOLB   C1C 6305  21.974  12.822  26.439  0.4150  0.1369  0.0156
  263BOLB   C2C 6306  21.961  13.180  26.251 -0.0634  0.0508  0.2721
  263BOLB   C3C 6307  21.784  13.596  26.081  0.1537  0.1018  0.1154
  263BOLB   C4C 6308  21.389  13.862  25.883 -0.4873 -0.0421 -0.1035
  263BOLB   C1D 6309  22.555  12.462  26.473  0.0664 -0.0032  0.3533
  263BOLB   C2D 6310  22.772  12.680  26.067  0.0421  0.0241  0.0401
  263BOLB   C3D 6311  22.844  12.885  25.752 -0.2039  0.1851 -0.2025
  263BOLB   C4D 6312  23.038  13.107  25.490 -0.0707 -0.6556 -0.0363
  264BOLB   NC1 6313  16.445  20.929  23.391  0.1581 -0.2811  0.0343
  264BOLB   PO1 6314  16.139  21.158  23.473 -0.1087 -0.2460 -0.0908
  264BOLB   GL1 6315  16.387  21.206  23.797  0.1737  0.2699  0.1096
  264BOLB   GL2 6316  16.714  21.135  23.849 -0.1933  0.1137  0.3989
  264BOLB   C1A 6317  16.441  21.462  24.149  0.1990 -0.1533  0.0363
  264BOLB   C2A 6318  16.669  21.570  24.574  0.0769 -0.1772  0.2554
  264BOLB   C3A 6319  16.575  21.853  24.903 -0.1380 -0.0262 -0.1368
  264BOLB   C4A 6320  16.513  22.259  25.096 -0.3829 -0.0142 -0.0082
  264BOLB   C1B 6321  16.906  21.344  24.150 -0.2110  0.0884 -0.2061
  264BOLB   C2B 6322  17.237  21.396  24.475 -0.1390 -0.2054 -0.1566
  264BOLB   C3B 6323  17.604  21.427  24.716 -0.2075 -0.0622  0.1133
  264BOLB   C4B 6324  17.829  21.397  25.107 -0.0420 -0.1297 -0.1385
  264BOLB   NC2 6325  15.621  22.858  27.126  0.1287  0.0521 -0.2075
  264BOLB   PO2 6326  15.818  23.197  27.109  0.0016  0.2905 -0.3833
  264BOLB   GL3 6327  16.056  23.263  26.736  0.1441  0.1024 -0.1113
  264BOLB   GL4 6328  15.906  23.205  26.483 -0.0173  0.0633  0.1476
  264BOLB   C1C 6329  16.377  23.207  26.304  0.1362  0.1512 -0.2076
  264BOLB   C2C 6330  16.575  22.825  26.323 -0.0934 -0.0208 -0.0106
  264BOLB   C3C 6331  16.751  22.623  25.981  0.0070  0.4205 -0.0270
  264BOLB   C4C 6332  16.687  22.488  25.489 -0.1793 -0.2097 -0.0281
  264BOLB   C1D 6333  15.645  22.958  26.411 -0.1054 -0.0242 -0.0638
  264BOLB   C2D 6334  15.452  22.633  26.150 -0.3067  0.3100 -0.1502
  264BOLB   C3D 6335  15.340  22.556  25.792 -0.2044  0.2246 -0.0322
  264BOLB   C4D 6336  15.083  22.426  25.426  0.2773  0.1718  0.2734
  265BOLB   NC1 6337  20.390  14.732  23.695  0.0402  0.1585 -0.1624
  265BOLB   PO1 6338  20.316  14.377  23.504 -0.1305  0.1728  0.1708
  265BOLB   GL1 6339  20.607  14.282  23.856 -0.2290  0.2087  0.1566
  265BOLB   GL2 6340  20.597  13.893  23.790  0.4274  0.3285 -0.0033
  265BOLB   C1A 6341  20.748  14.178  24.249  0.1634 -0.0208 -0.0849
  265BOLB   C2A 6342  20.667  14.035  24.541  0.0264  0.0844  0.0818
  265BOLB   C3A 6343  20.679  14.083  24.975 -0.1662 -0.0455  0.4593
  265BOLB   C4A 6344  20.711  14.008  25.470  0.0217  0.1142  0.0875
  265BOLB   C1B 6345  20.516  13.710  24.179 -0.0697  0.1598  0.0402
  265BOLB   C2B 6346  20.540  13.489  24.519 -0.2566  0.1592 -0.0739
  265BOLB   C3B 6347  20.457  13.384  24.917 -0.2537  0.0352  0.0775
  265BOLB   C4B 6348  20.661  13.495  25.327  0.2787 -0.2666  0.1360
  265BOLB   NC2 6349  21.139  12.927  27.481 -0.0193 -0.0908 -0.0543
  265BOLB   PO2 6350  20.988  13.298  27.839 -0.1443  0.2450  0.0446
  265BOLB   GL3 6351  20.883  13.398  27.434 -0.0817 -0.0034  0.2635
  265BOLB   GL4 6352  21.150  13.581  27.294 -0.3318  0.1663 -0.0060
  265BOLB   C1C 6353  20.584  13.307  27.086 -0.0738  0.1514  0.0423
  265BOLB   C2C 6354  20.384  13.533  26.794 -0.0391 -0.0295  0.1139
  265BOLB   C3C 6355  20.563  13.659  26.386 -0.0537 -0.0691  0.1576
  265BOLB   C4C 6356  20.617  13.842  25.938 -0.0601  0.2482 -0.0346
  265BOLB   C1D 6357  21.268  13.948  27.122 -0.0893  0.2361  0.0370
  265BOLB   C2D 6358  20.946  14.227  26.990  0.1894 -0.0304  0.4160
  265BOLB   C3D 6359  20.892  14.002  26.576  0.2771 -0.1085 -0.2008
  265BOLB   C4D 6360  21.014  13.595  26.647  0.2707 -0.0849  0.2674
  266BOLB   NC1 6361  17.911  22.857  21.566 -0.0194 -0.2227 -0.1026
  266BOLB   PO1 6362  17.786  23.379  21.705 -0.1145  0.1550  0.1893
  266BOLB   GL1 6363  17.751  23.690  21.929  0.0133 -0.3619 -0.0364
  266BOLB   GL2 6364  17.450  23.799  21.945 -0.0034  0.1308 -0.1658
  266BOLB   C1A 6365  17.792  23.933  22.266 -0.2149  0.1478 -0.2062
  266BOLB   C2A 6366  17.883  24.230  22.578 -0.1441  0.2174  0.0522
  266BOLB   C3A 6367  17.881  24.352  23.031  0.2103  0.2708  0.2251
  266BOLB   C4A 6368  17.677  24.368  23.404 -0.0971  0.1824 -0.1604
  266BOLB   C1B 6369  17.393  24.171  22.233 -0.3464  0.2550 -0.1165
  266BOLB   C2B 6370  17.389  24.475  22.462  0.4888  0.0749  0.3349
  266BOLB   C3B 6371  17.243  24.720  22.764  0.1290  0.2296 -0.3023
  266BOLB   C4B 6372  17.460  25.047  22.757  0.0506 -0.0215 -0.1884
  266BOLB   NC2 6373  18.514  26.449  24.054 -0.0355 -0.2337 -0.0612
  266BOLB   PO2 6374  18.002  26.392  24.118 -0.2122  0.1413  0.1834
  266BOLB   GL3 6375  17.822  26.071  24.158 -0.0710 -0.2600 -0.2423
  266BOLB   GL4 6376  17.512  26.055  24.044 -0.2888 -0.0478  0.0039
  266BOLB   C1C 6377  17.696  25.603  24.151 -0.3340 -0.1544  0.0848
  266BOLB   C2C 6378  17.650  25.212  24.063 -0.2507  0.0356 -0.1234
  266BOLB   C3C 6379  17.521  24.867  23.971 -0.0234 -0.2015  0.3015
  266BOLB   C4C 6380  17.630  24.388  23.765  0.4354  0.0616  0.2526
  266BOLB   C1D 6381  17.562  25.862  23.691  0.0526  0.0199 -0.1418
  266BOLB   C2D 6382  17.599  25.591  23.583 -0.1354  0.0611 -0.0275
  266BOLB   C3D 6383  17.322  25.168  23.591 -0.1691 -0.0422 -0.0331
  266BOLB   C4D 6384  17.033  24.926  23.206 -0.0000 -0.2195  0.0020
  267BOLB   NC1 6385  12.912  10.956  23.836 -0.0340  0.0140 -0.1323
  267BOLB   PO1 6386  13.257  10.996  23.842  0.0367 -0.0982 -0.0462
  267BOLB   GL1 6387  13.473  10.729  24.138 -0.4337  0.1431  0.0005
  267BOLB   GL2 6388  13.652  11.005  24.163  0.2895 -0.0807  0.2933
  267BOLB   C1A 6389  13.388  11.012  24.638  0.1195  0.0072 -0.3816
  267BOLB   C2A 6390  13.196  10.864  25.042 -0.2546 -0.0568 -0.1206
  267BOLB   C3A 6391  13.033  10.711  25.392 -0.2128 -0.2709 -0.1312
  267BOLB   C4A 6392  12.844  10.611  25.873 -0.1697  0.0677 -0.1788
  267BOLB   C1B 6393  13.798  11.224  24.453  0.0097 -0.0262  0.0061
  267BOLB   C2B 6394  13.920  11.338  24.902 -0.1279  0.1792  0.4511
  267BOLB   C3B 6395  14.019  11.248  25.293  0.0526 -0.0699  0.0307
  267BOLB   C4B 6396  14.067  11.233  25.784 -0.0672  0.0290  0.1539
  267BOLB   NC2 6397  11.542   9.758  28.106  0.0309 -0.0761 -0.0246
  267BOLB   PO2 6398  11.880   9.963  27.759 -0.3201  0.1353 -0.1492
  267BOLB   GL3 6399  12.177  10.080  27.468 -0.2657 -0.1733  0.2882
  267BOLB   GL4 6400  12.151   9.852  27.273 -0.1754  0.3546 -0.1216
  267BOLB   C1C 6401  12.553  10.124  27.248 -0.1730 -0.1739  0.0545
  267BOLB   C2C 6402  12.919  10.209  26.974  0.1947 -0.1060 -0.0460
  267BOLB   C3C 6403  12.848  10.104  26.551 -0.0251 -0.2234  0.0586
  267BOLB   C4C 6404  12.980  10.316  26.216  0.0857  0.2523 -0.0267
  267BOLB   C1D 6405  12.126  10.118  26.974  0.4097  0.3449  0.1501
  267BOLB   C2D 6406  11.725  10.309  26.774 -0.2391  0.1809  0.2267
  267BOLB   C3D 6407  11.542  10.352  26.465  0.1561  0.0215 -0.1751
  267BOLB   C4D 6408  11.422  10.462  26.116  0.0447  0.1388 -0.3822
  268BOLB   NC1 6409  13.026  12.785  23.974 -0.2640  0.0078 -0.0246
  268BOLB   PO1 6410  13.267  12.947  24.426 -0.2481  0.2313  0.2267
  268BOLB   GL1 6411  13.478  12.997  24.826  0.0920  0.3087  0.3051
  268BOLB   GL2 6412  13.417  12.670  24.848 -0.1979 -0.0481 -0.2835
  268BOLB   C1A 6413  13.570  13.148  25.255 -0.0186 -0.0191 -0.0643
  268BOLB   C2A 6414  13.583  12.909  25.714  0.2863  0.1847  0.2737
  268BOLB   C3A 6415  13.660  12.690  26.015 -0.1711  0.0736  0.3016
  268BOLB   C4A 6416  13.588  12.519  26.502 -0.2793  0.0282 -0.0934
  268BOLB   C1B 6417  13.366  12.609  25.299  0.0277 -0.0440 -0.0610
  268BOLB   C2B 6418  13.352  12.401  25.712  0.0848 -0.1989 -0.0102
  268BOLB   C3B 6419  13.114  12.073  25.976 -0.3123 -0.2416  0.0060
  268BOLB   C4B 6420  12.561  11.994  25.943 -0.2135 -0.0521  0.1857
  268BOLB   NC2 6421  13.152  11.060  28.203  0.0499  0.2455 -0.1886
  268BOLB   PO2 6422  13.209  11.291  28.500 -0.2016 -0.1206  0.0354
  268BOLB   GL3 6423  13.198  11.511  27.996  0.1367  0.2423  0.2230
  268BOLB   GL4 6424  13.178  11.315  27.780 -0.2427  0.0189  0.1187
  268BOLB   C1C 6425  13.149  11.838  27.759 -0.1749 -0.0184  0.0372
  268BOLB   C2C 6426  13.105  12.057  27.391 -0.1006  0.0350  0.1172
  268BOLB   C3C 6427  13.135  11.993  27.021  0.3469 -0.0424 -0.2631
  268BOLB   C4C 6428  13.323  12.176  26.623  0.1267 -0.1714 -0.1839
  268BOLB   C1D 6429  12.941  11.163  27.417 -0.1822  0.1790  0.0354
  268BOLB   C2D 6430  13.062  11.049  26.996  0.0082  0.1623  0.1339
  268BOLB   C3D 6431  13.463  10.743  26.884  0.0559 -0.1854 -0.1772
  268BOLB   C4D 6432  13.540  10.262  27.054  0.0947 -0.2495 -0.3143
  269BOLB   NC1 6433  17.686  21.572  22.903  0.1125  0.1294 -0.1519
  269BOLB   PO1 6434  17.323  21.363  23.057  0.0762  0.3756 -0.0755
  269BOLB   GL1 6435  17.390  21.507  23.371 -0.0232  0.1475  0.2576
  269BOLB   GL2 6436  17.378  21.389  23.753  0.0338 -0.0638 -0.2293
  269BOLB   C1A 6437  17.552  21.904  23.646  0.3175  0.1541 -0.2331
  269BOLB   C2A 6438  17.754  22.219  23.834  0.3544  0.2987  0.0917
  269BOLB   C3A 6439  17.789  22.332  24.261  0.1820  0.2861 -0.1159
  269BOLB   C4A 6440  17.906  22.243  24.662  0.0189  0.1745  0.2199
  269BOLB   C1B 6441  17.514  21.571  24.082  0.1907  0.0404 -0.2354
  269BOLB   C2B 6442  17.519  21.834  24.479  0.0440  0.0717 -0.5943
  269BOLB   C3B 6443  17.824  21.835  24.832 -0.3124 -0.1654 -0.1939
  269BOLB   C4B 6444  17.774  21.932  25.230 -0.1434  0.0929 -0.0576
  269BOLB   NC2 6445  18.524  22.725  27.041 -0.1372  0.1610  0.0176
  269BOLB   PO2 6446  18.860  22.496  26.841 -0.0563  0.1129  0.1006
  269BOLB   GL3 6447  18.878  22.515  26.397  0.2367  0.0385 -0.0633
  269BOLB   GL4 6448  19.126  22.711  26.249 -0.2053  0.0671 -0.1320
  269BOLB   C1C 6449  18.655  22.295  26.137 -0.2252  0.1571 -0.0227
  269BOLB   C2C 6450  18.481  22.460  25.714  0.2484 -0.1963 -0.2130
  269BOLB   C3C 6451  18.228  22.340  25.350 -0.2314  0.0778 -0.2262
  269BOLB   C4C 6452  18.077  22.454  24.950 -0.1666  0.0557 -0.1433
  269BOLB   C1D 6453  18.965  23.015  25.919  0.2121  0.0298 -0.2570
  269BOLB   C2D 6454  18.998  23.186  25.447 -0.3562 -0.2140 -0.1562
  269BOLB   C3D 6455  19.284  23.132  25.069 -0.1589 -0.0813  0.2930
  269BOLB   C4D 6456  19.543  23.308  24.819  0.0819 -0.1115  0.1266
  270BOLB   NC1 6457  18.709  10.780  21.717  0.2948 -0.0844 -0.2156
  270BOLB   PO1 6458  18.804  10.337  21.740  0.2294  0.0621  0.0664
  270BOLB   GL1 6459  18.958  10.118  21.979 -0.4078  0.3761  0.0678
  270BOLB   GL2 6460  19.158  10.346  22.153 -0.1923  0.1170 -0.3503
  270BOLB   C1A 6461  19.053   9.811  22.208 -0.0776 -0.0356  0.0980
  270BOLB   C2A 6462  18.993   9.391  22.236  0.0109  0.0847  0.0976
  270BOLB   C3A 6463  19.039   8.965  22.485 -0.0258  0.1423  0.2714
  270BOLB   C4A 6464  19.162   8.745  22.907  0.1187  0.3482  0.0888
  270BOLB   C1B 6465  19.280  10.138  22.549 -0.1513 -0.0718 -0.2044
  270BOLB   C2B 6466  19.541   9.899  22.847 -0.2079  0.1571  0.2384
  270BOLB   C3B 6467  19.769   9.736  23.052 -0.1784 -0.2459  0.2228
  270BOLB   C4B 6468  19.979   9.756  23.362  0.1542  0.2012 -0.1033
  270BOLB   NC2 6469  20.543   7.811  24.984 -0.2159  0.3536 -0.2236
  270BOLB   PO2 6470  20.259   8.079  24.684  0.0473 -0.1097 -0.3811
  270BOLB   GL3 6471  20.159   8.161  24.259 -0.3149  0.1086 -0.2438
  270BOLB   GL4 6472  20.468   8.291  24.069 -0.0404  0.3641  0.2442
  270BOLB   C1C 6473  19.979   8.309  23.888 -0.0268  0.0470 -0.0138
  270BOLB   C2C 6474  19.575   8.305  23.555 -0.0002  0.2099  0.1241
  270BOLB   C3C 6475  19.444   8.097  23.243  0.1022  0.0118  0.0992
  270BOLB   C4C 6476  19.369   8.435  23.007  0.1592  0.1164 -0.0369
  270BOLB   C1D 6477  20.359   8.656  24.005  0.1458 -0.1467 -0.1511
  270BOLB   C2D 6478  20.407   9.126  23.805  0.2512  0.0612  0.1386
  270BOLB   C3D 6479  20.385   9.501  23.582 -0.1978 -0.2182 -0.1206
  270BOLB   C4D 6480  20.341  10.055  23.493  0.0776 -0.0511  0.0511
  271BOLB   NC1 6481  10.083  23.813  21.928 -0.0531 -0.0623  0.1864
  271BOLB   PO1 6482   9.962  23.338  22.001 -0.0183  0.0724 -0.1514
  271BOLB   GL1 6483  10.125  23.255  22.404 -0.1130 -0.1414  0.3828
  271BOLB   GL2 6484   9.981  22.928  22.476  0.0514 -0.1042  0.0095
  271BOLB   C1A 6485  10.375  23.390  22.775  0.0613 -0.0075 -0.1110
  271BOLB   C2A 6486  10.532  23.289  23.219 -0.1296 -0.1135  0.2578
  271BOLB   C3A 6487  10.718  23.233  23.589  0.1723 -0.2182 -0.0367
  271BOLB   C4A 6488  10.905  23.329  23.946 -0.1851 -0.0682 -0.1884
  271BOLB   C1B 6489   9.791  22.748  22.821 -0.1333  0.1071 -0.0394
  271BOLB   C2B 6490   9.732  22.858  23.163  0.1504  0.0524  0.1218
  271BOLB   C3B 6491   9.761  23.262  23.396 -0.0332 -0.2313 -0.0486
  271BOLB   C4B 6492  10.002  23.558  23.553  0.3946 -0.0852 -0.0165
  271BOLB   NC2 6493   9.951  23.361  26.550 -0.2452 -0.1985  0.0388
  271BOLB   PO2 6494  10.185  23.513  26.152 -0.0321 -0.0974 -0.0019
  271BOLB   GL3 6495  10.505  23.510  25.842  0.2386  0.0005  0.0521
  271BOLB   GL4 6496  10.472  23.184  25.676  0.0384  0.0282 -0.0204
  271BOLB   C1C 6497  10.437  23.583  25.420  0.1068  0.3806 -0.1959
  271BOLB   C2C 6498  10.614  23.785  25.080 -0.1704 -0.0005 -0.0513
  271BOLB   C3C 6499  10.791  23.739  24.652  0.0836 -0.2510 -0.0493
  271BOLB   C4C 6500  10.839  23.587  24.329 -0.1701 -0.0775 -0.0647
  271BOLB   C1D 6501  10.408  22.861  25.439  0.0359  0.1587 -0.1089
  271BOLB   C2D 6502  10.595  22.571  25.261 -0.0261  0.3730  0.0008
  271BOLB   C3D 6503  10.787  22.247  25.373  0.2960  0.0916  0.3672
  271BOLB   C4D 6504  10.681  21.832  25.439  0.1912 -0.3284 -0.0070
  272BOLB   NC1 6505  10.780  26.533  20.004  0.1434 -0.4596 -0.0780
  272BOLB   PO1 6506  10.565  26.800  20.158 -0.0411 -0.2933  0.0798
  272BOLB   GL1 6507  10.815  26.962  20.366  0.0308  0.0966 -0.1659
  272BOLB   GL2 6508  10.994  27.246  20.300  0.0223  0.0814 -0.2565
  272BOLB   C1A 6509  11.139  26.792  20.663  0.0395  0.0960  0.1121
  272BOLB   C2A 6510  11.209  26.608  21.042  0.0017  0.1473  0.0352
  272BOLB   C3A 6511  11.497  26.726  21.420  0.1009  0.0516 -0.1238
  272BOLB   C4A 6512  11.809  27.073  21.587 -0.0058 -0.1125  0.2690
  272BOLB   C1B 6513  10.862  27.230  20.793 -0.0964 -0.3736 -0.2536
  272BOLB   C2B 6514  10.696  26.873  20.866  0.2819 -0.0807 -0.2721
  272BOLB   C3B 6515  10.811  26.432  20.736  0.0826  0.4478  0.1794
  272BOLB   C4B 6516  11.228  26.306  20.602  0.1946  0.3481 -0.1605
  272BOLB   NC2 6517  11.168  27.829  23.088 -0.2069 -0.2055 -0.0989
  272BOLB   PO2 6518  11.619  27.919  23.228  0.1139 -0.2598 -0.1037
  272BOLB   GL3 6519  11.936  27.640  23.034  0.1306  0.0912  0.1901
  272BOLB   GL4 6520  12.193  27.433  23.157 -0.0282  0.4325 -0.2147
  272BOLB   C1C 6521  11.961  27.407  22.680 -0.0625  0.0890  0.1827
  272BOLB   C2C 6522  12.227  27.258  22.253 -0.2806 -0.4677 -0.1761
  272BOLB   C3C 6523  12.299  26.967  21.984  0.0245 -0.1277 -0.2971
  272BOLB   C4C 6524  12.135  27.088  21.664  0.1655  0.1080  0.2043
  272BOLB   C1D 6525  12.069  26.981  23.041  0.1515  0.1143 -0.3648
  272BOLB   C2D 6526  12.048  26.621  22.863 -0.0010  0.0842  0.1278
  272BOLB   C3D 6527  12.082  26.188  22.864  0.2104  0.1029 -0.0883
  272BOLB   C4D 6528  12.128  25.876  23.181 -0.2245  0.0529 -0.3054
  273BOLB   NC1 6529  19.358  13.900  23.326 -0.0846 -0.1070 -0.0856
  273BOLB   PO1 6530  19.695  13.921  23.617 -0.1821  0.0181 -0.4064
  273BOLB   GL1 6531  19.688  13.736  24.043 -0.2882 -0.1672  0.2345
  273BOLB   GL2 6532  19.313  13.791  24.094  0.3047  0.3634  0.2138
  273BOLB   C1A 6533  19.754  13.709  24.527  0.0099 -0.1090  0.0824
  273BOLB   C2A 6534  19.654  13.812  24.935  0.1213  0.0102 -0.0428
  273BOLB   C3A 6535  19.542  13.667  25.371 -0.2971 -0.0669 -0.1551
  273BOLB   C4A 6536  19.554  13.308  25.736  0.1327  0.3576 -0.1968
  273BOLB   C1B 6537  19.316  13.546  24.388  0.0107 -0.5880  0.0902
  273BOLB   C2B 6538  19.441  13.411  24.799  0.0270  0.2466  0.1571
  273BOLB   C3B 6539  19.413  13.212  25.044  0.0075  0.2696 -0.3989
  273BOLB   C4B 6540  19.806  12.985  25.207  0.2237 -0.0612  0.3046
  273BOLB   NC2 6541  20.114  11.169  26.842 -0.1621  0.1737 -0.0717
  273BOLB   PO2 6542  20.314  11.504  27.024 -0.0383  0.0307 -0.0086
  273BOLB   GL3 6543  20.215  11.651  26.771  0.1997  0.0866  0.1796
  273BOLB   GL4 6544  19.879  11.698  26.844  0.0898  0.1903 -0.1560
  273BOLB   C1C 6545  20.091  12.102  26.588 -0.0699  0.3928  0.1083
  273BOLB   C2C 6546  20.229  12.555  26.540 -0.0636 -0.0783 -0.0759
  273BOLB   C3C 6547  20.021  12.990  26.338  0.0017 -0.1532  0.1183
  273BOLB   C4C 6548  19.836  13.206  26.009  0.1426 -0.0987 -0.3185
  273BOLB   C1D 6549  19.494  11.549  26.481 -0.0267 -0.0709 -0.2210
  273BOLB   C2D 6550  19.351  11.740  26.123  0.2013  0.2653  0.0131
  273BOLB   C3D 6551  18.988  11.877  25.932  0.0707  0.2712 -0.0381
  273BOLB   C4D 6552  18.583  11.724  25.820 -0.1462 -0.2259 -0.2305
  274BOLB   NC1 6553  20.606  15.407  23.866 -0.1266  0.1674 -0.0535
  274BOLB   PO1 6554  20.308  15.244  23.684  0.0267 -0.1011 -0.0707
  274BOLB   GL1 6555  20.090  15.192  24.195 -0.0504  0.2079  0.0813
  274BOLB   GL2 6556  19.811  15.250  24.352  0.0702  0.4165 -0.0184
  274BOLB   C1A 6557  20.324  14.982  24.578 -0.1375 -0.0934 -0.3280
  274BOLB   C2A 6558  20.321  14.904  25.052 -0.0303 -0.0777  0.0278
  274BOLB   C3A 6559  20.475  14.996  25.393 -0.2604  0.0093 -0.2397
  274BOLB   C4A 6560  20.600  15.162  25.760 -0.0182 -0.2612 -0.2663
  274BOLB   C1B 6561  19.967  15.281  24.787  0.0820 -0.0814  0.1238
  274BOLB   C2B 6562  19.946  15.208  25.246  0.0071 -0.0571  0.2466
  274BOLB   C3B 6563  20.097  15.282  25.563 -0.1125  0.0265  0.0645
  274BOLB   C4B 6564  20.168  15.324  25.968 -0.4011 -0.0964  0.0665
  274BOLB   NC2 6565  21.882  14.688  27.875 -0.1555 -0.0681 -0.1749
  274BOLB   PO2 6566  21.500  14.735  28.037  0.1062 -0.0910 -0.1259
  274BOLB   GL3 6567  21.473  14.872  27.563 -0.0522 -0.1321 -0.1763
  274BOLB   GL4 6568  21.718  14.738  27.401 -0.1161  0.1391  0.2301
  274BOLB   C1C 6569  21.345  15.152  27.209  0.3188  0.1058  0.0323
  274BOLB   C2C 6570  21.195  15.252  26.859  0.1922  0.1617 -0.3156
  274BOLB   C3C 6571  21.037  15.356  26.532  0.0677 -0.3677  0.0215
  274BOLB   C4C 6572  20.725  15.333  26.088 -0.1995 -0.0170 -0.0437
  274BOLB   C1D 6573  21.704  14.569  27.027 -0.2652 -0.5635 -0.0880
  274BOLB   C2D 6574  21.390  14.307  26.746  0.1130 -0.0512  0.1388
  274BOLB   C3D 6575  21.179  14.339  26.348 -0.0957  0.1210 -0.0231
  274BOLB   C4D 6576  21.296  14.455  25.966  0.3861 -0.1310  0.1494
  275BOLB   NC1 6577  15.152  14.625  24.882  0.1799  0.1504 -0.2431
  275BOLB   PO1 6578  14.836  14.403  24.808 -0.2926 -0.1569 -0.0815
  275BOLB   GL1 6579  14.909  14.179  25.148  0.2633  0.0509  0.2527
  275BOLB   GL2 6580  15.087  14.361  25.331  0.2680 -0.0186  0.1523
  275BOLB   C1A 6581  14.775  14.006  25.519 -0.0346  0.0644  0.1284
  275BOLB   C2A 6582  14.757  13.863  25.977  0.0444 -0.2545  0.0239
  275BOLB   C3A 6583  14.436  13.811  26.296 -0.1957 -0.2025 -0.0345
  275BOLB   C4A 6584  14.217  13.786  26.693  0.0614 -0.2028  0.1013
  275BOLB   C1B 6585  15.300  14.704  25.672  0.1526  0.0872  0.0258
  275BOLB   C2B 6586  15.485  14.719  26.087  0.2376  0.0983  0.0223
  275BOLB   C3B 6587  15.504  14.677  26.584 -0.0900  0.1929  0.0713
  275BOLB   C4B 6588  15.546  14.644  27.067 -0.1208 -0.0462 -0.0722
  275BOLB   NC2 6589  13.423  12.457  28.266 -0.0349  0.0941  0.1798
  275BOLB   PO2 6590  13.133  12.767  28.134  0.0806  0.0150 -0.2943
  275BOLB   GL3 6591  12.945  13.130  28.163 -0.1130 -0.3169  0.1819
  275BOLB   GL4 6592  13.183  13.462  28.252 -0.1260  0.1107 -0.1435
  275BOLB   C1C 6593  12.816  13.459  27.843  0.0439 -0.0901  0.1912
  275BOLB   C2C 6594  13.046  13.635  27.403  0.2954 -0.0237 -0.0069
  275BOLB   C3C 6595  13.374  13.796  27.126 -0.3981 -0.2179  0.1024
  275BOLB   C4C 6596  13.871  13.837  27.013  0.1860 -0.0388  0.0207
  275BOLB   C1D 6597  13.354  13.510  27.783 -0.0119 -0.2899  0.1892
  275BOLB   C2D 6598  13.650  13.525  27.432  0.0204  0.1887  0.2416
  275BOLB   C3D 6599  13.970  13.400  27.326  0.0007  0.0831 -0.0249
  275BOLB   C4D 6600  14.216  13.357  26.982  0.1133 -0.0208  0.0798
  276BOLB   NC1 6601  11.561  11.339  23.768  0.0698 -0.0958 -0.4684
  276BOLB   PO1 6602  11.226  11.675  23.721  0.0852  0.0598 -0.2405
  276BOLB   GL1 6603  11.279  11.423  24.117  0.0660  0.0017  0.0919
  276BOLB   GL2 6604  11.142  11.498  24.393  0.1344  0.1996 -0.2646
  276BOLB   C1A 6605  11.647  11.339  24.419 -0.2605 -0.2873  0.0786
  276BOLB   C2A 6606  12.038  11.541  24.680 -0.0893  0.0212 -0.1081
  276BOLB   C3A 6607  12.145  11.411  25.063  0.3293  0.2165 -0.1988
  276BOLB   C4A 6608  12.072  11.338  25.521 -0.0354  0.0212 -0.0764
  276BOLB   C1B 6609  10.848  11.448  24.776 -0.0102  0.2750 -0.1914
  276BOLB   C2B 6610  10.493  11.209  24.966 -0.1462  0.2622  0.1723
  276BOLB   C3B 6611  10.427  11.121  25.389  0.0891 -0.0630 -0.1676
  276BOLB   C4B 6612  10.160  11.245  25.745  0.0686  0.0686  0.1695
  276BOLB   NC2 6613  11.815  11.136  28.055  0.3331  0.2897  0.1162
  276BOLB   PO2 6614  11.932  10.782  27.899 -0.2131  0.0639  0.2328
  276BOLB   GL3 6615  11.856  10.784  27.502  0.0455 -0.5216 -0.0399
  276BOLB   GL4 6616  11.552  10.885  27.356  0.0932  0.0124 -0.0434
  276BOLB   C1C 6617  11.968  11.006  27.118  0.1094  0.2091 -0.5919
  276BOLB   C2C 6618  12.162  11.099  26.707 -0.2571 -0.0294 -0.1015
  276BOLB   C3C 6619  12.171  11.085  26.272 -0.2239  0.4398 -0.1133
  276BOLB   C4C 6620  12.113  11.140  25.888  0.0084 -0.3277 -0.1404
  276BOLB   C1D 6621  11.438  11.202  27.130 -0.2584  0.2587 -0.3171
  276BOLB   C2D 6622  11.434  11.490  26.817 -0.0582  0.0317  0.0156
  276BOLB   C3D 6623  11.698  11.751  26.601  0.2186 -0.1084  0.0082
  276BOLB   C4D 6624  12.110  11.674  26.418 -0.3454  0.0081 -0.2550
  277BOLB   NC1 6625  10.360  11.361  22.833 -0.0659 -0.0115  0.1666
  277BOLB   PO1 6626  10.028  11.202  23.131  0.2508 -0.1263  0.0015
  277BOLB   GL1 6627   9.902  11.220  23.529  0.0254  0.1783  0.0774
  277BOLB   GL2 6628   9.867  11.510  23.711  0.0593 -0.1843 -0.1730
  277BOLB   C1A 6629   9.916  10.895  23.841 -0.0922  0.0654 -0.2181
  277BOLB   C2A 6630   9.853  10.944  24.253  0.3624  0.0314  0.1070
  277BOLB   C3A 6631   9.476  11.000  24.454 -0.1722  0.0390 -0.1902
  277BOLB   C4A 6632   9.359  11.037  24.902 -0.0649 -0.0682  0.0571
  277BOLB   C1B 6633   9.766  11.480  24.150 -0.1762  0.0655 -0.2389
  277BOLB   C2B 6634   9.858  11.776  24.512  0.3217  0.3639 -0.0052
  277BOLB   C3B 6635   9.769  11.775  24.960 -0.0853  0.3406 -0.0325
  277BOLB   C4B 6636   9.550  11.512  25.358  0.0685  0.0159 -0.0482
  277BOLB   NC2 6637   8.955  10.620  27.443 -0.0150  0.1210 -0.2228
  277BOLB   PO2 6638   8.637  10.986  27.344  0.4390  0.2220 -0.1147
  277BOLB   GL3 6639   8.846  11.095  26.982  0.3290 -0.0234  0.0181
  277BOLB   GL4 6640   9.147  10.881  26.968 -0.1658 -0.0544  0.2486
  277BOLB   C1C 6641   8.919  11.322  26.621 -0.1598 -0.0717 -0.3121
  277BOLB   C2C 6642   9.028  11.313  26.152 -0.0372 -0.1660 -0.1460
  277BOLB   C3C 6643   9.066  11.180  25.647 -0.1301 -0.0332 -0.2731
  277BOLB   C4C 6644   9.200  10.977  25.307 -0.3425 -0.0955  0.0012
  277BOLB   C1D 6645   9.272  10.955  26.484  0.1455  0.0619 -0.2654
  277BOLB   C2D 6646   9.399  10.962  26.106 -0.0941  0.0674  0.0196
  277BOLB   C3D 6647   9.668  11.067  25.718  0.2333 -0.0667  0.0306
  277BOLB   C4D 6648   9.922  11.012  25.305  0.2501  0.0762  0.0842
  278BOLB   NC1 6649  17.772  22.890  22.060 -0.5799  0.0169  0.1555
  278BOLB   PO1 6650  17.658  22.767  22.500  0.1299  0.1051 -0.4172
  278BOLB   GL1 6651  17.672  23.146  22.679 -0.1264 -0.1222 -0.5130
  278BOLB   GL2 6652  17.474  23.044  22.937  0.4352  0.1351 -0.1840
  278BOLB   C1A 6653  17.674  23.567  22.623 -0.3132 -0.2264 -0.0876
  278BOLB   C2A 6654  17.905  23.681  23.000 -0.2792 -0.2113  0.0559
  278BOLB   C3A 6655  17.825  23.920  23.301 -0.2158  0.4000 -0.0481
  278BOLB   C4A 6656  18.043  24.084  23.632 -0.0206  0.1158 -0.2005
  278BOLB   C1B 6657  17.395  22.912  23.318 -0.1239  0.2263 -0.0063
  278BOLB   C2B 6658  17.480  23.179  23.717 -0.2810 -0.4240 -0.0451
  278BOLB   C3B 6659  17.601  23.283  24.143  0.0761  0.1349  0.0684
  278BOLB   C4B 6660  17.956  23.505  24.265  0.0521  0.1736  0.3796
  278BOLB   NC2 6661  18.111  25.953  25.799 -0.3087  0.0600  0.1262
  278BOLB   PO2 6662  18.068  25.568  25.486  0.0744  0.4525  0.1355
  278BOLB   GL3 6663  17.986  25.215  25.257  0.1393  0.1060 -0.0330
  278BOLB   GL4 6664  18.044  25.257  24.931  0.1183 -0.2558  0.1561
  278BOLB   C1C 6665  17.703  24.884  24.991 -0.2419  0.1184  0.3178
  278BOLB   C2C 6666  17.760  24.518  24.777  0.0048  0.1977  0.1935
  278BOLB   C3C 6667  17.899  24.409  24.388  0.2427 -0.0710 -0.0049
  278BOLB   C4C 6668  17.970  24.241  24.047 -0.0571 -0.0720 -0.0632
  278BOLB   C1D 6669  18.090  25.127  24.529 -0.3029 -0.2807 -0.2312
  278BOLB   C2D 6670  18.129  24.977  24.158  0.3182  0.2094  0.0880
  278BOLB   C3D 6671  17.966  24.682  23.869 -0.1684 -0.4586 -0.1768
  278BOLB   C4D 6672  18.151  24.538  23.463 -0.2499  0.0305  0.0738
  279BOLB   NC1 6673  21.330  10.664  20.767 -0.1304 -0.0051  0.3917
  279BOLB   PO1 6674  21.845  10.733  20.669 -0.0393 -0.2078  0.0612
  279BOLB   GL1 6675  21.845  10.357  20.763 -0.0641  0.0175  0.1062
  279BOLB   GL2 6676  21.607  10.193  20.593 -0.2875  0.2738  0.2406
  279BOLB   C1A 6677  21.885   9.975  20.953 -0.2772 -0.0732  0.0313
  279BOLB   C2A 6678  22.126   9.662  21.020 -0.1160  0.0099 -0.1455
  279BOLB   C3A 6679  22.239   9.320  21.203  0.0949  0.3449  0.0020
  279BOLB   C4A 6680  22.285   9.249  21.630 -0.4994  0.0615  0.0662
  279BOLB   C1B 6681  22.081   9.926  20.467 -0.1462 -0.0716 -0.0241
  279BOLB   C2B 6682  22.270   9.570  20.574 -0.0371  0.0572  0.0110
  279BOLB   C3B 6683  22.455   9.175  20.752 -0.1779  0.0181  0.2019
  279BOLB   C4B 6684  22.606   8.862  20.664 -0.0642 -0.1871  0.1976
  279BOLB   NC2 6685  22.056   7.484  23.687  0.1890 -0.2109 -0.0547
  279BOLB   PO2 6686  22.183   7.895  23.607 -0.3130  0.1388  0.0812
  279BOLB   GL3 6687  22.245   8.300  23.268  0.0649  0.1835  0.0113
  279BOLB   GL4 6688  22.166   8.194  22.974 -0.0621  0.0317 -0.1092
  279BOLB   C1C 6689  22.551   8.596  23.167 -0.0172 -0.0681 -0.2235
  279BOLB   C2C 6690  22.532   8.663  22.704 -0.0461 -0.0325  0.0483
  279BOLB   C3C 6691  22.237   8.691  22.361  0.2408  0.3661  0.2682
  279BOLB   C4C 6692  22.239   8.889  21.912  0.2896 -0.0131  0.0613
  279BOLB   C1D 6693  21.998   8.648  22.881  0.0818  0.0564  0.2203
  279BOLB   C2D 6694  21.715   9.000  22.757 -0.0342  0.1198  0.0028
  279BOLB   C3D 6695  21.732   9.476  22.710  0.1939  0.0282 -0.1617
  279BOLB   C4D 6696  21.474   9.688  22.818  0.3053 -0.1807 -0.1872
  280BOLB   NC1 6697  15.536  19.164  24.577 -0.0452  0.3230  0.0009
  280BOLB   PO1 6698  15.410  19.619  24.518  0.3199 -0.0402 -0.1282
  280BOLB   GL1 6699  15.476  19.930  24.863 -0.1271 -0.0994  0.3551
  280BOLB   GL2 6700  15.253  19.929  25.105 -0.3665  0.1681  0.0569
  280BOLB   C1A 6701  15.416  20.355  24.921 -0.3746 -0.2848  0.0135
  280BOLB   C2A 6702  15.395  20.799  24.957 -0.1201  0.3170 -0.1217
  280BOLB   C3A 6703  15.408  21.175  25.098 -0.0189 -0.0256 -0.0640
  280BOLB   C4A 6704  15.205  21.532  25.156  0.0441  0.2561 -0.1864
  280BOLB   C1B 6705  15.510  20.132  25.440  0.0454  0.2398 -0.1280
  280BOLB   C2B 6706  15.878  20.235  25.673  0.0571  0.3147  0.1552
  280BOLB   C3B 6707  16.075  20.261  26.043  0.0320 -0.0354 -0.1902
  280BOLB   C4B 6708  16.491  20.390  26.205 -0.1510 -0.2861 -0.1257
  280BOLB   NC2 6709  16.344  22.491  27.392 -0.1245  0.2242  0.3954
  280BOLB   PO2 6710  15.964  22.501  27.221 -0.0638 -0.1595  0.2110
  280BOLB   GL3 6711  15.888  22.490  26.792  0.0474 -0.3102 -0.3189
  280BOLB   GL4 6712  16.107  22.723  26.566 -0.3898  0.0870 -0.1539
  280BOLB   C1C 6713  15.736  22.266  26.526  0.0902  0.0066 -0.2764
  280BOLB   C2C 6714  15.528  22.065  26.158  0.4285  0.1353  0.0130
  280BOLB   C3C 6715  15.330  22.043  25.769  0.0972 -0.3152 -0.1433
  280BOLB   C4C 6716  15.202  21.861  25.472 -0.1665  0.0281  0.2166
  280BOLB   C1D 6717  16.021  22.754  26.147  0.0153  0.0099  0.1025
  280BOLB   C2D 6718  16.268  22.798  25.732  0.0042 -0.2435 -0.0837
  280BOLB   C3D 6719  16.134  23.016  25.505  0.1129 -0.0298  0.1476
  280BOLB   C4D 6720  15.777  23.222  25.373  0.0492 -0.2122 -0.2025
  281BOLB   NC1 6721  10.406  22.138  21.985 -0.4129 -0.1094 -0.1224
  281BOLB   PO1 6722  10.382  22.129  22.391  0.2125 -0.0706  0.0696
  281BOLB   GL1 6723  10.368  22.202  22.783 -0.0548  0.1834 -0.1069
  281BOLB   GL2 6724  10.351  22.556  22.762  0.0249  0.2516  0.2101
  281BOLB   C1A 6725  10.513  22.275  23.212  0.2146  0.0958 -0.0138
  281BOLB   C2A 6726  10.554  22.318  23.688  0.0950  0.1535  0.2431
  281BOLB   C3A 6727  10.575  22.362  24.095 -0.0048 -0.1273  0.1164
  281BOLB   C4A 6728  10.386  22.388  24.449 -0.1205  0.2119  0.0757
  281BOLB   C1B 6729   9.984  22.402  23.107 -0.0137  0.0879 -0.0467
  281BOLB   C2B 6730   9.958  22.493  23.549  0.1700  0.0362  0.2726
  281BOLB   C3B 6731   9.640  22.514  23.857  0.3213  0.0278  0.0344
  281BOLB   C4B 6732   9.544  22.512  24.202  0.0786 -0.0129  0.1473
  281BOLB   NC2 6733   9.056  22.492  26.612  0.0471  0.0310  0.1324
  281BOLB   PO2 6734   8.654  22.264  26.520 -0.0745 -0.2215  0.0366
  281BOLB   GL3 6735   8.803  22.079  26.169 -0.2795 -0.1700  0.1101
  281BOLB   GL4 6736   8.716  22.304  25.848 -0.0455  0.2781 -0.1471
  281BOLB   C1C 6737   9.187  22.161  25.806 -0.0632  0.0745  0.3790
  281BOLB   C2C 6738   9.602  22.334  25.626  0.0941  0.0764  0.1239
  281BOLB   C3C 6739   9.859  22.352  25.197  0.0509  0.1084  0.2889
  281BOLB   C4C 6740  10.239  22.441  24.879  0.0290  0.1549  0.1656
  281BOLB   C1D 6741   8.814  22.082  25.472 -0.3066 -0.4910  0.2647
  281BOLB   C2D 6742   8.680  22.181  25.035 -0.4388 -0.1558  0.0884
  281BOLB   C3D 6743   8.923  22.232  24.775  0.3200  0.3204 -0.1726
  281BOLB   C4D 6744   9.172  22.442  24.492  0.4488 -0.1534 -0.0427
  282BOLB   NC1 6745  19.511  12.623  23.358  0.0849  0.1846  0.3758
  282BOLB   PO1 6746  19.121  12.548  23.201 -0.1108 -0.0582 -0.1197
  282BOLB   GL1 6747  19.097  12.522  23.683  0.4804 -0.1188  0.0115
  282BOLB   GL2 6748  18.814  12.429  23.782  0.2660 -0.1378 -0.0589
  282BOLB   C1A 6749  19.383  12.216  23.899 -0.3558 -0.2723  0.1542
  282BOLB   C2A 6750  19.473  11.869  23.996 -0.1073 -0.1116  0.2863
  282BOLB   C3A 6751  19.701  11.591  24.360  0.2592 -0.0504  0.0607
  282BOLB   C4A 6752  19.671  11.459  24.743 -0.2825  0.0671  0.1172
  282BOLB   C1B 6753  18.864  12.153  23.951 -0.0034 -0.1895  0.0170
  282BOLB   C2B 6754  19.022  12.012  24.276  0.0395  0.0920 -0.3366
  282BOLB   C3B 6755  19.163  11.799  24.637  0.3909 -0.3313 -0.2122
  282BOLB   C4B 6756  19.220  11.536  24.916 -0.0045  0.4769  0.2393
  282BOLB   NC2 6757  19.626  11.025  27.453  0.0090 -0.2901 -0.0176
  282BOLB   PO2 6758  19.284  10.847  27.168  0.1576 -0.0157 -0.0973
  282BOLB   GL3 6759  19.379  10.789  26.763 -0.1716  0.0630 -0.0226
  282BOLB   GL4 6760  19.148  10.687  26.496 -0.0637 -0.0948 -0.1159
  282BOLB   C1C 6761  19.527  11.017  26.382  0.1967  0.1782 -0.1831
  282BOLB   C2C 6762  19.501  11.242  26.088 -0.1853 -0.4626 -0.0825
  282BOLB   C3C 6763  19.496  11.354  25.662 -0.3175  0.4366 -0.1671
  282BOLB   C4C 6764  19.617  11.342  25.155  0.2889 -0.0984  0.3327
  282BOLB   C1D 6765  19.157  10.493  26.178  0.3942  0.1323 -0.2301
  282BOLB   C2D 6766  19.122  10.304  25.796  0.0473 -0.0271 -0.2324
  282BOLB   C3D 6767  18.995  10.545  25.436 -0.0458  0.4646 -0.3366
  282BOLB   C4D 6768  18.910  10.737  25.029 -0.1666 -0.0017  0.0210
  283BOLB   NC1 6769  16.078  10.526  21.985  0.0411 -0.1885 -0.0974
  283BOLB   PO1 6770  16.081  10.259  22.284 -0.2228 -0.0508 -0.0770
  283BOLB   GL1 6771  16.121  10.140  22.706  0.2188  0.1078 -0.0834
  283BOLB   GL2 6772  16.417  10.292  22.901  0.0349  0.0205 -0.1020
  283BOLB   C1A 6773  16.158   9.784  23.036  0.3472  0.2205  0.3483
  283BOLB   C2A 6774  16.183   9.347  23.282  0.0414 -0.2334  0.2248
  283BOLB   C3A 6775  16.398   9.156  23.655 -0.1841 -0.0925 -0.0806
  283BOLB   C4A 6776  16.486   8.863  24.108  0.1987 -0.2040 -0.1302
  283BOLB   C1B 6777  16.482  10.057  23.228  0.0559  0.2243 -0.2869
  283BOLB   C2B 6778  16.498   9.817  23.535 -0.2700 -0.0007 -0.0397
  283BOLB   C3B 6779  16.312   9.637  23.823 -0.1082 -0.2529  0.1499
  283BOLB   C4B 6780  16.130   9.246  24.054 -0.0311  0.2894  0.1080
  283BOLB   NC2 6781  17.526   7.539  25.767  0.1379  0.1399 -0.1629
  283BOLB   PO2 6782  17.708   7.863  25.764  0.0452  0.1871 -0.2573
  283BOLB   GL3 6783  17.845   7.952  25.299  0.0665  0.0905 -0.2225
  283BOLB   GL4 6784  18.089   8.169  25.158 -0.0390  0.2662 -0.1746
  283BOLB   C1C 6785  17.582   8.210  24.954 -0.3046  0.0865  0.0027
  283BOLB   C2C 6786  17.508   8.454  24.655 -0.2124 -0.0152 -0.2892
  283BOLB   C3C 6787  17.214   8.757  24.478 -0.2795 -0.0792  0.2178
  283BOLB   C4C 6788  16.833   8.940  24.421  0.2491  0.0151  0.1818
  283BOLB   C1D 6789  18.185   8.436  24.821 -0.1363  0.0280 -0.0655
  283BOLB   C2D 6790  18.047   8.446  24.381  0.0539  0.1180 -0.2329
  283BOLB   C3D 6791  18.059   8.601  23.966 -0.0117 -0.2386  0.3369
  283BOLB   C4D 6792  17.847   8.862  23.698 -0.0482  0.1019 -0.0897
  284BOLB   NC1 6793  15.070  10.262  22.750  0.1029  0.2461 -0.0342
  284BOLB   PO1 6794  14.864   9.929  22.720  0.0594 -0.0220  0.1275
  284BOLB   GL1 6795  15.126   9.623  22.917  0.4255 -0.0551 -0.0650
  284BOLB   GL2 6796  14.753   9.492  22.985 -0.1687  0.1202 -0.1083
  284BOLB   C1A 6797  15.180   9.405  23.308  0.1765 -0.1298  0.1553
  284BOLB   C2A 6798  15.155   9.271  23.709  0.0464  0.0753  0.0519
  284BOLB   C3A 6799  15.300   9.251  24.080 -0.1591  0.0363  0.0474
  284BOLB   C4A 6800  15.331   9.104  24.479  0.2149  0.2774 -0.3500
  284BOLB   C1B 6801  14.554   9.438  23.410 -0.1159  0.1016 -0.1377
  284BOLB   C2B 6802  14.512   9.136  23.811  0.1327  0.1207  0.3087
  284BOLB   C3B 6803  14.772   8.892  24.092 -0.0328 -0.2185  0.1915
  284BOLB   C4B 6804  14.844   9.049  24.433 -0.0742  0.0110  0.1005
  284BOLB   NC2 6805  16.598   7.723  26.027 -0.1483 -0.1034 -0.1698
  284BOLB   PO2 6806  16.386   7.990  26.310 -0.1488  0.1683  0.0384
  284BOLB   GL3 6807  16.193   7.964  25.894 -0.1572 -0.4187 -0.0484
  284BOLB   GL4 6808  16.455   8.092  25.748 -0.1636  0.4054 -0.1017
  284BOLB   C1C 6809  15.793   8.154  25.795 -0.1707 -0.1635  0.1055
  284BOLB   C2C 6810  15.537   8.470  25.611 -0.1037 -0.2419  0.0741
  284BOLB   C3C 6811  15.362   8.763  25.332 -0.1532 -0.1496  0.1781
  284BOLB   C4C 6812  15.238   9.026  24.987  0.2103  0.0618 -0.2742
  284BOLB   C1D 6813  16.577   8.243  25.389  0.1600  0.0672 -0.1272
  284BOLB   C2D 6814  16.435   8.593  25.196  0.0070 -0.0609  0.1294
  284BOLB   C3D 6815  16.193   8.609  24.869 -0.0240 -0.2294 -0.1688
  284BOLB   C4D 6816  16.279   8.918  24.574 -0.3358  0.2219  0.0188
  285BOLB   NC1 6817  23.113  13.454  22.573  0.2409  0.2905  0.2545
  285BOLB   PO1 6818  22.927  13.751  22.921 -0.0175 -0.1863 -0.3185
  285BOLB   GL1 6819  23.196  13.478  23.143 -0.0087 -0.3871 -0.0012
  285BOLB   GL2 6820  23.107  13.076  23.057 -0.3615  0.2602  0.1525
  285BOLB   C1A 6821  23.283  13.497  23.556  0.1274  0.0649  0.1790
  285BOLB   C2A 6822  23.409  13.578  23.916 -0.2609 -0.3219  0.0440
  285BOLB   C3A 6823  23.333  13.338  24.296  0.2936 -0.0547 -0.1728
  285BOLB   C4A 6824  23.217  13.209  24.715  0.2660 -0.1511 -0.2290
  285BOLB   C1B 6825  23.527  13.014  23.263 -0.0993  0.0457 -0.3050
  285BOLB   C2B 6826  23.788  12.758  23.568 -0.1044 -0.1465 -0.1259
  285BOLB   C3B 6827  24.014  12.556  23.840 -0.2952 -0.0242  0.4323
  285BOLB   C4B 6828  24.305  12.521  24.211 -0.0424  0.2310 -0.1905
  285BOLB   NC2 6829  23.270  12.481  26.809 -0.2225  0.1212 -0.1901
  285BOLB   PO2 6830  23.732  12.388  26.651  0.0723 -0.2220 -0.1181
  285BOLB   GL3 6831  23.675  12.452  26.312  0.1243  0.0292 -0.1126
  285BOLB   GL4 6832  23.595  12.104  26.169 -0.0201 -0.2017  0.0527
  285BOLB   C1C 6833  23.325  12.569  26.086  0.5147  0.0376 -0.0223
  285BOLB   C2C 6834  23.265  12.650  25.650  0.2190  0.2255 -0.2069
  285BOLB   C3C 6835  23.158  12.675  25.255  0.2309  0.1042  0.2307
  285BOLB   C4C 6836  23.038  13.076  25.027  0.2328  0.0579 -0.0156
  285BOLB   C1D 6837  23.559  12.246  25.670  0.0186 -0.0692  0.1478
  285BOLB   C2D 6838  23.423  12.176  25.289 -0.3916 -0.2108  0.0192
  285BOLB   C3D 6839  23.137  12.444  24.855  0.1045 -0.3738  0.0701
  285BOLB   C4D 6840  23.341  12.696  24.543  0.4584 -0.3483  0.1411
  286BOLB   NC1 6841  18.035  20.836  23.419  0.1174 -0.0288 -0.2166
  286BOLB   PO1 6842  17.957  21.308  23.265  0.0297 -0.0633 -0.4126
  286BOLB   GL1 6843  17.863  21.357  23.672 -0.1035  0.4047  0.0684
  286BOLB   GL2 6844  18.117  21.058  23.905 -0.1157  0.2780  0.2505
  286BOLB   C1A 6845  17.918  21.662  23.807 -0.0152  0.1391 -0.0956
  286BOLB   C2A 6846  18.146  21.883  24.105  0.3256  0.1710  0.1021
  286BOLB   C3A 6847  18.472  22.163  24.409  0.1039  0.0583 -0.2457
  286BOLB   C4A 6848  18.576  22.252  24.799  0.1124 -0.2767  0.0395
  286BOLB   C1B 6849  18.304  21.078  24.326  0.2281  0.1899  0.0373
  286BOLB   C2B 6850  18.416  21.257  24.704  0.0211  0.0997  0.2487
  286BOLB   C3B 6851  18.510  21.309  25.161  0.1363  0.1587 -0.1280
  286BOLB   C4B 6852  18.582  21.045  25.564  0.0826 -0.1269 -0.2198
  286BOLB   NC2 6853  18.312  23.712  26.547  0.2838 -0.2831  0.1560
  286BOLB   PO2 6854  18.676  23.677  26.334  0.0293 -0.0320  0.0107
  286BOLB   GL3 6855  18.468  23.925  25.869 -0.0630 -0.1279 -0.2650
  286BOLB   GL4 6856  18.634  24.198  25.656  0.3102  0.1711 -0.1864
  286BOLB   C1C 6857  18.459  23.578  25.666 -0.0427 -0.2285  0.0951
  286BOLB   C2C 6858  18.514  23.411  25.259 -0.1554 -0.1424 -0.3388
  286BOLB   C3C 6859  18.661  22.946  25.118  0.1833 -0.2439 -0.0823
  286BOLB   C4C 6860  18.602  22.573  25.004 -0.2093  0.2930  0.0636
  286BOLB   C1D 6861  18.349  24.123  25.405 -0.2641 -0.2360 -0.0891
  286BOLB   C2D 6862  18.201  23.754  25.244  0.0988 -0.2773  0.1690
  286BOLB   C3D 6863  18.024  23.444  25.378 -0.4190  0.0847  0.1049
  286BOLB   C4D 6864  18.210  22.912  25.293  0.1137 -0.1720  0.0871
  287BOLB   NC1 6865  16.502  11.885  23.572  0.2630 -0.2173 -0.4868
  287BOLB   PO1 6866  16.660  11.571  23.304 -0.2358  0.2890 -0.3101
  287BOLB   GL1 6867  16.789  11.182  23.551  0.0833  0.4479  0.0132
  287BOLB   GL2 6868  16.893  10.948  23.342  0.1402  0.1862  0.1927
  287BOLB   C1A 6869  16.787  10.993  23.966 -0.1936 -0.2868  0.1578
  287BOLB   C2A 6870  16.758  10.865  24.370 -0.0438  0.1496  0.2434
  287BOLB   C3A 6871  16.806  10.827  24.747 -0.2003 -0.0426  0.0135
  287BOLB   C4A 6872  16.859  10.886  25.162 -0.2199  0.0574 -0.0579
  287BOLB   C1B 6873  16.783  10.622  23.560  0.0929  0.2847  0.1375
  287BOLB   C2B 6874  16.820  10.174  23.702  0.4523 -0.3781 -0.0215
  287BOLB   C3B 6875  16.660   9.951  24.022 -0.2387  0.2558 -0.1920
  287BOLB   C4B 6876  16.767   9.823  24.492 -0.0197  0.0494 -0.0320
  287BOLB   NC2 6877  16.961   9.628  27.529  0.1084 -0.4161  0.2291
  287BOLB   PO2 6878  16.838  10.027  27.304  0.2366  0.2299  0.2881
  287BOLB   GL3 6879  16.609  10.083  26.997  0.1862  0.4710 -0.2936
  287BOLB   GL4 6880  16.373  10.037  26.814  0.0509 -0.2096 -0.0838
  287BOLB   C1C 6881  16.675  10.513  26.823 -0.0771  0.1092  0.0772
  287BOLB   C2C 6882  16.905  10.748  26.508 -0.0781 -0.1152  0.3280
  287BOLB   C3C 6883  16.950  10.831  26.098 -0.0215 -0.1293  0.1812
  287BOLB   C4C 6884  16.987  10.858  25.621  0.2013  0.0870 -0.0205
  287BOLB   C1D 6885  16.066  10.162  26.470  0.0555  0.0752  0.0646
  287BOLB   C2D 6886  15.830   9.956  26.041  0.1722  0.2169 -0.1763
  287BOLB   C3D 6887  15.911   9.914  25.511  0.4824 -0.0953  0.0013
  287BOLB   C4D 6888  15.553   9.771  25.227 -0.0503  0.1187 -0.0407
  288BOLB   NC1 6889  14.083  12.580  24.080 -0.0002  0.3247  0.2280
  288BOLB   PO1 6890  14.507  12.582  24.171  0.2827  0.2222 -0.2086
  288BOLB   GL1 6891  14.402  12.241  24.388  0.1952  0.0066 -0.1060
  288BOLB   GL2 6892  14.664  12.104  24.465  0.0868 -0.4130  0.1722
  288BOLB   C1A 6893  14.294  12.191  24.806 -0.2361  0.1156 -0.2286
  288BOLB   C2A 6894  14.327  11.933  25.169  0.1329 -0.0324  0.1892
  288BOLB   C3A 6895  14.404  12.032  25.590 -0.1055  0.0579 -0.2073
  288BOLB   C4A 6896  14.610  12.064  25.959 -0.0789  0.1452 -0.0448
  288BOLB   C1B 6897  14.773  11.872  24.633  0.0962 -0.0091  0.0756
  288BOLB   C2B 6898  14.855  11.728  25.115 -0.3682 -0.1780 -0.0556
  288BOLB   C3B 6899  14.850  11.797  25.609 -0.3050 -0.2029 -0.1139
  288BOLB   C4B 6900  14.787  11.532  26.056  0.0881  0.0684 -0.1873
  288BOLB   NC2 6901  15.167  11.124  27.976 -0.1352  0.0382  0.2561
  288BOLB   PO2 6902  15.303  10.751  27.850  0.2998 -0.2125 -0.3935
  288BOLB   GL3 6903  15.051  10.899  27.492  0.1217  0.1311  0.1275
  288BOLB   GL4 6904  15.038  10.729  27.169  0.1797  0.0142  0.1706
  288BOLB   C1C 6905  15.253  11.202  27.215 -0.2421  0.0249 -0.2359
  288BOLB   C2C 6906  15.237  11.357  26.910  0.1282 -0.4502  0.2215
  288BOLB   C3C 6907  15.005  11.634  26.631  0.0875  0.0135 -0.2563
  288BOLB   C4C 6908  14.810  11.965  26.378 -0.1065  0.2118  0.0127
  288BOLB   C1D 6909  14.962  10.966  26.861 -0.0671  0.1589 -0.2051
  288BOLB   C2D 6910  14.815  11.129  26.490 -0.0522 -0.0509 -0.0736
  288BOLB   C3D 6911  14.578  11.091  26.244  0.0071  0.2756 -0.0271
  288BOLB   C4D 6912  14.524  11.092  25.814  0.0420 -0.4214  0.1842
  289BOLB   NC1 6913  21.192  11.511  21.235  0.0310 -0.1679 -0.2667
  289BOLB   PO1 6914  21.243  11.486  21.530  0.0110 -0.0154 -0.1717
  289BOLB   GL1 6915  21.277  10.998  21.584 -0.1408  0.0927 -0.1759
  289BOLB   GL2 6916  21.483  11.047  21.866 -0.1870 -0.0722  0.1143
  289BOLB   C1A 6917  21.453  10.554  21.590 -0.4041 -0.2335 -0.1219
  289BOLB   C2A 6918  21.588  10.249  21.863 -0.0657  0.0330  0.4155
  289BOLB   C3A 6919  21.867   9.892  21.988  0.0632 -0.0302  0.0642
  289BOLB   C4A 6920  22.230   9.737  21.853  0.0695 -0.1274  0.0421
  289BOLB   C1B 6921  21.665  10.739  22.046  0.0249  0.4085  0.4466
  289BOLB   C2B 6922  21.956  10.337  22.174  0.0206 -0.3411 -0.0782
  289BOLB   C3B 6923  22.208  10.029  22.324  0.2150  0.1677 -0.0124
  289BOLB   C4B 6924  22.252   9.819  22.750 -0.0147 -0.0420  0.1131
  289BOLB   NC2 6925  22.967   7.609  23.165  0.2883 -0.1204  0.0328
  289BOLB   PO2 6926  23.138   8.061  23.149 -0.0937 -0.0261  0.0826
  289BOLB   GL3 6927  23.002   8.305  22.808 -0.1348 -0.0317 -0.2403
  289BOLB   GL4 6928  22.668   8.084  22.848 -0.0394  0.0593 -0.0293
  289BOLB   C1C 6929  23.022   8.525  22.474 -0.2741 -0.3169  0.3030
  289BOLB   C2C 6930  22.893   8.900  22.316 -0.0686 -0.2048 -0.3229
  289BOLB   C3C 6931  22.690   9.188  22.215  0.1386  0.0233 -0.0492
  289BOLB   C4C 6932  22.644   9.564  21.992 -0.1890 -0.0503 -0.1822
  289BOLB   C1D 6933  22.394   8.229  22.528  0.2739 -0.2561 -0.2409
  289BOLB   C2D 6934  21.961   8.297  22.422 -0.0328 -0.0622  0.0720
  289BOLB   C3D 6935  21.660   8.615  22.375 -0.2312  0.0112 -0.0155
  289BOLB   C4D 6936  21.422   9.025  22.342  0.0992 -0.0736 -0.0869
  290BOLB   NC1 6937  19.972  17.372  23.657 -0.1207  0.2001  0.3841
  290BOLB   PO1 6938  20.117  17.025  23.815 -0.0742  0.1937  0.1623
  290BOLB   GL1 6939  20.231  17.001  24.316  0.2101  0.0322 -0.0665
  290BOLB   GL2 6940  19.952  16.950  24.596 -0.0860 -0.0949  0.1697
  290BOLB   C1A 6941  20.372  17.139  24.684  0.2315  0.0070  0.0883
  290BOLB   C2A 6942  20.287  16.935  25.099  0.1207 -0.2898  0.0837
  290BOLB   C3A 6943  20.117  17.001  25.482  0.0580 -0.1049 -0.1345
  290BOLB   C4A 6944  19.986  17.192  25.788  0.1464 -0.0333  0.2364
  290BOLB   C1B 6945  19.705  17.079  24.947  0.0142  0.1848 -0.0064
  290BOLB   C2B 6946  19.542  17.127  25.417 -0.0576 -0.3720 -0.1130
  290BOLB   C3B 6947  19.501  17.162  25.839  0.1454 -0.1065 -0.2020
  290BOLB   C4B 6948  19.666  16.800  26.185  0.2753 -0.1496  0.0104
  290BOLB   NC2 6949  20.556  18.211  27.947 -0.3658 -0.0092  0.0654
  290BOLB   PO2 6950  20.876  17.939  27.733  0.6718  0.0489  0.1893
  290BOLB   GL3 6951  20.757  17.614  27.474 -0.0731  0.0512  0.0208
  290BOLB   GL4 6952  20.865  17.392  27.223  0.1279  0.3600  0.0615
  290BOLB   C1C 6953  20.409  17.325  27.236 -0.0095  0.1285 -0.1685
  290BOLB   C2C 6954  20.151  17.387  26.905  0.2252 -0.1426  0.0168
  290BOLB   C3C 6955  19.824  17.434  26.617 -0.2082 -0.1938 -0.1461
  290BOLB   C4C 6956  19.936  17.166  26.199  0.1285 -0.2017 -0.2106
  290BOLB   C1D 6957  20.973  17.847  27.064 -0.0501 -0.1522 -0.3265
  290BOLB   C2D 6958  20.822  18.264  26.825  0.0729  0.1559 -0.1964
  290BOLB   C3D 6959  20.428  18.393  26.539  0.0432  0.3048 -0.3345
  290BOLB   C4D 6960  20.230  18.426  26.073 -0.0505  0.0705 -0.0385
  291BOLB   NC1 6961  16.988  15.025  24.277 -0.0993  0.1636  0.3316
  291BOLB   PO1 6962  16.951  15.069  24.779  0.2239  0.3692 -0.0076
  291BOLB   GL1 6963  16.733  14.754  24.991 -0.0685 -0.3078 -0.0119
  291BOLB   GL2 6964  16.308  14.593  25.019 -0.1440  0.0695  0.0088
  291BOLB   C1A 6965  16.944  14.587  25.364  0.1728  0.0630  0.0726
  291BOLB   C2A 6966  17.333  14.463  25.629 -0.1428  0.0821 -0.1271
  291BOLB   C3A 6967  17.444  14.343  26.029 -0.0439 -0.2271  0.1291
  291BOLB   C4A 6968  17.605  14.309  26.507  0.0439 -0.1705 -0.1554
  291BOLB   C1B 6969  16.474  14.501  25.401 -0.0398 -0.1813  0.1832
  291BOLB   C2B 6970  16.431  14.490  25.867  0.0709 -0.0232  0.4038
  291BOLB   C3B 6971  16.618  14.212  26.152  0.1352 -0.0931  0.0707
  291BOLB   C4B 6972  16.722  14.220  26.566 -0.0970  0.3075  0.0694
  291BOLB   NC2 6973  17.183  12.816  28.722  0.0361  0.1968  0.1036
  291BOLB   PO2 6974  16.939  13.035  28.375 -0.0339  0.1136 -0.1921
  291BOLB   GL3 6975  17.078  13.141  27.963 -0.3664  0.2279 -0.0385
  291BOLB   GL4 6976  17.313  12.975  27.748 -0.1237  0.0797 -0.4664
  291BOLB   C1C 6977  17.231  13.524  27.759 -0.0300 -0.3892 -0.0125
  291BOLB   C2C 6978  17.622  13.677  27.588  0.3052  0.0897  0.1659
  291BOLB   C3C 6979  17.749  14.014  27.276  0.2434 -0.3769  0.0438
  291BOLB   C4C 6980  17.665  14.279  26.970 -0.0846 -0.0304  0.2458
  291BOLB   C1D 6981  17.701  13.156  27.612  0.0368  0.2642 -0.0613
  291BOLB   C2D 6982  18.101  13.403  27.418  0.1050  0.1923 -0.1220
  291BOLB   C3D 6983  18.524  13.541  27.443 -0.1101  0.1897  0.0078
  291BOLB   C4D 6984  18.691  13.575  27.065  0.0602  0.2325 -0.0690
  292BOLB   NC1 6985  15.858   9.724  22.482 -0.2190  0.1365 -0.1957
  292BOLB   PO1 6986  16.180   9.619  22.225  0.3197  0.3861 -0.1784
  292BOLB   GL1 6987  16.245   9.414  22.553 -0.2349  0.0075  0.2163
  292BOLB   GL2 6988  15.989   9.282  22.719 -0.2865 -0.1448 -0.2940
  292BOLB   C1A 6989  16.433   9.162  22.853  0.1808 -0.0980  0.0881
  292BOLB   C2A 6990  16.430   8.840  23.223  0.1189 -0.0074  0.0091
  292BOLB   C3A 6991  16.559   8.663  23.644 -0.1130 -0.0615 -0.0957
  292BOLB   C4A 6992  16.397   8.382  24.028  0.1517  0.2244 -0.0593
  292BOLB   C1B 6993  15.918   8.978  23.080  0.3101 -0.0548 -0.0107
  292BOLB   C2B 6994  15.988   8.684  23.390 -0.1705 -0.0818 -0.0649
  292BOLB   C3B 6995  16.089   8.237  23.647 -0.1790 -0.0312  0.0759
  292BOLB   C4B 6996  16.142   7.817  23.499  0.0515  0.0415  0.3970
  292BOLB   NC2 6997  17.134   8.332  26.688 -0.1347  0.1501 -0.1400
  292BOLB   PO2 6998  17.123   8.479  26.342  0.0102  0.0749  0.0797
  292BOLB   GL3 6999  17.135   8.691  25.995 -0.1341 -0.1484  0.1354
  292BOLB   GL4 7000  16.874   8.723  25.948  0.2545  0.1075 -0.5854
  292BOLB   C1C 7001  17.348   8.693  25.520 -0.0854  0.3198  0.0516
  292BOLB   C2C 7002  17.264   8.742  25.005 -0.0308  0.1859  0.1674
  292BOLB   C3C 7003  16.905   8.561  24.826  0.0770  0.2490  0.3126
  292BOLB   C4C 7004  16.546   8.504  24.483 -0.0170  0.1921  0.2147
  292BOLB   C1D 7005  16.517   8.639  25.673 -0.0668 -0.3286  0.0286
  292BOLB   C2D 7006  16.124   8.568  25.693  0.0993  0.1655 -0.0943
  292BOLB   C3D 7007  15.886   8.698  25.394 -0.0674  0.1554 -0.2310
  292BOLB   C4D 7008  15.759   8.828  25.033 -0.1213  0.0620 -0.0854
  293BOLB   NC1 7009  18.884   9.817  20.457 -0.1329 -0.0775 -0.1455
  293BOLB   PO1 7010  19.041   9.812  20.912  0.1056  0.1175 -0.2006
  293BOLB   GL1 7011  19.115   9.467  20.993 -0.0504  0.0208  0.0985
  293BOLB   GL2 7012  19.029   9.349  20.686  0.3926 -0.2936 -0.4077
  293BOLB   C1A 7013  19.335   9.185  21.406 -0.2813 -0.1578  0.0606
  293BOLB   C2A 7014  19.556   8.863  21.535 -0.1347 -0.0422  0.3478
  293BOLB   C3A 7015  19.493   8.421  21.649 -0.0537 -0.5643 -0.0439
  293BOLB   C4A 7016  19.472   7.944  21.733  0.1654  0.2748 -0.0652
  293BOLB   C1B 7017  19.070   8.938  20.790  0.0791  0.0524 -0.0850
  293BOLB   C2B 7018  19.042   8.444  20.843 -0.3131 -0.1014 -0.0481
  293BOLB   C3B 7019  19.080   8.195  21.208 -0.3628 -0.0337 -0.1006
  293BOLB   C4B 7020  19.385   7.976  21.133 -0.0121 -0.1541 -0.2805
  293BOLB   NC2 7021  20.545   5.728  22.423  0.0402 -0.0551 -0.0374
  293BOLB   PO2 7022  20.593   5.992  22.110 -0.0727  0.0076  0.0500
  293BOLB   GL3 7023  20.342   6.346  21.898  0.2398  0.1404 -0.1002
  293BOLB   GL4 7024  20.274   6.695  22.062 -0.2339 -0.1645  0.2281
  293BOLB   C1C 7025  19.932   6.533  21.672  0.0202 -0.3469 -0.0074
  293BOLB   C2C 7026  19.620   6.758  21.709 -0.0223  0.2293 -0.0015
  293BOLB   C3C 7027  19.695   7.225  21.740  0.0685  0.1440  0.0992
  293BOLB   C4C 7028  19.439   7.592  21.938 -0.0813 -0.0162  0.0670
  293BOLB   C1D 7029  19.991   6.936  22.094  0.2658 -0.1999 -0.0007
  293BOLB   C2D 7030  19.792   7.298  22.230 -0.0214 -0.0173  0.2146
  293BOLB   C3D 7031  19.672   7.753  22.373  0.0738  0.0148  0.2244
  293BOLB   C4D 7032  19.645   8.061  22.175 -0.0720  0.0489 -0.2043
  294BOLB   NC1 7033  16.529  12.870  24.094  0.3126 -0.1075  0.0770
  294BOLB   PO1 7034  16.182  12.511  24.062  0.0006 -0.2629 -0.1069
  294BOLB   GL1 7035  16.394  12.146  24.293  0.1924 -0.3151  0.1161
  294BOLB   GL2 7036  16.755  12.234  24.439  0.1744 -0.1618  0.2457
  294BOLB   C1A 7037  16.591  11.806  24.256  0.4604  0.2570  0.0416
  294BOLB   C2A 7038  16.829  11.687  24.719 -0.1399 -0.0993  0.0063
  294BOLB   C3A 7039  16.894  11.410  25.053 -0.0655  0.0331 -0.0081
  294BOLB   C4A 7040  17.002  11.435  25.478 -0.2689 -0.2395  0.0049
  294BOLB   C1B 7041  16.406  11.980  24.728 -0.4283 -0.1176  0.1888
  294BOLB   C2B 7042  16.441  11.656  25.037 -0.1869  0.5025  0.4301
  294BOLB   C3B 7043  16.361  11.456  25.320  0.3465  0.2761 -0.0775
  294BOLB   C4B 7044  16.456  11.331  25.701 -0.1032 -0.0376 -0.2485
  294BOLB   NC2 7045  16.761  11.312  27.742 -0.0587 -0.1550  0.2718
  294BOLB   PO2 7046  16.318  11.585  27.811  0.2424 -0.1186  0.2227
  294BOLB   GL3 7047  16.650  11.650  27.449 -0.0489 -0.0818  0.3264
  294BOLB   GL4 7048  16.661  11.440  27.211 -0.0051  0.3081 -0.1413
  294BOLB   C1C 7049  16.972  11.813  27.115 -0.2551 -0.0807 -0.2536
  294BOLB   C2C 7050  17.004  11.905  26.647 -0.2301  0.4442  0.1558
  294BOLB   C3C 7051  17.094  11.627  26.241 -0.0185 -0.1733  0.1528
  294BOLB   C4C 7052  16.949  11.386  25.869 -0.1978 -0.1017 -0.0174
  294BOLB   C1D 7053  16.629  11.132  26.936 -0.1724 -0.2089 -0.0284
  294BOLB   C2D 7054  16.232  11.268  26.629  0.1699  0.1712  0.0568
  294BOLB   C3D 7055  16.023  11.074  26.324  0.2091  0.1050 -0.0899
  294BOLB   C4D 7056  16.030  11.055  25.883 -0.1775 -0.1131  0.0541
  295BOLB   NC1 7057  13.628  17.485  24.372  0.1272  0.1964 -0.0505
  295BOLB   PO1 7058  13.238  17.513  24.480  0.2861  0.1174 -0.4476
  295BOLB   GL1 7059  13.352  17.676  24.852 -0.0328 -0.1862  0.3176
  295BOLB   GL2 7060  13.195  17.893  24.816 -0.2090  0.0765 -0.3583
  295BOLB   C1A 7061  13.453  17.719  25.336 -0.0048  0.0790 -0.0132
  295BOLB   C2A 7062  13.277  17.812  25.709  0.0455 -0.1997  0.1162
  295BOLB   C3A 7063  13.363  18.027  26.079  0.2377  0.0165 -0.3006
  295BOLB   C4A 7064  13.494  18.045  26.514 -0.3506 -0.1035  0.4061
  295BOLB   C1B 7065  13.211  18.132  25.268  0.2044 -0.0471 -0.1704
  295BOLB   C2B 7066  13.132  18.304  25.675 -0.1084 -0.2825 -0.1836
  295BOLB   C3B 7067  13.187  18.520  26.091 -0.0499 -0.3045 -0.1989
  295BOLB   C4B 7068  13.184  18.549  26.550 -0.1533 -0.2470  0.1428
  295BOLB   NC2 7069  13.410  19.363  28.595 -0.1030 -0.0329  0.3408
  295BOLB   PO2 7070  13.032  19.362  28.411  0.0685  0.4009 -0.0214
  295BOLB   GL3 7071  13.044  19.257  27.970 -0.0822 -0.0869 -0.0371
  295BOLB   GL4 7072  12.665  19.136  27.802 -0.0034  0.0970  0.0906
  295BOLB   C1C 7073  13.453  18.944  27.734 -0.4035 -0.0388 -0.0586
  295BOLB   C2C 7074  13.440  18.689  27.497 -0.0043 -0.1304  0.1132
  295BOLB   C3C 7075  13.553  18.454  27.215  0.2669  0.0428 -0.0253
  295BOLB   C4C 7076  13.614  18.177  26.846  0.0803  0.2621 -0.0460
  295BOLB   C1D 7077  12.839  19.369  27.503 -0.0257  0.1038 -0.0901
  295BOLB   C2D 7078  12.555  19.648  27.203  0.0322  0.2393 -0.0688
  295BOLB   C3D 7079  12.270  19.376  26.967 -0.0873 -0.4658  0.0060
  295BOLB   C4D 7080  11.827  19.328  26.924 -0.0247 -0.0670  0.1826
  296BOLB   NC1 7081   9.904  12.679  23.566 -0.2899 -0.1056 -0.2034
  296BOLB   PO1 7082   9.774  13.037  23.540  0.2677 -0.3597 -0.2428
  296BOLB   GL1 7083   9.559  12.900  23.775  0.0532  0.1638 -0.1268
  296BOLB   GL2 7084   9.337  12.699  23.609 -0.3737  0.2502 -0.0629
  296BOLB   C1A 7085   9.630  12.596  24.142  0.3747  0.3571  0.2698
  296BOLB   C2A 7086   9.613  12.710  24.624  0.3322 -0.1663 -0.0884
  296BOLB   C3A 7087   9.262  12.618  25.022 -0.0287 -0.1284 -0.1825
  296BOLB   C4A 7088   9.056  12.903  25.205  0.1647  0.0340 -0.2369
  296BOLB   C1B 7089   9.117  12.760  24.047 -0.3549 -0.0103  0.0172
  296BOLB   C2B 7090   8.752  12.837  24.200  0.0290 -0.0968  0.1288
  296BOLB   C3B 7091   8.506  12.759  24.584 -0.0926  0.1758  0.3033
  296BOLB   C4B 7092   8.431  12.880  25.035  0.4847  0.1152 -0.0056
  296BOLB   NC2 7093   7.942  12.869  27.022 -0.4513 -0.1444  0.1432
  296BOLB   PO2 7094   7.553  12.859  27.010 -0.0632 -0.1390  0.0036
  296BOLB   GL3 7095   7.655  13.079  26.675 -0.3219 -0.1212 -0.0475
  296BOLB   GL4 7096   7.506  13.459  26.478  0.0144  0.1239 -0.1882
  296BOLB   C1C 7097   7.965  13.162  26.373  0.2597 -0.0687  0.0213
  296BOLB   C2C 7098   8.034  13.242  25.925  0.3272  0.0690  0.1985
  296BOLB   C3C 7099   8.209  13.009  25.627 -0.0025 -0.1648  0.1797
  296BOLB   C4C 7100   8.618  12.942  25.467  0.0551  0.1575 -0.0588
  296BOLB   C1D 7101   7.554  13.392  26.010 -0.0046  0.1802 -0.2844
  296BOLB   C2D 7102   7.604  13.113  25.690  0.1128 -0.0226 -0.3077
  296BOLB   C3D 7103   7.762  13.025  25.332  0.0098  0.0972 -0.1120
  296BOLB   C4D 7104   7.884  12.597  25.206 -0.8534  0.2214 -0.2868
  297BOLB   NC1 7105  13.699  17.961  24.716  0.1642 -0.1776  0.1277
  297BOLB   PO1 7106  14.067  18.062  24.942 -0.1354  0.2262 -0.0611
  297BOLB   GL1 7107  14.070  18.202  25.362 -0.0084 -0.1870  0.0777
  297BOLB   GL2 7108  14.024  18.569  25.254  0.2918  0.3479  0.0549
  297BOLB   C1A 7109  14.163  18.203  25.775  0.0408  0.1944  0.0651
  297BOLB   C2A 7110  14.325  18.363  26.001 -0.1385 -0.0029  0.1211
  297BOLB   C3A 7111  14.409  18.515  26.390  0.0855  0.1274 -0.1048
  297BOLB   C4A 7112  14.795  18.596  26.710  0.0935  0.4012 -0.1875
  297BOLB   C1B 7113  13.904  18.668  25.684 -0.1267  0.3874  0.4510
  297BOLB   C2B 7114  14.025  18.783  26.115  0.0219 -0.2401 -0.2070
  297BOLB   C3B 7115  14.114  18.937  26.516 -0.2234 -0.0054 -0.1316
  297BOLB   C4B 7116  14.334  18.819  26.812 -0.0514 -0.0763  0.0523
  297BOLB   NC2 7117  15.871  18.428  28.787 -0.0344  0.3521  0.2780
  297BOLB   PO2 7118  16.159  18.289  28.528 -0.1784 -0.2126 -0.3440
  297BOLB   GL3 7119  16.243  18.335  28.071 -0.0982 -0.2280  0.0961
  297BOLB   GL4 7120  16.065  18.045  27.844 -0.1458  0.1157  0.0564
  297BOLB   C1C 7121  16.239  18.562  27.601 -0.0661  0.1457  0.2485
  297BOLB   C2C 7122  15.946  18.695  27.273  0.3532 -0.3348 -0.0821
  297BOLB   C3C 7123  15.460  18.543  27.247  0.1268  0.0039  0.0163
  297BOLB   C4C 7124  15.116  18.518  27.006  0.0291  0.1681  0.1191
  297BOLB   C1D 7125  15.884  18.221  27.445  0.2623 -0.2546 -0.0271
  297BOLB   C2D 7126  15.751  18.260  26.967 -0.0904  0.1409  0.1574
  297BOLB   C3D 7127  15.677  18.226  26.487  0.4679 -0.2351  0.3467
  297BOLB   C4D 7128  15.895  18.345  26.004  0.3561  0.0988  0.1228
  298BOLB   NC1 7129  12.777  12.379  24.034 -0.0596 -0.0761  0.0068
  298BOLB   PO1 7130  12.660  12.603  24.325  0.0785 -0.4989  0.1349
  298BOLB   GL1 7131  13.007  12.487  24.604 -0.0200 -0.2629  0.0715
  298BOLB   GL2 7132  13.333  12.273  24.495  0.1699  0.1787 -0.1206
  298BOLB   C1A 7133  12.975  12.450  25.001  0.1341 -0.0531  0.3321
  298BOLB   C2A 7134  12.883  12.330  25.417  0.1273  0.2542  0.3418
  298BOLB   C3A 7135  12.796  12.508  25.818 -0.1275  0.5010  0.0128
  298BOLB   C4A 7136  12.822  12.470  26.232  0.2200  0.0770 -0.3881
  298BOLB   C1B 7137  13.421  12.197  24.971  0.2017  0.0593  0.1159
  298BOLB   C2B 7138  13.322  12.109  25.308 -0.0818 -0.0004  0.1041
  298BOLB   C3B 7139  13.464  11.906  25.707 -0.2098  0.1201 -0.0296
  298BOLB   C4B 7140  13.517  11.483  25.891  0.0822 -0.0363 -0.0898
  298BOLB   NC2 7141  11.612  12.238  28.634  0.1011  0.0458 -0.1495
  298BOLB   PO2 7142  12.034  12.534  28.502  0.1143  0.2858 -0.1829
  298BOLB   GL3 7143  12.173  12.542  28.093  0.0914  0.1942  0.1102
  298BOLB   GL4 7144  12.315  12.235  27.999 -0.2143  0.0483  0.1426
  298BOLB   C1C 7145  12.193  12.539  27.584 -0.0302 -0.0144  0.1133
  298BOLB   C2C 7146  12.300  12.372  27.181  0.0513 -0.1623 -0.2780
  298BOLB   C3C 7147  12.733  12.407  26.954 -0.2517  0.0442 -0.0850
  298BOLB   C4C 7148  12.940  12.546  26.602  0.1943 -0.2697  0.1662
  298BOLB   C1D 7149  12.398  12.091  27.661  0.1329  0.4270 -0.2493
  298BOLB   C2D 7150  12.591  11.978  27.238  0.1103  0.0348  0.1274
  298BOLB   C3D 7151  12.522  12.003  26.800  0.1123  0.2589 -0.1760
  298BOLB   C4D 7152  12.470  12.206  26.439 -0.2415 -0.0794 -0.0798
  299BOLB   NC1 7153  12.786  10.126  22.999  0.1707  0.0068  0.2200
  299BOLB   PO1 7154  12.913  10.151  23.379 -0.1253  0.2715 -0.1447
  299BOLB   GL1 7155  13.321  10.006  23.596 -0.0035  0.0506 -0.3121
  299BOLB   GL2 7156  13.690  10.000  23.455  0.1660 -0.1601 -0.0809
  299BOLB   C1A 7157  13.455   9.898  23.991  0.0819  0.1905 -0.0162
  299BOLB   C2A 7158  13.640   9.824  24.477 -0.2946  0.1179  0.1094
  299BOLB   C3A 7159  13.668  10.073  24.853 -0.0388  0.2602 -0.2554
  299BOLB   C4A 7160  13.848  10.157  25.310 -0.4299 -0.1296  0.0743
  299BOLB   C1B 7161  13.951   9.963  23.827  0.2537 -0.0703  0.1198
  299BOLB   C2B 7162  14.061   9.979  24.292  0.1372  0.2582 -0.0260
  299BOLB   C3B 7163  14.444  10.026  24.478 -0.2342 -0.1011 -0.0698
  299BOLB   C4B 7164  14.732   9.894  24.729  0.0711 -0.0151 -0.1299
  299BOLB   NC2 7165  14.290   9.843  27.883 -0.1413  0.1639  0.0754
  299BOLB   PO2 7166  14.579  10.162  27.699  0.4405  0.0165 -0.1462
  299BOLB   GL3 7167  14.208  10.234  27.474  0.4428  0.2705  0.3869
  299BOLB   GL4 7168  14.125  10.552  27.506  0.2581  0.0891 -0.0227
  299BOLB   C1C 7169  14.077  10.264  27.036  0.0667 -0.0065  0.0239
  299BOLB   C2C 7170  14.299  10.228  26.607 -0.1406  0.1042  0.0514
  299BOLB   C3C 7171  14.280  10.290  26.129  0.0998 -0.0506 -0.2202
  299BOLB   C4C 7172  14.075  10.192  25.724 -0.2533  0.0706 -0.0359
  299BOLB   C1D 7173  14.370  10.773  27.183  0.1795 -0.2261  0.2660
  299BOLB   C2D 7174  14.433  10.981  26.813  0.0880 -0.0416  0.4207
  299BOLB   C3D 7175  14.156  11.153  26.452 -0.4770 -0.0611 -0.1505
  299BOLB   C4D 7176  13.826  11.372  26.241  0.2179  0.3059 -0.2134
  300BOLB   NC1 7177  11.445  16.923  23.882  0.0000 -0.1374  0.3712
  300BOLB   PO1 7178  11.358  17.136  24.230 -0.1383  0.1918 -0.0916
  300BOLB   GL1 7179  11.400  17.068  24.598 -0.0053 -0.0070 -0.0801
  300BOLB   GL2 7180  11.537  16.796  24.633  0.1475 -0.4356 -0.1452
  300BOLB   C1A 7181  11.222  17.089  24.996  0.1183  0.3883 -0.2509
  300BOLB   C2A 7182  11.134  17.185  25.416  0.1980  0.0948 -0.2054
  300BOLB   C3A 7183  10.799  17.193  25.706 -0.0095  0.2746 -0.4531
  300BOLB   C4A 7184  10.527  16.844  25.946 -0.0190 -0.0647 -0.0905
  300BOLB   C1B 7185  11.510  16.644  25.035 -0.0332 -0.2010 -0.0671
  300BOLB   C2B 7186  11.591  16.527  25.422 -0.0673 -0.0541  0.0153
  300BOLB   C3B 7187  11.488  16.577  25.911  0.1039 -0.1743  0.0748
  300BOLB   C4B 7188  11.495  16.470  26.320 -0.1166 -0.3586 -0.0815
  300BOLB   NC2 7189   9.664  17.078  28.153  0.4156  0.2244  0.3790
  300BOLB   PO2 7190   9.881  16.848  28.151  0.0519  0.1681 -0.0836
  300BOLB   GL3 7191   9.815  16.637  27.779  0.2881  0.1408 -0.0550
  300BOLB   GL4 7192  10.182  16.647  27.673 -0.0169 -0.0980  0.0807
  300BOLB   C1C 7193   9.700  16.676  27.331  0.0658  0.2994 -0.0149
  300BOLB   C2C 7194   9.941  16.686  26.918  0.3212  0.1692  0.2310
  300BOLB   C3C 7195   9.927  16.606  26.448 -0.2298 -0.1323  0.0239
  300BOLB   C4C 7196  10.306  16.519  26.149 -0.1494  0.1116  0.1682
  300BOLB   C1D 7197  10.050  17.004  27.388  0.0499 -0.0886  0.2900
  300BOLB   C2D 7198  10.339  17.014  26.986  0.1095  0.0676  0.0689
  300BOLB   C3D 7199  10.372  16.602  26.668  0.0939 -0.0333  0.0534
  300BOLB   C4D 7200  10.668  16.703  26.422  0.0520  0.0678 -0.4786
  301BOLB   NC1 7201  18.092  20.559  22.898 -0.3046  0.2648 -0.3305
  301BOLB   PO1 7202  18.310  21.032  22.962 -0.1856 -0.0702 -0.0582
  301BOLB   GL1 7203  18.757  21.219  23.146 -0.1900 -0.0091 -0.5106
  301BOLB   GL2 7204  18.920  21.005  23.337  0.1039  0.2335 -0.0802
  301BOLB   C1A 7205  18.770  21.453  23.530  0.0831  0.2269  0.0452
  301BOLB   C2A 7206  18.937  21.683  23.925 -0.2896  0.2152 -0.1719
  301BOLB   C3A 7207  19.009  21.907  24.187 -0.1037  0.1540  0.0857
  301BOLB   C4A 7208  18.961  22.099  24.526  0.1696  0.0579  0.3571
  301BOLB   C1B 7209  19.103  21.148  23.731  0.0261 -0.1295  0.5617
  301BOLB   C2B 7210  19.202  21.248  24.120 -0.0678 -0.1552  0.0134
  301BOLB   C3B 7211  19.129  21.493  24.478  0.0880  0.0457  0.2275
  301BOLB   C4B 7212  19.189  21.755  24.845  0.1808  0.1071  0.0266
  301BOLB   NC2 7213  20.384  24.192  26.018  0.2812  0.2746  0.6091
  301BOLB   PO2 7214  19.940  23.976  26.006  0.1346 -0.3331  0.1531
  301BOLB   GL3 7215  19.638  23.614  25.774 -0.1191  0.0794  0.1916
  301BOLB   GL4 7216  19.445  23.735  25.475 -0.1509 -0.0341  0.0071
  301BOLB   C1C 7217  19.481  23.243  25.578  0.1135  0.1214 -0.0258
  301BOLB   C2C 7218  19.394  22.764  25.658 -0.0869  0.4066  0.1663
  301BOLB   C3C 7219  19.169  22.388  25.426 -0.2091  0.1494  0.3016
  301BOLB   C4C 7220  19.019  22.184  25.055  0.2170 -0.1559  0.0325
  301BOLB   C1D 7221  19.182  23.680  25.143  0.0177  0.5205 -0.1660
  301BOLB   C2D 7222  18.925  23.401  24.993  0.0545 -0.1915 -0.0344
  301BOLB   C3D 7223  18.788  23.126  24.650  0.2798 -0.3609 -0.2142
  301BOLB   C4D 7224  18.374  23.452  24.475  0.0647  0.2252  0.1345
  302BOLB   NC1 7225  15.723  18.758  24.928 -0.1604  0.0653 -0.0406
  302BOLB   PO1 7226  15.983  19.046  24.696  0.0660 -0.2194 -0.0994
  302BOLB   GL1 7227  16.162  19.003  25.015 -0.0994 -0.0022 -0.0404
  302BOLB   GL2 7228  16.105  18.814  25.246  0.1598  0.2674 -0.1141
  302BOLB   C1A 7229  16.217  19.301  25.339 -0.0047  0.1519 -0.2221
  302BOLB   C2A 7230  16.404  19.513  25.700  0.0673 -0.0721 -0.5412
  302BOLB   C3A 7231  16.425  19.474  26.221 -0.0119 -0.0169  0.0180
  302BOLB   C4A 7232  16.322  19.506  26.627 -0.2052  0.0427 -0.0106
  302BOLB   C1B 7233  16.006  18.876  25.686  0.2643  0.4134 -0.1917
  302BOLB   C2B 7234  16.073  19.160  25.980  0.1770 -0.0352  0.1713
  302BOLB   C3B 7235  15.963  19.265  26.304  0.1470 -0.1572 -0.0371
  302BOLB   C4B 7236  15.596  19.196  26.625  0.0405 -0.2394  0.0161
  302BOLB   NC2 7237  17.046  19.260  28.592 -0.0576 -0.0210  0.1796
  302BOLB   PO2 7238  16.726  19.555  28.720  0.0872 -0.1336 -0.0891
  302BOLB   GL3 7239  16.562  19.493  28.379 -0.4329 -0.1155  0.0761
  302BOLB   GL4 7240  16.763  19.708  28.228  0.1958 -0.1411  0.0454
  302BOLB   C1C 7241  16.630  19.153  28.090  0.3018 -0.0135 -0.0474
  302BOLB   C2C 7242  16.739  19.088  27.724  0.0012  0.0364  0.0720
  302BOLB   C3C 7243  16.770  19.198  27.393 -0.0584 -0.0174 -0.0325
  302BOLB   C4C 7244  16.473  19.448  27.043  0.1359 -0.0924  0.1849
  302BOLB   C1D 7245  16.803  19.586  27.821 -0.2882  0.1245 -0.0523
  302BOLB   C2D 7246  16.909  19.656  27.361 -0.1005  0.3400  0.2908
  302BOLB   C3D 7247  16.913  19.637  26.997 -0.1378 -0.0342 -0.0862
  302BOLB   C4D 7248  16.891  19.461  26.598 -0.1829 -0.2639  0.2361
  303BOLB   NC1 7249  18.008  23.475  21.177 -0.1965  0.2893 -0.1735
  303BOLB   PO1 7250  18.308  23.227  21.525  0.0334  0.0201 -0.2850
  303BOLB   GL1 7251  18.298  23.461  21.913 -0.1472  0.1318 -0.2034
  303BOLB   GL2 7252  18.639  23.636  21.837  0.0093  0.3238 -0.1835
  303BOLB   C1A 7253  18.221  23.668  22.401 -0.2722  0.0211  0.2405
  303BOLB   C2A 7254  18.347  23.987  22.719  0.1481  0.1567 -0.1300
  303BOLB   C3A 7255  18.366  24.156  23.026  0.3764  0.5127 -0.1747
  303BOLB   C4A 7256  18.485  24.085  23.351  0.0621 -0.1021 -0.0722
  303BOLB   C1B 7257  18.635  23.958  22.217 -0.1969  0.1513  0.1685
  303BOLB   C2B 7258  18.901  24.273  22.551  0.2184 -0.0913  0.2788
  303BOLB   C3B 7259  19.044  24.561  22.892  0.2926  0.2170 -0.2223
  303BOLB   C4B 7260  19.325  24.444  23.146  0.1230  0.0982  0.1999
  303BOLB   NC2 7261  18.535  25.150  25.474 -0.1488  0.1585  0.3352
  303BOLB   PO2 7262  18.309  24.996  25.790 -0.1360 -0.0461 -0.2490
  303BOLB   GL3 7263  18.251  24.798  25.376 -0.1783 -0.1670  0.2749
  303BOLB   GL4 7264  18.592  24.532  25.306 -0.1190  0.2583 -0.1323
  303BOLB   C1C 7265  18.222  24.786  24.981  0.3244  0.2684 -0.1175
  303BOLB   C2C 7266  18.242  24.643  24.588  0.1361  0.1357 -0.1113
  303BOLB   C3C 7267  18.401  24.505  24.149  0.2146  0.2961 -0.0866
  303BOLB   C4C 7268  18.542  24.304  23.779 -0.1911  0.1010  0.1751
  303BOLB   C1D 7269  18.699  24.628  24.947  0.1585 -0.1255  0.2937
  303BOLB   C2D 7270  18.642  24.377  24.593  0.2790  0.0551 -0.0547
  303BOLB   C3D 7271  18.797  24.119  24.253 -0.2356  0.0102  0.1091
  303BOLB   C4D 7272  19.130  24.179  24.183 -0.0827  0.2032 -0.2201
  304BOLB   NC1 7273  16.750  10.677  22.890 -0.0202 -0.0633 -0.0178
  304BOLB   PO1 7274  17.002  10.952  22.709  0.3172  0.4022  0.1891
  304BOLB   GL1 7275  17.243  10.685  22.984 -0.1113  0.0477  0.0477
  304BOLB   GL2 7276  17.660  10.714  23.078  0.2252  0.1407  0.2681
  304BOLB   C1A 7277  17.223  10.354  23.349 -0.1215 -0.2534 -0.0892
  304BOLB   C2A 7278  17.418  10.217  23.801 -0.2670  0.0614  0.0962
  304BOLB   C3A 7279  17.532  10.269  24.253  0.1542 -0.4294  0.2092
  304BOLB   C4A 7280  17.796   9.987  24.493 -0.0118  0.0188  0.2836
  304BOLB   C1B 7281  17.691  10.520  23.487 -0.1363  0.0998 -0.0326
  304BOLB   C2B 7282  17.912  10.179  23.756 -0.3007  0.0784 -0.2017
  304BOLB   C3B 7283  18.036   9.984  24.045 -0.3001  0.3644  0.0035
  304BOLB   C4B 7284  18.134   9.566  24.236  0.0998 -0.0695  0.0233
  304BOLB   NC2 7285  19.450   8.065  25.138 -0.0688 -0.0523  0.0620
  304BOLB   PO2 7286  19.192   8.316  25.492  0.0246  0.2071  0.0659
  304BOLB   GL3 7287  19.002   8.521  25.151  0.0442  0.3656  0.0031
  304BOLB   GL4 7288  19.201   8.444  24.922 -0.1814  0.2110 -0.2129
  304BOLB   C1C 7289  18.660   8.752  24.944  0.0917  0.0661  0.0031
  304BOLB   C2C 7290  18.195   8.914  24.853 -0.0113  0.1673  0.0979
  304BOLB   C3C 7291  17.968   9.265  24.732  0.1856  0.1161 -0.0387
  304BOLB   C4C 7292  17.773   9.531  24.584 -0.7494  0.2861  0.0628
  304BOLB   C1D 7293  19.440   8.801  24.805 -0.0110 -0.1294  0.0980
  304BOLB   C2D 7294  19.541   9.042  24.508  0.2028  0.3185  0.1981
  304BOLB   C3D 7295  19.471   9.106  24.025  0.0595 -0.1423  0.3387
  304BOLB   C4D 7296  19.683   9.128  23.639 -0.0305 -0.1578 -0.2851
  305BOLB   NC1 7297  20.505  10.460  20.303  0.0750 -0.1702 -0.1682
  305BOLB   PO1 7298  20.340  10.491  20.729  0.0312  0.5313 -0.1798
  305BOLB   GL1 7299  20.283  10.053  20.680 -0.2739  0.0204 -0.2172
  305BOLB   GL2 7300  20.574   9.949  20.542  0.2199 -0.3264 -0.0128
  305BOLB   C1A 7301  20.447   9.745  21.035 -0.2534 -0.0909  0.3175
  305BOLB   C2A 7302  20.516   9.368  21.111 -0.1275  0.2335  0.0929
  305BOLB   C3A 7303  20.711   8.992  21.188 -0.2526 -0.2009 -0.2524
  305BOLB   C4A 7304  20.883   8.682  21.452  0.1875  0.0363  0.1441
  305BOLB   C1B 7305  20.811   9.653  20.722 -0.2085 -0.2975  0.0630
  305BOLB   C2B 7306  21.016   9.475  21.122  0.2952  0.2190 -0.0479
  305BOLB   C3B 7307  21.202   9.089  21.254  0.1691 -0.2828  0.0358
  305BOLB   C4B 7308  21.421   8.835  21.432  0.0513  0.2853  0.2539
  305BOLB   NC2 7309  21.085   6.760  22.261 -0.1866 -0.0992 -0.3767
  305BOLB   PO2 7310  21.079   6.787  22.725  0.1907  0.2068 -0.2676
  305BOLB   GL3 7311  21.109   7.158  22.705 -0.0382 -0.0813  0.1747
  305BOLB   GL4 7312  20.860   7.247  22.591  0.0726 -0.2366  0.1330
  305BOLB   C1C 7313  21.223   7.400  22.275 -0.0371  0.2369 -0.2680
  305BOLB   C2C 7314  21.092   7.663  21.988 -0.0227 -0.2345  0.1054
  305BOLB   C3C 7315  20.950   7.984  21.706 -0.0708 -0.2261 -0.3292
  305BOLB   C4C 7316  21.099   8.305  21.444 -0.1652 -0.0636 -0.0836
  305BOLB   C1D 7317  20.822   7.547  22.761 -0.3805 -0.0962 -0.1022
  305BOLB   C2D 7318  20.752   7.980  22.669 -0.3028  0.0988 -0.0675
  305BOLB   C3D 7319  20.517   8.364  22.596  0.3244  0.2410  0.0082
  305BOLB   C4D 7320  20.353   8.495  22.286  0.0643 -0.0580  0.3678
  306BOLB   NC1 7321  19.952  21.961  22.350  0.1232  0.1138 -0.2172
  306BOLB   PO1 7322  19.899  21.554  22.477  0.0314 -0.3660  0.1167
  306BOLB   GL1 7323  20.116  21.527  22.946  0.0336  0.0410  0.2212
  306BOLB   GL2 7324  20.018  21.209  23.052  0.0432 -0.2345 -0.2365
  306BOLB   C1A 7325  20.239  21.642  23.296  0.0708  0.1552 -0.1366
  306BOLB   C2A 7326  20.187  21.982  23.547  0.0907 -0.0448  0.0591
  306BOLB   C3A 7327  20.331  22.146  23.899  0.0871 -0.0289 -0.2795
  306BOLB   C4A 7328  20.425  22.189  24.326  0.2016  0.2500  0.2889
  306BOLB   C1B 7329  20.003  21.272  23.497  0.2584 -0.1689 -0.3007
  306BOLB   C2B 7330  19.945  21.667  23.834 -0.1385  0.2094  0.2629
  306BOLB   C3B 7331  20.013  21.754  24.209 -0.2369  0.0397  0.1472
  306BOLB   C4B 7332  20.021  21.867  24.640  0.2191  0.0695 -0.1219
  306BOLB   NC2 7333  20.260  22.219  26.717 -0.1702  0.3042 -0.0848
  306BOLB   PO2 7334  20.561  22.554  26.476 -0.3172  0.2913  0.0625
  306BOLB   GL3 7335  20.584  22.465  26.079 -0.2503 -0.2419  0.1542
  306BOLB   GL4 7336  20.960  22.481  25.958  0.1776  0.0235 -0.2562
  306BOLB   C1C 7337  20.275  22.285  25.884  0.0162 -0.2060  0.1626
  306BOLB   C2C 7338  20.117  22.161  25.481 -0.0061 -0.0053 -0.1456
  306BOLB   C3C 7339  20.207  22.230  25.126  0.0625  0.0140  0.0498
  306BOLB   C4C 7340  20.440  22.087  24.756 -0.0059 -0.0801  0.2242
  306BOLB   C1D 7341  20.772  22.269  25.651 -0.3839 -0.0204  0.0134
  306BOLB   C2D 7342  20.698  22.275  25.242 -0.0826 -0.0087 -0.1543
  306BOLB   C3D 7343  20.733  22.528  24.888  0.4024 -0.2163 -0.1907
  306BOLB   C4D 7344  20.844  22.383  24.537 -0.0535 -0.0036 -0.4797
  307BOLB   NC1 7345  22.009  15.083  23.338 -0.1745 -0.2611 -0.1618
  307BOLB   PO1 7346  21.781  15.187  23.581 -0.0193 -0.1249 -0.0738
  307BOLB   GL1 7347  22.095  15.078  23.903  0.1823  0.4210  0.2192
  307BOLB   GL2 7348  22.342  15.310  23.973  0.0206  0.0807  0.0565
  307BOLB   C1A 7349  22.063  14.707  24.119 -0.0471  0.2747  0.1543
  307BOLB   C2A 7350  22.271  14.435  24.481  0.0969 -0.0656 -0.1860
  307BOLB   C3A 7351  22.210  14.222  24.874 -0.0962  0.1202  0.3901
  307BOLB   C4A 7352  22.248  13.970  25.258  0.2874 -0.1369 -0.2505
  307BOLB   C1B 7353  22.230  15.267  24.415 -0.1852  0.1438 -0.0716
  307BOLB   C2B 7354  22.264  15.102  24.754 -0.5277 -0.2774 -0.3006
  307BOLB   C3B 7355  22.069  15.109  25.242 -0.1915  0.0451 -0.0142
  307BOLB   C4B 7356  22.128  14.935  25.548  0.0047  0.2184 -0.1406
  307BOLB   NC2 7357  22.359  14.367  27.986 -0.3788  0.0858  0.1716
  307BOLB   PO2 7358  22.073  13.928  27.697 -0.5746 -0.1068 -0.1454
  307BOLB   GL3 7359  22.193  13.978  27.224 -0.0588 -0.3416 -0.3149
  307BOLB   GL4 7360  22.577  14.133  27.084 -0.3005 -0.1690 -0.2185
  307BOLB   C1C 7361  22.289  13.793  26.847 -0.0189  0.2055 -0.1198
  307BOLB   C2C 7362  22.184  13.582  26.469 -0.3167  0.1504 -0.2425
  307BOLB   C3C 7363  22.315  13.538  25.985  0.0061  0.1950  0.2677
  307BOLB   C4C 7364  22.468  13.741  25.618  0.2423 -0.2288 -0.1006
  307BOLB   C1D 7365  22.714  14.043  26.673 -0.0655  0.1058 -0.1112
  307BOLB   C2D 7366  22.701  14.161  26.230 -0.1110  0.2018 -0.0324
  307BOLB   C3D 7367  22.362  14.004  25.986  0.1531  0.0395 -0.0382
  307BOLB   C4D 7368  22.006  14.051  25.790  0.1174  0.4909 -0.1784
  308BOLB   NC1 7369   9.486   9.373  22.784  0.0045  0.2607 -0.0131
  308BOLB   PO1 7370   9.632   9.261  23.138 -0.1789 -0.1342 -0.0639
  308BOLB   GL1 7371   9.888   9.438  23.425 -0.0424  0.2387  0.3222
  308BOLB   GL2 7372   9.890   9.760  23.331  0.3121 -0.0667  0.1784
  308BOLB   C1A 7373  10.063   9.260  23.746  0.0850  0.0762 -0.0605
  308BOLB   C2A 7374   9.868   9.318  24.137  0.2490  0.0011 -0.0396
  308BOLB   C3A 7375   9.502   9.489  24.391 -0.0079  0.0380  0.0455
  308BOLB   C4A 7376   9.115   9.469  24.494 -0.0721  0.0256 -0.2821
  308BOLB   C1B 7377   9.752   9.786  23.777  0.2808 -0.3444  0.0939
  308BOLB   C2B 7378   9.848   9.863  24.217 -0.2668 -0.2173 -0.0982
  308BOLB   C3B 7379   9.801  10.054  24.566 -0.2097  0.1071  0.1812
  308BOLB   C4B 7380   9.808  10.039  24.949  0.1153 -0.0549 -0.3544
  308BOLB   NC2 7381   7.125   9.117  25.157 -0.0425 -0.2978  0.3257
  308BOLB   PO2 7382   6.940   9.118  24.794  0.1903 -0.0790 -0.3512
  308BOLB   GL3 7383   7.197   9.486  24.586  0.0582  0.2140  0.1544
  308BOLB   GL4 7384   7.437   9.521  24.916 -0.3082 -0.3035 -0.0660
  308BOLB   C1C 7385   7.593   9.642  24.465 -0.2698 -0.0419 -0.1585
  308BOLB   C2C 7386   7.991   9.712  24.659  0.0829  0.0550 -0.1115
  308BOLB   C3C 7387   8.355   9.860  24.733  0.1850 -0.0959  0.2538
  308BOLB   C4C 7388   8.665   9.613  24.608 -0.0709  0.1307  0.0628
  308BOLB   C1D 7389   7.831   9.641  25.098 -0.0798  0.1732  0.1844
  308BOLB   C2D 7390   8.030   9.426  25.535 -0.1258  0.1863 -0.3391
  308BOLB   C3D 7391   8.438   9.094  25.436 -0.4926 -0.0709  0.2844
  308BOLB   C4D 7392   8.645   8.824  25.207 -0.0369  0.3153  0.1135
  309BOLB   NC1 7393  20.811  16.974  23.080 -0.2553 -0.1209  0.1922
  309BOLB   PO1 7394  20.899  17.102  23.469 -0.0456  0.0490  0.0154
  309BOLB   GL1 7395  20.842  17.305  23.773 -0.1548 -0.3595 -0.1602
  309BOLB   GL2 7396  20.555  17.378  23.949 -0.0191 -0.1469  0.0271
  309BOLB   C1A 7397  21.031  17.482  24.148  0.1877 -0.1184  0.3683
  309BOLB   C2A 7398  21.310  17.505  24.496  0.1638  0.0671  0.0013
  309BOLB   C3A 7399  21.494  17.428  24.927  0.0656  0.0744  0.0163
  309BOLB   C4A 7400  21.636  17.254  25.263 -0.3316  0.0706 -0.2957
  309BOLB   C1B 7401  20.502  17.489  24.354 -0.0702  0.2973 -0.1392
  309BOLB   C2B 7402  20.458  17.723  24.725 -0.2203 -0.0280  0.0361
  309BOLB   C3B 7403  20.564  17.947  25.030  0.1953 -0.0579 -0.0596
  309BOLB   C4B 7404  20.524  18.242  25.334  0.1332 -0.0647  0.0720
  309BOLB   NC2 7405  22.052  17.137  27.773 -0.1109 -0.3464 -0.1085
  309BOLB   PO2 7406  21.967  16.810  27.484 -0.2211  0.4706 -0.3054
  309BOLB   GL3 7407  22.019  16.917  27.128 -0.1405 -0.1399 -0.0954
  309BOLB   GL4 7408  22.109  17.312  26.999  0.0207  0.2912 -0.0186
  309BOLB   C1C 7409  21.811  16.907  26.708 -0.0514  0.1366  0.0897
  309BOLB   C2C 7410  22.100  17.038  26.408 -0.2194  0.1159  0.0519
  309BOLB   C3C 7411  22.052  17.272  26.115  0.0164  0.0233  0.1132
  309BOLB   C4C 7412  21.926  17.387  25.647 -0.2682  0.1071 -0.3229
  309BOLB   C1D 7413  21.730  17.355  26.697  0.0361  0.0626  0.0489
  309BOLB   C2D 7414  21.547  17.190  26.275  0.1132  0.2475 -0.0127
  309BOLB   C3D 7415  21.571  17.042  25.800 -0.0293  0.0573  0.0554
  309BOLB   C4D 7416  21.285  16.785  25.469 -0.1395 -0.0589 -0.3257
  310BOLB   NC1 7417  23.620  18.264  22.370  0.2240  0.0976 -0.1068
  310BOLB   PO1 7418  23.232  18.569  22.609 -0.0540 -0.1328 -0.0598
  310BOLB   GL1 7419  23.340  18.500  23.120 -0.0351 -0.3946 -0.0668
  310BOLB   GL2 7420  23.108  18.620  23.390  0.1374  0.0320  0.1803
  310BOLB   C1A 7421  23.559  18.413  23.463 -0.0460  0.0990  0.3342
  310BOLB   C2A 7422  23.456  18.623  23.774  0.1448  0.1168  0.0521
  310BOLB   C3A 7423  23.185  18.714  24.160 -0.0436  0.0926  0.3159
  310BOLB   C4A 7424  22.893  18.775  24.480 -0.2188  0.4439  0.0988
  310BOLB   C1B 7425  22.952  18.802  23.754 -0.0341 -0.2468 -0.0105
  310BOLB   C2B 7426  22.820  19.058  24.116  0.0750 -0.2237  0.1001
  310BOLB   C3B 7427  22.409  19.368  24.163 -0.1788 -0.1587  0.0298
  310BOLB   C4B 7428  22.121  19.691  24.193  0.2653  0.0043 -0.1544
  310BOLB   NC2 7429  23.653  19.148  26.918  0.0594  0.0724  0.3203
  310BOLB   PO2 7430  23.308  18.997  26.967 -0.1770 -0.1024  0.0375
  310BOLB   GL3 7431  23.130  18.917  26.603  0.1308 -0.5089  0.2886
  310BOLB   GL4 7432  23.437  18.920  26.442  0.1070  0.0649  0.2608
  310BOLB   C1C 7433  22.923  19.055  26.171 -0.0921 -0.2093 -0.0304
  310BOLB   C2C 7434  22.825  18.843  25.708 -0.0222 -0.0675  0.1826
  310BOLB   C3C 7435  22.839  18.679  25.370  0.3850  0.0239 -0.0964
  310BOLB   C4C 7436  22.866  18.713  24.931 -0.3027 -0.0047 -0.1513
  310BOLB   C1D 7437  23.243  18.718  26.002  0.1939 -0.1064 -0.0844
  310BOLB   C2D 7438  23.167  18.464  25.650  0.0405 -0.0526 -0.4993
  310BOLB   C3D 7439  23.093  18.330  25.254 -0.1890  0.1072 -0.0826
  310BOLB   C4D 7440  23.123  18.274  24.768 -0.2409 -0.0893 -0.0979
  311BOLB   NC1 7441  18.286  24.680  19.258 -0.0265 -0.0259 -0.2658
  311BOLB   PO1 7442  18.346  24.943  19.575  0.0701 -0.3022  0.0483
  311BOLB   GL1 7443  18.385  25.225  19.911 -0.0091 -0.2089  0.0719
  311BOLB   GL2 7444  18.193  25.249  20.213  0.1765 -0.0360 -0.2264
  311BOLB   C1A 7445  18.307  25.687  19.833 -0.1744  0.2771 -0.0998
  311BOLB   C2A 7446  18.239  26.102  19.790  0.2182 -0.0372  0.1379
  311BOLB   C3A 7447  18.307  26.518  19.965  0.1501  0.0559  0.0292
  311BOLB   C4A 7448  18.246  26.763  20.471  0.0434  0.2139 -0.1240
  311BOLB   C1B 7449  18.445  25.564  20.530  0.2506  0.3261 -0.0820
  311BOLB   C2B 7450  18.512  25.986  20.766  0.0117 -0.1238  0.0052
  311BOLB   C3B 7451  18.190  26.403  20.840  0.1530 -0.1981  0.1788
  311BOLB   C4B 7452  17.818  26.689  20.848  0.1955  0.4395  0.1844
  311BOLB   NC2 7453  18.341  28.250  22.001  0.0351  0.0649 -0.0430
  311BOLB   PO2 7454  18.437  28.007  22.241 -0.1087 -0.0665  0.0491
  311BOLB   GL3 7455  18.599  27.599  22.196  0.1305  0.0229 -0.1162
  311BOLB   GL4 7456  18.895  27.551  22.242  0.0708 -0.1327  0.3464
  311BOLB   C1C 7457  18.505  27.281  21.883  0.2579  0.1206  0.1584
  311BOLB   C2C 7458  18.660  27.113  21.455  0.1701 -0.0406 -0.1260
  311BOLB   C3C 7459  18.638  26.899  21.130  0.1964  0.4214  0.2976
  311BOLB   C4C 7460  18.509  26.791  20.785 -0.1250 -0.1102 -0.0043
  311BOLB   C1D 7461  18.906  27.081  22.077  0.4099  0.2960 -0.1413
  311BOLB   C2D 7462  18.637  26.772  21.907 -0.1791 -0.2050  0.0662
  311BOLB   C3D 7463  18.270  26.745  21.645 -0.0545  0.2564  0.3051
  311BOLB   C4D 7464  18.134  26.851  21.206  0.0331  0.1121  0.1337
  312BOLB   NC1 7465  14.034  23.038  22.403  0.1161 -0.1885 -0.3154
  312BOLB   PO1 7466  14.392  23.245  22.414  0.0894 -0.3977  0.4011
  312BOLB   GL1 7467  14.527  23.430  22.708  0.2425  0.1067 -0.0956
  312BOLB   GL2 7468  14.846  23.343  22.882  0.0885 -0.0255 -0.2616
  312BOLB   C1A 7469  14.627  23.831  23.056 -0.4972  0.1492 -0.2511
  312BOLB   C2A 7470  14.475  24.117  23.307  0.2217 -0.0451 -0.0062
  312BOLB   C3A 7471  14.422  24.287  23.631 -0.0784 -0.0569  0.0663
  312BOLB   C4A 7472  14.442  24.471  24.070  0.1050  0.2987  0.2122
  312BOLB   C1B 7473  15.098  23.643  23.025 -0.1052  0.2154  0.2554
  312BOLB   C2B 7474  15.035  24.063  23.091 -0.0294  0.2502  0.1015
  312BOLB   C3B 7475  15.218  24.449  23.236 -0.0718  0.0963 -0.0495
  312BOLB   C4B 7476  15.325  24.640  23.664 -0.1842 -0.0718  0.0778
  312BOLB   NC2 7477  14.296  24.850  26.517 -0.2076  0.1576  0.2538
  312BOLB   PO2 7478  14.805  24.886  26.290 -0.4927 -0.0637 -0.0928
  312BOLB   GL3 7479  14.761  24.701  25.907  0.1174 -0.0465 -0.0376
  312BOLB   GL4 7480  14.703  25.024  25.680  0.1855 -0.0379 -0.0960
  312BOLB   C1C 7481  14.998  24.619  25.465  0.3808  0.1563 -0.2502
  312BOLB   C2C 7482  15.035  24.458  25.050  0.0556  0.0121 -0.1576
  312BOLB   C3C 7483  14.864  24.406  24.613  0.0381  0.1593 -0.1913
  312BOLB   C4C 7484  14.694  24.313  24.386 -0.0577  0.1820  0.2945
  312BOLB   C1D 7485  14.444  24.694  25.444  0.2277  0.0566 -0.5480
  312BOLB   C2D 7486  14.154  24.460  25.248 -0.2878  0.0569 -0.2271
  312BOLB   C3D 7487  13.981  24.223  24.869 -0.0950  0.1117  0.0397
  312BOLB   C4D 7488  13.685  24.322  24.589  0.0079 -0.1603  0.4302
  313BOLB   NC1 7489  18.823  23.440  20.723 -0.1545 -0.1484  0.1384
  313BOLB   PO1 7490  18.495  23.517  20.977 -0.1404 -0.0130 -0.2888
  313BOLB   GL1 7491  18.566  23.948  21.274  0.1313  0.0843 -0.0343
  313BOLB   GL2 7492  18.276  24.312  21.285  0.2341  0.0196 -0.1952
  313BOLB   C1A 7493  18.738  24.159  21.692 -0.0698  0.3334 -0.1158
  313BOLB   C2A 7494  18.883  24.457  21.958  0.0675  0.3944 -0.2101
  313BOLB   C3A 7495  18.712  24.731  22.337 -0.0104  0.3476  0.2948
  313BOLB   C4A 7496  18.809  25.026  22.678  0.0197  0.2091  0.0197
  313BOLB   C1B 7497  18.235  24.682  21.388 -0.0444 -0.1689 -0.1235
  313BOLB   C2B 7498  18.166  24.978  21.736  0.1262  0.1512  0.3290
  313BOLB   C3B 7499  18.271  25.044  22.179 -0.0011 -0.0853  0.2432
  313BOLB   C4B 7500  18.365  25.210  22.616 -0.0697 -0.0077  0.3129
  313BOLB   NC2 7501  19.296  25.299  25.016 -0.2645  0.1432 -0.0021
  313BOLB   PO2 7502  19.090  25.624  25.076 -0.4260 -0.2464  0.2112
  313BOLB   GL3 7503  18.935  25.449  24.721 -0.0047 -0.1882  0.0714
  313BOLB   GL4 7504  18.592  25.362  24.684  0.0621  0.0604 -0.1084
  313BOLB   C1C 7505  19.033  25.147  24.430  0.1126 -0.3836  0.1150
  313BOLB   C2C 7506  19.152  25.157  24.065 -0.0876 -0.4615 -0.0975
  313BOLB   C3C 7507  18.957  25.028  23.665  0.1249  0.0562  0.2800
  313BOLB   C4C 7508  18.970  25.137  23.113 -0.2508  0.0583  0.3274
  313BOLB   C1D 7509  18.604  24.963  24.599 -0.1396  0.1190  0.3137
  313BOLB   C2D 7510  18.638  24.906  24.121 -0.1252 -0.4477  0.0727
  313BOLB   C3D 7511  18.458  24.841  23.740 -0.1108  0.1641  0.2276
  313BOLB   C4D 7512  18.537  24.883  23.416 -0.2911  0.1941 -0.1182
  314BOLB   NC1 7513  18.667  13.952  23.656 -0.0390 -0.0912 -0.2081
  314BOLB   PO1 7514  18.660  14.170  24.007 -0.1848 -0.0707  0.1850
  314BOLB   GL1 7515  18.863  13.751  24.233  0.2975  0.2203  0.0106
  314BOLB   GL2 7516  18.734  13.555  24.410  0.2225  0.1061  0.2602
  314BOLB   C1A 7517  19.029  13.845  24.712  0.0560  0.0372  0.1153
  314BOLB   C2A 7518  19.076  13.912  25.113 -0.0759  0.1039  0.2794
  314BOLB   C3A 7519  19.087  13.808  25.550 -0.2128  0.2209 -0.0522
  314BOLB   C4A 7520  18.930  13.714  25.871  0.2255 -0.1168 -0.3532
  314BOLB   C1B 7521  18.981  13.283  24.749  0.0161  0.1690  0.1215
  314BOLB   C2B 7522  18.933  12.820  24.904  0.0491  0.2543 -0.0657
  314BOLB   C3B 7523  19.032  12.511  25.168 -0.1804 -0.0640  0.0517
  314BOLB   C4B 7524  19.093  12.162  25.358  0.2543  0.0950  0.0230
  314BOLB   NC2 7525  18.427  12.805  28.121  0.2680 -0.1990 -0.0739
  314BOLB   PO2 7526  18.175  13.146  28.093 -0.4253  0.1091  0.1915
  314BOLB   GL3 7527  18.209  12.965  27.645 -0.2764 -0.1864  0.2612
  314BOLB   GL4 7528  18.488  12.855  27.546  0.1492 -0.4051  0.0408
  314BOLB   C1C 7529  18.324  13.023  27.143 -0.1758 -0.0356 -0.0060
  314BOLB   C2C 7530  18.236  13.333  26.865 -0.4935  0.2918  0.1887
  314BOLB   C3C 7531  18.424  13.587  26.534 -0.0577 -0.0294 -0.2655
  314BOLB   C4C 7532  18.597  13.534  26.149 -0.0075 -0.0451  0.0451
  314BOLB   C1D 7533  18.811  13.122  27.298 -0.0449 -0.1150 -0.0052
  314BOLB   C2D 7534  19.020  13.229  26.972 -0.0252 -0.1031  0.1299
  314BOLB   C3D 7535  19.066  13.550  26.743 -0.3632  0.3579 -0.1057
  314BOLB   C4D 7536  18.850  13.893  26.475  0.0631 -0.1162  0.2542
  315BOLB   NC1 7537  13.308  20.337  23.893 -0.3276 -0.0729  0.1793
  315BOLB   PO1 7538  13.430  19.862  23.895 -0.0377 -0.2556  0.3220
  315BOLB   GL1 7539  13.384  20.059  24.341  0.0393 -0.1485 -0.3249
  315BOLB   GL2 7540  13.568  20.296  24.384  0.0557  0.0995  0.0551
  315BOLB   C1A 7541  13.270  20.104  24.776 -0.0689  0.2385  0.2839
  315BOLB   C2A 7542  12.968  20.418  24.880  0.2986  0.1696 -0.2532
  315BOLB   C3A 7543  12.778  20.731  25.231  0.1451 -0.0560 -0.2059
  315BOLB   C4A 7544  12.821  20.817  25.611  0.5271  0.0027  0.1949
  315BOLB   C1B 7545  13.353  20.535  24.549 -0.2160 -0.0153 -0.1334
  315BOLB   C2B 7546  13.504  20.967  24.631  0.0289 -0.0697 -0.0438
  315BOLB   C3B 7547  13.531  21.361  25.067 -0.1181  0.0457  0.3038
  315BOLB   C4B 7548  13.401  21.546  25.283 -0.0551  0.0226  0.2737
  315BOLB   NC2 7549  11.696  21.745  27.312  0.1328 -0.3240 -0.1471
  315BOLB   PO2 7550  12.022  21.901  27.520 -0.3296 -0.0489  0.1584
  315BOLB   GL3 7551  12.321  21.944  27.150  0.3159 -0.0564  0.0108
  315BOLB   GL4 7552  12.623  22.112  27.139  0.2513  0.0048 -0.2403
  315BOLB   C1C 7553  12.363  21.670  26.751 -0.3517  0.2597  0.0680
  315BOLB   C2C 7554  12.542  21.569  26.292 -0.0697  0.3564  0.1178
  315BOLB   C3C 7555  12.660  21.227  26.177  0.1362  0.0671 -0.1497
  315BOLB   C4C 7556  12.934  21.049  25.848  0.0872 -0.2527  0.0379
  315BOLB   C1D 7557  12.714  22.058  26.681 -0.4486  0.0384 -0.1131
  315BOLB   C2D 7558  12.680  22.152  26.257  0.0874 -0.1328 -0.0555
  315BOLB   C3D 7559  13.024  22.297  25.964  0.2353 -0.0233  0.0556
  315BOLB   C4D 7560  13.320  22.014  25.648 -0.1061 -0.1621  0.0187
  316BOLB   NC1 7561  20.892  12.011  22.458  0.0468  0.1268 -0.0304
  316BOLB   PO1 7562  21.268  11.969  22.437 -0.2240 -0.1326 -0.0040
  316BOLB   GL1 7563  21.233  11.730  22.679  0.0683  0.2178  0.0914
  316BOLB   GL2 7564  21.469  11.764  22.822  0.0293  0.2704 -0.0430
  316BOLB   C1A 7565  21.180  11.303  22.814  0.2997 -0.2218  0.1926
  316BOLB   C2A 7566  21.150  11.082  23.140  0.4070 -0.0373 -0.1161
  316BOLB   C3A 7567  21.058  10.883  23.626 -0.0086  0.0649 -0.0770
  316BOLB   C4A 7568  21.084  10.472  23.727 -0.0501 -0.0647  0.3639
  316BOLB   C1B 7569  21.646  11.921  23.174 -0.0923  0.1689 -0.0143
  316BOLB   C2B 7570  21.693  11.747  23.607 -0.1538 -0.3081 -0.1639
  316BOLB   C3B 7571  21.687  11.685  24.141  0.1922 -0.3244 -0.0517
  316BOLB   C4B 7572  21.445  11.618  24.514 -0.1789 -0.3416 -0.0264
  316BOLB   NC2 7573  22.305   9.228  25.328  0.2172  0.3444 -0.1076
  316BOLB   PO2 7574  22.232   9.299  24.821  0.1466 -0.2178 -0.2373
  316BOLB   GL3 7575  22.349   9.469  24.480  0.3537 -0.4370  0.0901
  316BOLB   GL4 7576  22.609   9.251  24.389 -0.1819 -0.0431 -0.0850
  316BOLB   C1C 7577  22.195   9.682  24.180  0.2200 -0.3705  0.1287
  316BOLB   C2C 7578  21.734   9.777  24.228  0.2058  0.0716  0.1788
  316BOLB   C3C 7579  21.326   9.702  24.079 -0.1607  0.1937 -0.0939
  316BOLB   C4C 7580  21.128  10.079  23.969 -0.1716  0.1136  0.2324
  316BOLB   C1D 7581  22.559   9.250  23.993 -0.1213 -0.0118  0.3114
  316BOLB   C2D 7582  22.645   9.387  23.534  0.1244  0.0302  0.1478
  316BOLB   C3D 7583  22.648   9.544  23.137 -0.2835 -0.2469  0.2932
  316BOLB   C4D 7584  22.372  10.030  23.157  0.0260 -0.0275 -0.2883
  317BOLB   NC1 7585  16.528  11.155  23.002  0.0921  0.2843 -0.0040
  317BOLB   PO1 7586  16.085  11.209  23.084  0.3254  0.0691 -0.1043
  317BOLB   GL1 7587  15.758  10.949  23.359  0.2021  0.0784  0.4037
  317BOLB   GL2 7588  15.402  11.057  23.367 -0.0774  0.0530 -0.2729
  317BOLB   C1A 7589  15.902  10.630  23.594 -0.2405 -0.3487  0.0582
  317BOLB   C2A 7590  16.016  10.591  23.969  0.1649  0.3527 -0.2743
  317BOLB   C3A 7591  15.926  10.425  24.346  0.2253 -0.2310  0.1907
  317BOLB   C4A 7592  15.936  10.275  24.767  0.0032  0.2019 -0.2202
  317BOLB   C1B 7593  15.440  10.878  23.738 -0.1026  0.0082 -0.3203
  317BOLB   C2B 7594  15.643  10.821  24.175 -0.4747  0.0492 -0.0440
  317BOLB   C3B 7595  15.523  10.656  24.652  0.1017 -0.2929 -0.0874
  317BOLB   C4B 7596  15.533  10.309  24.980  0.0724 -0.1529  0.1756
  317BOLB   NC2 7597  15.513  10.565  27.430  0.1565 -0.1205  0.1796
  317BOLB   PO2 7598  15.979  10.729  27.492 -0.2022  0.3798 -0.0191
  317BOLB   GL3 7599  15.852  10.747  27.112 -0.0308 -0.0692  0.0087
  317BOLB   GL4 7600  15.543  10.831  27.018  0.2228 -0.6600  0.0897
  317BOLB   C1C 7601  15.942  10.702  26.654 -0.1820 -0.0140  0.3891
  317BOLB   C2C 7602  16.015  10.598  26.117  0.0867 -0.0462 -0.0991
  317BOLB   C3C 7603  16.078  10.538  25.618  0.2544 -0.4355 -0.0159
  317BOLB   C4C 7604  15.963  10.317  25.242 -0.0489  0.0578  0.2322
  317BOLB   C1D 7605  15.435  10.962  26.737  0.2074 -0.0782 -0.2727
  317BOLB   C2D 7606  15.690  11.400  26.647  0.0340  0.0057 -0.0581
  317BOLB   C3D 7607  16.026  11.552  26.292 -0.1571 -0.1415 -0.2154
  317BOLB   C4D 7608  16.004  11.614  25.933 -0.1972  0.0788  0.1594
  318BOLB   NC1 7609  14.292  15.058  24.905  0.2201 -0.0044 -0.2129
  318BOLB   PO1 7610  14.065  15.208  25.132  0.0661 -0.1585 -0.3679
  318BOLB   GL1 7611  14.330  15.419  25.456  0.1263 -0.1699  0.0104
  318BOLB   GL2 7612  14.161  15.722  25.649 -0.1840 -0.4127 -0.1227
  318BOLB   C1A 7613  14.335  15.335  25.947  0.1565 -0.0992  0.2715
  318BOLB   C2A 7614  14.523  15.060  26.278 -0.0044 -0.0511  0.1369
  318BOLB   C3A 7615  14.709  14.951  26.691  0.0379  0.1465 -0.2269
  318BOLB   C4A 7616  14.781  14.938  27.132 -0.2157  0.0908  0.0346
  318BOLB   C1B 7617  14.026  16.044  26.027  0.0413 -0.0037 -0.1279
  318BOLB   C2B 7618  14.009  16.136  26.524  0.0337 -0.0693  0.1560
  318BOLB   C3B 7619  13.846  16.131  26.983  0.2028 -0.1161  0.2228
  318BOLB   C4B 7620  13.691  16.281  27.439 -0.0411  0.0127 -0.0912
  318BOLB   NC2 7621  14.860  15.414  29.097 -0.2006  0.0174  0.1771
  318BOLB   PO2 7622  14.509  15.579  29.128 -0.2498  0.2378 -0.0989
  318BOLB   GL3 7623  14.259  15.726  28.670  0.1426 -0.0789  0.3347
  318BOLB   GL4 7624  14.174  15.977  28.510  0.0578  0.0114 -0.3379
  318BOLB   C1C 7625  14.489  15.729  28.344  0.0652  0.3607 -0.0128
  318BOLB   C2C 7626  14.777  15.434  28.188 -0.0194  0.0569  0.1461
  318BOLB   C3C 7627  14.919  15.236  27.844  0.0524 -0.2329 -0.0443
  318BOLB   C4C 7628  15.032  14.984  27.502 -0.0475 -0.0635  0.4205
  318BOLB   C1D 7629  13.963  16.255  28.416  0.3456 -0.1128 -0.0504
  318BOLB   C2D 7630  13.910  16.677  28.092 -0.0266  0.1356 -0.0344
  318BOLB   C3D 7631  13.805  16.818  27.766  0.0678  0.2304  0.0599
  318BOLB   C4D 7632  13.624  16.732  27.368 -0.1634 -0.3394 -0.0862
  319BOLB   NC1 7633  11.748  12.771  24.065 -0.1622  0.0290  0.2333
  319BOLB   PO1 7634  11.604  13.246  24.020 -0.0804 -0.1049 -0.1090
  319BOLB   GL1 7635  11.602  13.100  24.480 -0.3062 -0.4001  0.2169
  319BOLB   GL2 7636  11.570  13.264  24.764  0.0804  0.1883 -0.0982
  319BOLB   C1A 7637  11.946  12.984  24.903  0.1632 -0.0039 -0.1830
  319BOLB   C2A 7638  12.067  12.854  25.327 -0.0360  0.4495  0.2218
  319BOLB   C3A 7639  11.917  12.779  25.751 -0.2393 -0.2617 -0.1313
  319BOLB   C4A 7640  11.608  12.515  25.950  0.1494  0.0623 -0.1238
  319BOLB   C1B 7641  11.567  13.111  25.199  0.0464  0.1249  0.0523
  319BOLB   C2B 7642  11.539  13.006  25.550 -0.1597  0.0001 -0.2775
  319BOLB   C3B 7643  11.439  13.170  25.952 -0.0388  0.1555 -0.0562
  319BOLB   C4B 7644  11.065  13.279  26.297  0.1470  0.0759  0.1223
  319BOLB   NC2 7645  10.696  13.134  28.459  0.0533  0.0393  0.1869
  319BOLB   PO2 7646  10.524  12.938  28.154 -0.0973  0.0574  0.1025
  319BOLB   GL3 7647  10.733  13.035  27.836  0.1355 -0.0409  0.0102
  319BOLB   GL4 7648  10.491  13.079  27.669 -0.0090  0.0244  0.0682
  319BOLB   C1C 7649  10.990  12.977  27.462 -0.1559 -0.0583  0.2237
  319BOLB   C2C 7650  11.176  12.870  27.091 -0.2220 -0.3398 -0.0829
  319BOLB   C3C 7651  11.143  12.779  26.622 -0.0917 -0.2107  0.3103
  319BOLB   C4C 7652  11.321  12.487  26.227  0.1745 -0.3153 -0.0785
  319BOLB   C1D 7653  10.609  12.717  27.383  0.0605  0.0791  0.1497
  319BOLB   C2D 7654  10.766  12.621  26.877  0.1915 -0.1327 -0.0346
  319BOLB   C3D 7655  10.786  12.632  26.369  0.0494 -0.2169  0.3352
  319BOLB   C4D 7656  10.930  12.790  26.041  0.1284  0.0408  0.0590
  320BOLB   NC1 7657  14.821  24.582  20.484  0.1111  0.2482  0.3884
  320BOLB   PO1 7658  14.538  24.729  20.842  0.1332  0.3484 -0.3559
  320BOLB   GL1 7659  14.404  25.164  20.959  0.0272  0.2294  0.2343
  320BOLB   GL2 7660  14.738  25.279  20.926 -0.1108 -0.0887  0.0129
  320BOLB   C1A 7661  14.387  25.620  21.126  0.2546 -0.1524 -0.1250
  320BOLB   C2A 7662  14.241  25.947  21.505 -0.3048 -0.2719 -0.3281
  320BOLB   C3A 7663  14.311  26.208  21.928 -0.1219 -0.1308  0.0147
  320BOLB   C4A 7664  14.194  26.535  22.088  0.0245  0.0289  0.0369
  320BOLB   C1B 7665  14.993  25.560  21.168 -0.0817  0.0247  0.0194
  320BOLB   C2B 7666  15.192  25.958  21.376  0.1151 -0.2828  0.0728
  320BOLB   C3B 7667  15.215  26.390  21.490  0.0005 -0.3131  0.5027
  320BOLB   C4B 7668  15.319  26.781  21.672  0.0831  0.0344 -0.3826
  320BOLB   NC2 7669  15.227  28.747  22.411 -0.0353  0.0827 -0.1326
  320BOLB   PO2 7670  15.043  28.910  22.064  0.1468  0.0836 -0.0089
  320BOLB   GL3 7671  14.821  28.646  21.702  0.0443  0.1370  0.2224
  320BOLB   GL4 7672  14.918  28.653  21.359  0.1070  0.1574  0.0037
  320BOLB   C1C 7673  14.902  28.163  21.736  0.1080 -0.0611  0.0596
  320BOLB   C2C 7674  14.740  27.747  21.743  0.0495  0.0014 -0.2408
  320BOLB   C3C 7675  14.633  27.247  21.707  0.0551  0.0532  0.1289
  320BOLB   C4C 7676  14.381  26.988  22.049  0.1552  0.2925  0.0551
  320BOLB   C1D 7677  14.780  28.366  20.965 -0.1981 -0.2087  0.1622
  320BOLB   C2D 7678  14.771  28.093  20.645  0.1592  0.0702 -0.2555
  320BOLB   C3D 7679  14.730  27.731  20.388 -0.0580  0.1912  0.1572
  320BOLB   C4D 7680  14.638  27.303  20.283 -0.0388 -0.0427 -0.2355
  321BOLB   NC1 7681  16.446  23.104  22.536 -0.1501 -0.1729 -0.1472
  321BOLB   PO1 7682  16.098  23.164  22.153 -0.1828  0.2646 -0.3576
  321BOLB   GL1 7683  16.148  23.515  22.425  0.1312  0.0838 -0.3498
  321BOLB   GL2 7684  16.494  23.726  22.431 -0.1951  0.0186  0.0443
  321BOLB   C1A 7685  15.870  23.626  22.810  0.1300  0.2068  0.0843
  321BOLB   C2A 7686  15.968  23.715  23.166 -0.0758 -0.0196 -0.0793
  321BOLB   C3A 7687  16.215  23.764  23.519 -0.0663  0.3148 -0.1132
  321BOLB   C4A 7688  16.427  24.015  23.812  0.2803 -0.1186  0.1368
  321BOLB   C1B 7689  16.313  23.885  22.734  0.3186 -0.0910  0.1518
  321BOLB   C2B 7690  16.386  24.099  23.137 -0.0535 -0.0363 -0.4508
  321BOLB   C3B 7691  16.710  24.231  23.431  0.0470 -0.3410 -0.1897
  321BOLB   C4B 7692  16.962  24.088  23.779 -0.0727  0.3196 -0.2983
  321BOLB   NC2 7693  17.062  25.596  25.337 -0.1534  0.2814 -0.0769
  321BOLB   PO2 7694  17.490  25.384  25.429 -0.0005  0.2970 -0.0090
  321BOLB   GL3 7695  17.358  24.936  25.320 -0.2205 -0.0887  0.0018
  321BOLB   GL4 7696  17.236  24.946  24.974  0.2316  0.0130  0.3456
  321BOLB   C1C 7697  17.020  24.538  25.151 -0.2920 -0.2208 -0.3304
  321BOLB   C2C 7698  17.068  24.476  24.661 -0.0950 -0.0133  0.1428
  321BOLB   C3C 7699  16.954  24.357  24.412 -0.1032 -0.1292  0.2885
  321BOLB   C4C 7700  16.674  24.204  24.250 -0.1672 -0.2094  0.0977
  321BOLB   C1D 7701  16.908  24.918  24.839  0.1090  0.3520 -0.0133
  321BOLB   C2D 7702  16.421  24.913  24.909  0.0760 -0.0371  0.0851
  321BOLB   C3D 7703  16.198  24.691  24.588 -0.0622  0.0239  0.1408
  321BOLB   C4D 7704  15.935  24.366  24.599 -0.0555  0.0182  0.0061
  322BOLB   NC1 7705   9.789  14.311  23.013  0.1398  0.0582  0.3004
  322BOLB   PO1 7706   9.948  14.063  23.407  0.1746  0.0314 -0.0729
  322BOLB   GL1 7707   9.838  14.099  23.826  0.0191  0.0698 -0.1110
  322BOLB   GL2 7708   9.522  14.116  23.907  0.2234 -0.0873 -0.2533
  322BOLB   C1A 7709   9.905  14.203  24.221  0.0765  0.2654  0.0119
  322BOLB   C2A 7710   9.798  14.178  24.653  0.0705  0.0399 -0.0651
  322BOLB   C3A 7711   9.714  14.231  25.110  0.2100 -0.0688  0.0924
  322BOLB   C4A 7712   9.469  14.116  25.437 -0.0050 -0.0953  0.3780
  322BOLB   C1B 7713   9.438  14.243  24.265  0.1093 -0.5224  0.4282
  322BOLB   C2B 7714   9.223  14.470  24.460  0.1077 -0.2448  0.1416
  322BOLB   C3B 7715   9.181  14.457  24.952  0.1190 -0.1338  0.1283
  322BOLB   C4B 7716   9.257  14.565  25.374  0.2233 -0.1650  0.0775
  322BOLB   NC2 7717   9.094  15.390  27.940  0.1143  0.0377 -0.4230
  322BOLB   PO2 7718   8.874  15.008  27.839 -0.1994 -0.0134  0.1894
  322BOLB   GL3 7719   9.062  14.896  27.442 -0.1463  0.3245 -0.0476
  322BOLB   GL4 7720   9.349  15.072  27.543  0.2769  0.1459 -0.0176
  322BOLB   C1C 7721   8.945  14.681  26.991 -0.1194 -0.1529  0.0993
  322BOLB   C2C 7722   8.870  14.747  26.522  0.2860  0.0793  0.0606
  322BOLB   C3C 7723   9.071  14.487  26.216  0.2659 -0.0049 -0.1569
  322BOLB   C4C 7724   9.326  14.247  25.841  0.0392  0.0008  0.0954
  322BOLB   C1D 7725   9.480  14.644  27.152 -0.0467  0.2178  0.1699
  322BOLB   C2D 7726   9.314  14.577  26.684  0.0538 -0.1471  0.0472
  322BOLB   C3D 7727   9.351  14.879  26.322 -0.2646  0.0894  0.0702
  322BOLB   C4D 7728   9.534  15.177  26.034 -0.1001 -0.0664  0.0085
  323BOLB   NC1 7729   9.399  16.392  22.842 -0.0012  0.1973  0.0125
  323BOLB   PO1 7730   9.469  16.772  23.161  0.2287 -0.0451  0.2458
  323BOLB   GL1 7731   9.390  16.872  23.586 -0.2560 -0.0905 -0.1713
  323BOLB   GL2 7732   9.160  16.713  23.786 -0.1977 -0.0021 -0.0369
  323BOLB   C1A 7733   9.518  16.629  24.068  0.2163  0.1809  0.1155
  323BOLB   C2A 7734   9.448  16.723  24.451  0.3330 -0.2519  0.0170
  323BOLB   C3A 7735   9.102  16.697  24.777 -0.2095 -0.3726 -0.6056
  323BOLB   C4A 7736   8.757  16.787  24.988  0.0301  0.0996  0.0925
  323BOLB   C1B 7737   8.979  16.902  24.234 -0.1392  0.1082  0.1379
  323BOLB   C2B 7738   8.965  17.200  24.626 -0.1563  0.0868  0.2439
  323BOLB   C3B 7739   8.756  17.335  24.942  0.0477  0.2659  0.3941
  323BOLB   C4B 7740   8.472  17.099  25.251 -0.1463  0.0873 -0.0141
  323BOLB   NC2 7741   7.985  16.721  26.965 -0.5872 -0.1670 -0.0654
  323BOLB   PO2 7742   7.693  16.428  27.071  0.1148  0.1938  0.0954
  323BOLB   GL3 7743   7.775  16.415  26.671 -0.0060  0.0943  0.0737
  323BOLB   GL4 7744   8.244  16.466  26.561  0.0824  0.1356  0.0073
  323BOLB   C1C 7745   7.704  16.446  26.206 -0.1857 -0.1163  0.1869
  323BOLB   C2C 7746   7.950  16.325  25.910  0.0803 -0.1088  0.1383
  323BOLB   C3C 7747   8.097  16.366  25.466 -0.1930  0.0767  0.1507
  323BOLB   C4C 7748   8.439  16.544  25.133 -0.4248 -0.0440  0.2663
  323BOLB   C1D 7749   8.559  16.642  26.397  0.0535  0.1206  0.1632
  323BOLB   C2D 7750   8.829  16.854  26.042  0.0187  0.4074  0.2669
  323BOLB   C3D 7751   8.699  17.165  25.734  0.4685  0.3243 -0.1875
  323BOLB   C4D 7752   8.807  17.461  25.407 -0.0421  0.1974  0.1982
  324BOLB   NC1 7753  21.734  11.152  20.883  0.0267 -0.1442 -0.3532
  324BOLB   PO1 7754  21.301  11.079  21.028 -0.2455 -0.0608  0.2660
  324BOLB   GL1 7755  21.656  10.779  21.188 -0.2525  0.1213 -0.1310
  324BOLB   GL2 7756  21.986  10.839  21.224  0.0735 -0.0369 -0.0867
  324BOLB   C1A 7757  21.791  10.345  21.224 -0.1459 -0.2696 -0.1195
  324BOLB   C2A 7758  21.892  10.033  21.439  0.3539  0.0213 -0.0762
  324BOLB   C3A 7759  21.872   9.632  21.514  0.0865 -0.1642  0.2791
  324BOLB   C4A 7760  21.842   9.144  21.495 -0.0047  0.0475  0.1566
  324BOLB   C1B 7761  21.925  10.570  21.658  0.0471 -0.1116  0.0496
  324BOLB   C2B 7762  22.258  10.267  21.765  0.3746 -0.2696 -0.0207
  324BOLB   C3B 7763  22.590  10.090  22.065  0.1346  0.0853  0.3139
  324BOLB   C4B 7764  22.695   9.841  22.407 -0.4096  0.1213 -0.0077
  324BOLB   NC2 7765  23.421   7.209  21.308 -0.0192 -0.2021 -0.0303
  324BOLB   PO2 7766  23.327   7.212  21.637  0.0046 -0.0412  0.2146
  324BOLB   GL3 7767  22.966   7.512  21.441  0.2654 -0.1318 -0.1530
  324BOLB   GL4 7768  22.968   7.360  21.185 -0.2424  0.2075  0.0555
  324BOLB   C1C 7769  22.601   7.719  21.409 -0.0938 -0.2197 -0.1779
  324BOLB   C2C 7770  22.292   7.968  21.557 -0.1841  0.2598 -0.0234
  324BOLB   C3C 7771  21.984   8.262  21.430 -0.4855  0.0931 -0.1726
  324BOLB   C4C 7772  21.919   8.758  21.465 -0.2389 -0.0314 -0.3020
  324BOLB   C1D 7773  23.086   7.608  20.858  0.1833 -0.1170 -0.3546
  324BOLB   C2D 7774  23.159   7.881  20.685 -0.2894 -0.2316  0.1250
  324BOLB   C3D 7775  23.216   8.344  20.629  0.1341 -0.4632 -0.1999
  324BOLB   C4D 7776  23.345   8.776  20.805 -0.0770 -0.0606  0.0575
  325BOLB   NC1 7777   9.786  15.022  23.192  0.2764 -0.1470 -0.0784
  325BOLB   PO1 7778   9.773  15.109  23.622  0.0130  0.3325 -0.0920
  325BOLB   GL1 7779   9.734  14.939  24.056  0.3279 -0.3187  0.0398
  325BOLB   GL2 7780   9.641  14.584  23.904 -0.2398  0.1413  0.0438
  325BOLB   C1A 7781   9.673  14.687  24.381  0.1118 -0.1652  0.1067
  325BOLB   C2A 7782   9.769  14.621  24.826 -0.1838 -0.0233  0.0770
  325BOLB   C3A 7783   9.815  14.738  25.220  0.2514  0.0707  0.1408
  325BOLB   C4A 7784   9.700  14.586  25.648 -0.0429  0.2155  0.0988
  325BOLB   C1B 7785   9.179  14.514  23.932 -0.0133  0.0396 -0.3123
  325BOLB   C2B 7786   8.780  14.625  24.125 -0.2056  0.0628 -0.0485
  325BOLB   C3B 7787   8.609  14.535  24.544  0.2009  0.3411  0.0954
  325BOLB   C4B 7788   8.482  14.795  24.859 -0.3582 -0.0838 -0.1880
  325BOLB   NC2 7789   9.533  14.308  28.088  0.5122  0.1644 -0.1641
  325BOLB   PO2 7790   9.574  13.846  27.938  0.1160  0.0462 -0.1880
  325BOLB   GL3 7791   9.707  13.772  27.542  0.4520 -0.3321  0.0285
  325BOLB   GL4 7792   9.937  13.995  27.375  0.0392 -0.3423 -0.0287
  325BOLB   C1C 7793   9.514  13.939  27.096  0.1069  0.1207 -0.0014
  325BOLB   C2C 7794   9.637  14.187  26.759  0.0357 -0.0062 -0.1316
  325BOLB   C3C 7795   9.660  14.288  26.338  0.2504  0.4739  0.1386
  325BOLB   C4C 7796   9.742  14.516  25.991  0.1577  0.2591 -0.1360
  325BOLB   C1D 7797  10.229  13.854  27.019 -0.3223  0.1417 -0.4634
  325BOLB   C2D 7798  10.477  13.803  26.805 -0.1016 -0.0503  0.0880
  325BOLB   C3D 7799  10.830  13.501  26.703  0.3496 -0.0832 -0.1459
  325BOLB   C4D 7800  11.138  13.281  26.878 -0.0481 -0.1051 -0.2547
  326BOLB   NC1 7801  17.635  11.047  22.249 -0.2313 -0.2987  0.1514
  326BOLB   PO1 7802  17.525  11.061  22.731 -0.1095  0.1845  0.0257
  326BOLB   GL1 7803  17.856  10.662  22.609 -0.1103 -0.3938  0.0658
  326BOLB   GL2 7804  17.690  10.381  22.693 -0.0813 -0.0240  0.0592
  326BOLB   C1A 7805  18.170  10.378  22.609  0.1827  0.1520  0.4131
  326BOLB   C2A 7806  18.223   9.871  22.621  0.0290  0.2063  0.0979
  326BOLB   C3A 7807  18.491   9.587  22.838  0.0847  0.2824  0.0301
  326BOLB   C4A 7808  18.676   9.304  22.874 -0.0712  0.3181 -0.0839
  326BOLB   C1B 7809  17.935  10.138  23.027  0.0622 -0.0357 -0.0434
  326BOLB   C2B 7810  18.200   9.960  23.364 -0.1096  0.1770  0.0340
  326BOLB   C3B 7811  18.490   9.874  23.837 -0.1403 -0.0666  0.0667
  326BOLB   C4B 7812  18.763  10.037  24.099 -0.1693 -0.0366 -0.2355
  326BOLB   NC2 7813  20.781   8.714  24.832  0.2706 -0.2783 -0.3754
  326BOLB   PO2 7814  20.430   8.517  25.000 -0.1092  0.2025 -0.0507
  326BOLB   GL3 7815  20.213   8.580  24.630 -0.0962  0.2314 -0.0082
  326BOLB   GL4 7816  20.247   8.875  24.455 -0.3237 -0.0730  0.2242
  326BOLB   C1C 7817  19.875   8.580  24.288 -0.0446  0.3392 -0.0766
  326BOLB   C2C 7818  19.593   8.671  23.852  0.2507 -0.1077 -0.1694
  326BOLB   C3C 7819  19.340   8.793  23.471 -0.0048 -0.1224 -0.0751
  326BOLB   C4C 7820  19.029   9.091  23.228 -0.3349 -0.0736  0.2169
  326BOLB   C1D 7821  20.567   9.153  24.320  0.3198  0.3828  0.0501
  326BOLB   C2D 7822  20.823   9.297  23.996  0.0129  0.0609 -0.0964
  326BOLB   C3D 7823  20.937   9.457  23.687 -0.1664 -0.0266  0.0979
  326BOLB   C4D 7824  21.257   9.796  23.571  0.0024 -0.3444  0.1917
  327BOLB   NC1 7825  10.627  18.716  23.704 -0.2184  0.1281 -0.1901
  327BOLB   PO1 7826  10.526  19.201  23.692 -0.1885 -0.3674  0.1405
  327BOLB   GL1 7827  10.388  19.545  24.018  0.0079 -0.0366 -0.0972
  327BOLB   GL2 7828  10.505  19.467  24.436 -0.2701  0.1221 -0.2411
  327BOLB   C1A 7829  10.009  19.699  24.262 -0.0088 -0.1960  0.0396
  327BOLB   C2A 7830   9.673  19.734  24.579  0.2285  0.0048  0.0277
  327BOLB   C3A 7831   9.418  19.428  24.798 -0.0026  0.2126 -0.2912
  327BOLB   C4A 7832   9.008  19.378  25.194 -0.2728 -0.2172 -0.0539
  327BOLB   C1B 7833  10.225  19.540  24.696 -0.3731  0.2325  0.2639
  327BOLB   C2B 7834  10.006  19.596  24.985  0.4006  0.0235  0.1175
  327BOLB   C3B 7835   9.852  19.554  25.509 -0.3525  0.0077 -0.1903
  327BOLB   C4B 7836   9.639  19.641  25.938  0.2416 -0.1698 -0.0861
  327BOLB   NC2 7837   8.304  18.316  27.032  0.2809 -0.3265  0.0040
  327BOLB   PO2 7838   8.667  18.462  27.363 -0.0259 -0.0378 -0.2555
  327BOLB   GL3 7839   8.874  18.407  26.959 -0.0972  0.1873 -0.3394
  327BOLB   GL4 7840   8.666  18.405  26.717  0.3820  0.1078 -0.1509
  327BOLB   C1C 7841   9.130  18.791  26.747  0.2030  0.1469 -0.0270
  327BOLB   C2C 7842   9.195  19.170  26.379 -0.1756  0.0690  0.4282
  327BOLB   C3C 7843   9.019  19.337  25.996  0.1019 -0.3064 -0.0556
  327BOLB   C4C 7844   8.945  19.242  25.562 -0.2036  0.1718 -0.0348
  327BOLB   C1D 7845   8.574  18.362  26.259 -0.0660 -0.0444  0.1117
  327BOLB   C2D 7846   8.214  18.147  26.123 -0.0820 -0.2213 -0.0696
  327BOLB   C3D 7847   8.004  18.067  25.714  0.0515  0.2032 -0.2132
  327BOLB   C4D 7848   7.890  17.768  25.365 -0.2579 -0.1415  0.0353
  328BOLB   NC1 7849  16.312  11.662  22.729  0.2301  0.0094  0.1176
  328BOLB   PO1 7850  16.160  11.681  23.244  0.0426  0.0113  0.1325
  328BOLB   GL1 7851  16.143  11.397  23.588 -0.2058 -0.1366  0.1387
  328BOLB   GL2 7852  16.212  11.558  23.806 -0.1458  0.1153 -0.0414
  328BOLB   C1A 7853  15.949  11.058  23.869 -0.1571  0.1855 -0.0866
  328BOLB   C2A 7854  16.221  10.872  24.261 -0.3231  0.0403 -0.1348
  328BOLB   C3A 7855  16.368  10.587  24.603 -0.1954  0.1018  0.2179
  328BOLB   C4A 7856  16.392  10.582  25.026 -0.0429  0.0756  0.0717
  328BOLB   C1B 7857  16.488  11.318  24.156 -0.2938  0.0177  0.0278
  328BOLB   C2B 7858  16.561  11.275  24.575 -0.1063  0.0727  0.0953
  328BOLB   C3B 7859  16.375  11.121  24.938 -0.1974 -0.0249 -0.1967
  328BOLB   C4B 7860  16.393  10.942  25.420  0.1424  0.3245  0.1221
  328BOLB   NC2 7861  16.115   9.428  26.966 -0.2249 -0.1050 -0.2066
  328BOLB   PO2 7862  16.619   9.557  26.972 -0.1654  0.1398  0.0330
  328BOLB   GL3 7863  16.896   9.815  26.626 -0.1714 -0.0742 -0.1427
  328BOLB   GL4 7864  17.154   9.722  26.438  0.1252  0.0053 -0.0194
  328BOLB   C1C 7865  16.678  10.154  26.453  0.2369  0.2965 -0.1340
  328BOLB   C2C 7866  16.929  10.347  26.160  0.0339 -0.0447 -0.0363
  328BOLB   C3C 7867  16.874  10.409  25.773 -0.2166  0.2094 -0.0932
  328BOLB   C4C 7868  16.633  10.488  25.469 -0.2083  0.4979 -0.3227
  328BOLB   C1D 7869  16.963   9.791  26.160 -0.2161  0.1008  0.1901
  328BOLB   C2D 7870  16.722   9.908  25.936 -0.3203  0.0547  0.1242
  328BOLB   C3D 7871  16.404  10.239  26.070  0.0490  0.0377  0.1510
  328BOLB   C4D 7872  16.417  10.649  26.411 -0.1465  0.1014 -0.0204
  329BOLB   NC1 7873  20.932  13.623  23.239  0.0609  0.2708 -0.1154
  329BOLB   PO1 7874  21.392  13.745  23.250  0.2034 -0.4937  0.0090
  329BOLB   GL1 7875  21.661  13.509  23.591 -0.3209 -0.0898  0.0074
  329BOLB   GL2 7876  21.854  13.773  23.707  0.1265  0.0792  0.0419
  329BOLB   C1A 7877  21.750  13.127  23.824 -0.3919 -0.2267 -0.0149
  329BOLB   C2A 7878  21.763  12.872  24.273 -0.2612  0.0512 -0.0667
  329BOLB   C3A 7879  21.641  12.548  24.538  0.1726 -0.2120 -0.2633
  329BOLB   C4A 7880  21.407  12.412  24.864  0.0692  0.0016  0.0453
  329BOLB   C1B 7881  22.005  13.506  24.037 -0.0669  0.1653  0.1741
  329BOLB   C2B 7882  21.870  13.281  24.483 -0.1354  0.0828 -0.0634
  329BOLB   C3B 7883  22.156  13.183  24.840 -0.2205  0.1039 -0.0436
  329BOLB   C4B 7884  22.074  13.093  25.261 -0.0510  0.2139 -0.0976
  329BOLB   NC2 7885  21.910  12.915  27.466  0.0828 -0.4809 -0.1463
  329BOLB   PO2 7886  21.564  12.714  27.229 -0.0374 -0.3483 -0.0301
  329BOLB   GL3 7887  21.556  12.989  26.893 -0.1463  0.2134 -0.0038
  329BOLB   GL4 7888  21.418  13.299  27.011  0.0031 -0.3360  0.0394
  329BOLB   C1C 7889  21.427  12.944  26.541  0.1061 -0.0914  0.0166
  329BOLB   C2C 7890  21.339  12.637  26.236  0.3680 -0.2664  0.0211
  329BOLB   C3C 7891  21.349  12.592  25.763 -0.3109 -0.3094  0.0919
  329BOLB   C4C 7892  21.367  12.250  25.281  0.1971 -0.1934 -0.6254
  329BOLB   C1D 7893  21.587  13.445  26.526  0.0086 -0.5594 -0.1380
  329BOLB   C2D 7894  21.320  13.380  26.219 -0.1879 -0.1508 -0.3308
  329BOLB   C3D 7895  20.972  13.412  25.924  0.1916 -0.2689  0.0670
  329BOLB   C4D 7896  20.633  13.147  25.681  0.1670  0.2342 -0.2482
  330BOLB   NC1 7897  17.850  10.674  21.662  0.1909  0.0114  0.1500
  330BOLB   PO1 7898  17.483  10.298  21.775  0.1400  0.0833 -0.0961
  330BOLB   GL1 7899  17.420  10.045  22.092 -0.0023 -0.0394 -0.0394
  330BOLB   GL2 7900  17.353  10.117  22.357 -0.0862 -0.1862 -0.0762
  330BOLB   C1A 7901  17.700   9.828  22.477 -0.0358  0.1624  0.2674
  330BOLB   C2A 7902  17.816   9.607  22.870  0.1218 -0.0224  0.0475
  330BOLB   C3A 7903  18.079   9.502  23.145  0.3006 -0.2509 -0.1104
  330BOLB   C4A 7904  18.282   9.442  23.525 -0.0916 -0.1152  0.0024
  330BOLB   C1B 7905  17.124   9.849  22.480 -0.2348 -0.0640 -0.0609
  330BOLB   C2B 7906  17.139   9.579  22.838  0.2109  0.1984  0.0746
  330BOLB   C3B 7907  17.301   9.454  23.287 -0.1370 -0.2092  0.1319
  330BOLB   C4B 7908  17.365   9.264  23.717 -0.0692  0.1580 -0.4114
  330BOLB   NC2 7909  19.013   8.475  25.913 -0.4080 -0.0887  0.0717
  330BOLB   PO2 7910  19.457   8.637  25.861 -0.0537 -0.5592 -0.1334
  330BOLB   GL3 7911  19.145   8.861  25.603 -0.1004 -0.2188  0.2516
  330BOLB   GL4 7912  19.239   9.117  25.613  0.0444 -0.1156 -0.0540
  330BOLB   C1C 7913  19.111   9.035  25.102 -0.0116  0.1424  0.0150
  330BOLB   C2C 7914  19.008   9.050  24.566 -0.0731 -0.0836 -0.0224
  330BOLB   C3C 7915  18.752   9.205  24.210 -0.1776  0.0045  0.0210
  330BOLB   C4C 7916  18.610   9.412  23.901 -0.1162 -0.2566  0.0048
  330BOLB   C1D 7917  19.279   9.409  25.321 -0.2406 -0.0216  0.0695
  330BOLB   C2D 7918  19.088   9.594  24.909  0.1577  0.3192  0.1881
  330BOLB   C3D 7919  19.047   9.607  24.478 -0.0472 -0.0486 -0.0940
  330BOLB   C4D 7920  19.204   9.631  24.091 -0.1087  0.2925 -0.1840
  331BOLB   NC1 7921  13.885  18.525  24.780 -0.1214 -0.1358 -0.2994
  331BOLB   PO1 7922  13.526  18.455  24.720 -0.0510  0.0379  0.1500
  331BOLB   GL1 7923  13.630  18.307  25.126 -0.3311  0.2592 -0.0172
  331BOLB   GL2 7924  13.419  18.561  25.340 -0.0724  0.1138 -0.1410
  331BOLB   C1A 7925  13.631  18.178  25.610  0.0710 -0.1939 -0.2408
  331BOLB   C2A 7926  13.708  18.372  26.055 -0.0350 -0.2390 -0.1601
  331BOLB   C3A 7927  13.615  18.705  26.426 -0.0128 -0.1846  0.0490
  331BOLB   C4A 7928  13.518  18.934  26.747  0.3153 -0.2211  0.0872
  331BOLB   C1B 7929  13.403  18.773  25.692 -0.0186  0.5201 -0.2228
  331BOLB   C2B 7930  13.395  19.024  26.056  0.1074  0.1338 -0.1861
  331BOLB   C3B 7931  13.417  19.303  26.392  0.2027 -0.0797 -0.2188
  331BOLB   C4B 7932  13.242  19.511  26.753  0.1767  0.0422 -0.0599
  331BOLB   NC2 7933  12.265  18.865  28.503 -0.0237 -0.1039  0.2266
  331BOLB   PO2 7934  12.041  19.186  28.416 -0.0779  0.2189 -0.2164
  331BOLB   GL3 7935  12.158  19.008  28.058  0.2064  0.0267 -0.0456
  331BOLB   GL4 7936  11.892  18.902  27.812 -0.1508 -0.0432  0.0692
  331BOLB   C1C 7937  12.339  18.653  27.729  0.0146  0.3791 -0.2581
  331BOLB   C2C 7938  12.518  18.386  27.346 -0.3035  0.1862 -0.0514
  331BOLB   C3C 7939  12.817  18.595  26.931 -0.3732 -0.2023  0.2037
  331BOLB   C4C 7940  13.185  18.814  27.081  0.1046 -0.2021  0.0959
  331BOLB   C1D 7941  11.875  18.927  27.402  0.3226 -0.0626  0.0723
  331BOLB   C2D 7942  11.754  18.781  26.977 -0.1674  0.2055 -0.1485
  331BOLB   C3D 7943  11.604  18.736  26.617  0.0035  0.1330  0.3746
  331BOLB   C4D 7944  11.629  18.799  26.084 -0.2102  0.1545  0.1801
  332BOLB   NC1 7945  12.562  21.407  23.139  0.3513  0.0119 -0.1060
  332BOLB   PO1 7946  12.399  21.364  23.492 -0.1840  0.2467  0.1349
  332BOLB   GL1 7947  12.147  21.524  23.792  0.2727 -0.1446 -0.0157
  332BOLB   GL2 7948  11.806  21.397  23.952 -0.4054  0.2518  0.2311
  332BOLB   C1A 7949  12.293  21.530  24.211 -0.0321 -0.2196 -0.0918
  332BOLB   C2A 7950  12.488  21.845  24.423  0.0032 -0.0301 -0.2496
  332BOLB   C3A 7951  12.458  22.281  24.551 -0.0411 -0.1464 -0.1237
  332BOLB   C4A 7952  12.739  22.642  24.638 -0.2973 -0.2024  0.0740
  332BOLB   C1B 7953  11.464  21.237  24.180  0.3649 -0.0447 -0.2225
  332BOLB   C2B 7954  11.186  21.270  24.617 -0.0490  0.3497 -0.0672
  332BOLB   C3B 7955  10.817  21.320  24.992  0.0059 -0.1748 -0.1676
  332BOLB   C4B 7956  10.606  21.117  25.226  0.1415  0.0886 -0.0747
  332BOLB   NC2 7957  12.966  24.586  26.280 -0.0044  0.0792  0.1314
  332BOLB   PO2 7958  12.973  24.164  26.583  0.4471 -0.0219  0.0218
  332BOLB   GL3 7959  13.180  24.025  26.221 -0.0117 -0.0326 -0.2358
  332BOLB   GL4 7960  13.173  24.202  25.940 -0.1576 -0.3213  0.0375
  332BOLB   C1C 7961  13.255  23.723  25.863  0.1183 -0.4868 -0.1135
  332BOLB   C2C 7962  13.137  23.464  25.550  0.1720 -0.0143 -0.2104
  332BOLB   C3C 7963  13.152  23.164  25.270  0.0095  0.3648 -0.0065
  332BOLB   C4C 7964  12.906  22.888  24.914 -0.3169  0.1687  0.2381
  332BOLB   C1D 7965  13.544  24.081  25.670 -0.3893  0.2382 -0.2326
  332BOLB   C2D 7966  13.801  23.943  25.424 -0.0943 -0.3231 -0.0481
  332BOLB   C3D 7967  14.068  24.168  25.668 -0.0591 -0.1069  0.2037
  332BOLB   C4D 7968  14.192  24.409  26.012 -0.2276  0.0685 -0.0678
  333BOLB   NC1 7969   9.929  24.546  21.349  0.2864  0.4591  0.0701
  333BOLB   PO1 7970  10.066  24.876  21.108  0.0527  0.0859  0.0071
  333BOLB   GL1 7971  10.200  24.874  21.639  0.1606  0.2473  0.0048
  333BOLB   GL2 7972  10.636  24.829  21.700  0.0728 -0.1903  0.0423
  333BOLB   C1A 7973  10.342  24.676  22.066 -0.0807  0.3449 -0.0145
  333BOLB   C2A 7974  10.510  24.402  22.449 -0.2221  0.2364 -0.1191
  333BOLB   C3A 7975  10.635  24.436  22.817  0.0680  0.1706  0.1710
  333BOLB   C4A 7976  10.580  24.559  23.313 -0.3095 -0.1692 -0.1166
  333BOLB   C1B 7977  10.519  25.174  21.906  0.0411  0.1688 -0.0233
  333BOLB   C2B 7978  10.343  25.347  22.239  0.0386  0.1186  0.2635
  333BOLB   C3B 7979  10.041  25.375  22.603  0.0252  0.0350  0.0670
  333BOLB   C4B 7980   9.952  25.140  22.936  0.0750  0.0067 -0.0122
  333BOLB   NC2 7981  10.250  25.300  25.454  0.0335  0.1711  0.0188
  333BOLB   PO2 7982  10.218  25.632  25.076 -0.3999 -0.1559 -0.1793
  333BOLB   GL3 7983  10.539  25.416  24.958 -0.0666  0.0230  0.4129
  333BOLB   GL4 7984  10.480  25.191  24.997 -0.1509 -0.1985 -0.0964
  333BOLB   C1C 7985  10.596  25.304  24.491 -0.1308 -0.0473  0.2068
  333BOLB   C2C 7986  10.619  25.042  24.158  0.0694  0.2088 -0.2587
  333BOLB   C3C 7987  10.622  24.640  24.132 -0.2679 -0.0782 -0.1872
  333BOLB   C4C 7988  10.717  24.623  23.730  0.0066  0.2093 -0.0634
  333BOLB   C1D 7989  10.774  24.824  25.083  0.1824 -0.1614 -0.0562
  333BOLB   C2D 7990  10.816  24.382  25.051  0.0027 -0.0848  0.0564
  333BOLB   C3D 7991  10.872  24.057  25.365 -0.2717  0.0946  0.0239
  333BOLB   C4D 7992  10.895  23.709  25.619  0.0141  0.2250 -0.0754
  334BOLB   NC1 7993  22.939  13.519  21.942  0.1590  0.1518  0.1377
  334BOLB   PO1 7994  23.055  13.120  22.192 -0.3187 -0.1669  0.1315
  334BOLB   GL1 7995  23.249  12.940  22.533 -0.2637  0.1194 -0.1970
  334BOLB   GL2 7996  23.585  12.900  22.601  0.2188 -0.2289  0.0724
  334BOLB   C1A 7997  23.254  12.624  22.872 -0.0134  0.0922  0.3065
  334BOLB   C2A 7998  22.955  12.607  23.240 -0.2839 -0.1203 -0.1550
  334BOLB   C3A 7999  22.822  12.463  23.659 -0.1866 -0.5176 -0.1673
  334BOLB   C4A 8000  22.998  12.266  24.065 -0.0103 -0.0463  0.0230
  334BOLB   C1B 8001  23.757  12.636  22.985 -0.3227 -0.0608 -0.0991
  334BOLB   C2B 8002  23.504  12.435  23.304  0.2097  0.0319 -0.0429
  334BOLB   C3B 8003  23.410  12.034  23.611  0.2331 -0.0596 -0.0729
  334BOLB   C4B 8004  23.147  11.608  23.622 -0.0902 -0.1697  0.3304
  334BOLB   NC2 8005  23.807  10.544  25.938 -0.2216 -0.1018  0.2015
  334BOLB   PO2 8006  23.352  10.824  26.013  0.1727 -0.0877  0.1701
  334BOLB   GL3 8007  23.197  10.898  25.594  0.2244 -0.5981  0.0360
  334BOLB   GL4 8008  23.488  10.833  25.445  0.0049  0.0832 -0.1257
  334BOLB   C1C 8009  22.905  11.069  25.304 -0.1933 -0.2340 -0.1728
  334BOLB   C2C 8010  22.920  11.481  25.094 -0.2054  0.2102  0.0539
  334BOLB   C3C 8011  23.029  11.772  24.792 -0.1629  0.2264  0.1418
  334BOLB   C4C 8012  22.945  12.088  24.497  0.2110 -0.2799 -0.3570
  334BOLB   C1D 8013  23.487  10.817  25.035  0.0193 -0.0532 -0.1201
  334BOLB   C2D 8014  23.390  10.606  24.743 -0.0646 -0.2469  0.0059
  334BOLB   C3D 8015  23.677  10.378  24.537  0.0537 -0.1014  0.1485
  334BOLB   C4D 8016  23.948  10.327  24.382  0.1611 -0.0651 -0.2444
  335BOLB   NC1 8017  11.604  22.434  22.601  0.0572 -0.0203 -0.0210
  335BOLB   PO1 8018  11.424  22.916  22.584 -0.0714  0.0619  0.1393
  335BOLB   GL1 8019  11.426  22.684  23.018 -0.0446  0.0764 -0.0688
  335BOLB   GL2 8020  11.785  22.447  23.114  0.2318 -0.2827 -0.1775
  335BOLB   C1A 8021  11.419  22.741  23.465 -0.0937  0.1657  0.0053
  335BOLB   C2A 8022  11.579  22.786  23.856 -0.3197  0.2182 -0.1331
  335BOLB   C3A 8023  11.771  22.936  24.255  0.2294 -0.0115  0.2248
  335BOLB   C4A 8024  11.837  23.052  24.620 -0.0781 -0.0176 -0.1433
  335BOLB   C1B 8025  11.868  22.612  23.512  0.1949  0.2264 -0.0323
  335BOLB   C2B 8026  12.055  22.821  23.797  0.1156  0.2391  0.2587
  335BOLB   C3B 8027  12.190  23.093  24.022 -0.0661  0.2304 -0.0579
  335BOLB   C4B 8028  12.335  23.327  24.378  0.3967 -0.0435  0.2248
  335BOLB   NC2 8029  11.566  23.198  27.260  0.1646 -0.2677  0.0284
  335BOLB   PO2 8030  11.583  23.355  26.847  0.1388 -0.2836  0.1445
  335BOLB   GL3 8031  11.624  23.197  26.450  0.0782 -0.1972 -0.4361
  335BOLB   GL4 8032  11.298  23.230  26.372 -0.3700  0.1706 -0.0165
  335BOLB   C1C 8033  11.760  23.304  26.091  0.1377 -0.3290  0.1680
  335BOLB   C2C 8034  11.790  22.999  25.789 -0.4221 -0.2034 -0.4891
  335BOLB   C3C 8035  11.773  22.871  25.383  0.0541  0.1215  0.0165
  335BOLB   C4C 8036  11.887  22.804  24.931 -0.0450  0.2231  0.1019
  335BOLB   C1D 8037  11.405  22.844  26.087 -0.0811 -0.4968  0.1433
  335BOLB   C2D 8038  11.666  22.529  25.841 -0.0555  0.1529 -0.2310
  335BOLB   C3D 8039  11.850  22.222  25.630  0.2028  0.1811  0.1225
  335BOLB   C4D 8040  12.193  22.058  25.524 -0.1759  0.1358  0.1616
  336BOLB   NC1 8041  18.154  24.057  20.845 -0.0765  0.1228  0.3479
  336BOLB   PO1 8042  17.887  24.070  21.139 -0.1404  0.0241  0.0136
  336BOLB   GL1 8043  17.819  24.052  21.579 -0.2328  0.0376 -0.0863
  336BOLB   GL2 8044  18.111  23.805  21.575 -0.0482  0.4321 -0.1659
  336BOLB   C1A 8045  18.026  24.438  21.796  0.1162 -0.0330  0.0686
  336BOLB   C2A 8046  17.907  24.721  22.139 -0.0778  0.1407 -0.2075
  336BOLB   C3A 8047  17.830  24.677  22.479 -0.2498 -0.0397  0.0591
  336BOLB   C4A 8048  17.982  24.886  22.867 -0.3424  0.2924 -0.2958
  336BOLB   C1B 8049  18.296  23.999  21.898  0.1320 -0.1094 -0.0013
  336BOLB   C2B 8050  18.266  24.253  22.249  0.0020 -0.3710 -0.0585
  336BOLB   C3B 8051  18.306  24.600  22.569  0.2103  0.0124  0.2491
  336BOLB   C4B 8052  18.518  24.666  22.948  0.0749 -0.0436 -0.0497
  336BOLB   NC2 8053  17.675  26.675  23.924 -0.2342 -0.0193  0.2261
  336BOLB   PO2 8054  17.882  27.125  23.851 -0.0897  0.0203 -0.0910
  336BOLB   GL3 8055  17.878  26.880  23.326 -0.0200 -0.1663  0.2614
  336BOLB   GL4 8056  17.595  26.842  23.272 -0.0969  0.2265 -0.0415
  336BOLB   C1C 8057  17.820  26.332  23.224  0.0949 -0.1779  0.0464
  336BOLB   C2C 8058  17.908  25.906  23.269 -0.0338  0.0680 -0.2077
  336BOLB   C3C 8059  18.070  25.569  23.245 -0.0420  0.3341  0.1933
  336BOLB   C4C 8060  18.117  25.148  23.192 -0.0272  0.2658  0.1344
  336BOLB   C1D 8061  17.679  26.697  22.848 -0.1370  0.0312 -0.2119
  336BOLB   C2D 8062  17.775  26.506  22.589 -0.0232 -0.1024 -0.2606
  336BOLB   C3D 8063  17.592  26.237  22.244 -0.0674 -0.3194  0.0893
  336BOLB   C4D 8064  17.200  26.114  22.218  0.1762  0.0825 -0.1239
  337BOLB   NC1 8065  14.856  14.764  24.250  0.0725 -0.1255 -0.6321
  337BOLB   PO1 8066  14.742  14.849  24.770 -0.0452  0.0365 -0.2141
  337BOLB   GL1 8067  14.762  14.823  25.116  0.2712 -0.0303 -0.1200
  337BOLB   GL2 8068  14.554  14.590  25.190 -0.0833 -0.3733 -0.1597
  337BOLB   C1A 8069  14.894  14.953  25.614  0.0493  0.0717 -0.0176
  337BOLB   C2A 8070  14.995  14.900  26.087  0.0020 -0.0068  0.3663
  337BOLB   C3A 8071  15.073  14.653  26.390 -0.1250 -0.1549  0.0362
  337BOLB   C4A 8072  15.232  14.331  26.784 -0.0936  0.1508  0.0596
  337BOLB   C1B 8073  14.661  14.462  25.670 -0.1736  0.1015  0.2210
  337BOLB   C2B 8074  15.007  14.326  25.919  0.0417 -0.0659  0.0593
  337BOLB   C3B 8075  15.041  14.157  26.304  0.1019 -0.0539 -0.4854
  337BOLB   C4B 8076  15.121  13.818  26.538  0.2923 -0.2321 -0.1098
  337BOLB   NC2 8077  16.336  13.249  28.797  0.1375 -0.1773 -0.0197
  337BOLB   PO2 8078  15.817  13.130  28.803  0.3429 -0.4205  0.2091
  337BOLB   GL3 8079  15.855  13.322  28.330 -0.1863 -0.0064 -0.1726
  337BOLB   GL4 8080  15.616  13.318  28.186  0.0072  0.1314 -0.2457
  337BOLB   C1C 8081  16.089  13.410  27.874  0.0912  0.2483 -0.0537
  337BOLB   C2C 8082  15.894  13.634  27.632  0.1358 -0.1743 -0.5405
  337BOLB   C3C 8083  15.561  13.825  27.460 -0.0770 -0.4267 -0.2374
  337BOLB   C4C 8084  15.409  14.161  27.119 -0.2281 -0.0931 -0.1224
  337BOLB   C1D 8085  15.466  13.542  27.895 -0.1958 -0.3340 -0.0005
  337BOLB   C2D 8086  15.246  13.976  27.813  0.1907  0.1547 -0.1600
  337BOLB   C3D 8087  15.386  14.283  27.616 -0.1212 -0.2144  0.0953
  337BOLB   C4D 8088  15.443  14.690  27.558  0.0553  0.0561  0.0225
  338BOLB   NC1 8089   8.591  16.184  22.839  0.0791  0.1669  0.2205
  338BOLB   PO1 8090   8.913  16.179  23.130 -0.1480 -0.1200  0.1366
  338BOLB   GL1 8091   8.703  16.264  23.593 -0.0062  0.0151 -0.1856
  338BOLB   GL2 8092   8.494  15.987  23.643 -0.0498 -0.0044  0.0064
  338BOLB   C1A 8093   8.687  16.507  23.964  0.1083 -0.2753 -0.0617
  338BOLB   C2A 8094   8.557  16.704  24.302 -0.0026 -0.0132 -0.2099
  338BOLB   C3A 8095   8.361  16.888  24.706 -0.0190 -0.0295  0.3152
  338BOLB   C4A 8096   7.974  16.964  24.858 -0.1557 -0.0093 -0.2218
  338BOLB   C1B 8097   8.567  15.900  24.038 -0.3035 -0.1667  0.3204
  338BOLB   C2B 8098   8.516  15.616  24.288 -0.3986  0.1904  0.0968
  338BOLB   C3B 8099   8.137  15.331  24.357 -0.0051  0.3168  0.3352
  338BOLB   C4B 8100   7.988  15.220  24.782  0.0609 -0.0722  0.0138
  338BOLB   NC2 8101   7.970  17.864  27.196  0.0220  0.0236  0.1553
  338BOLB   PO2 8102   7.608  17.728  27.047  0.1191  0.2836  0.0989
  338BOLB   GL3 8103   7.766  17.817  26.656  0.0195  0.3814  0.1843
  338BOLB   GL4 8104   8.034  17.950  26.678  0.0150 -0.2817  0.3064
  338BOLB   C1C 8105   7.534  17.632  26.347 -0.2640  0.1308  0.1197
  338BOLB   C2C 8106   7.552  17.512  25.872 -0.2642 -0.0710  0.1434
  338BOLB   C3C 8107   7.590  17.245  25.538 -0.0555 -0.2736  0.1562
  338BOLB   C4C 8108   7.641  16.974  25.179  0.2992 -0.2918 -0.1169
  338BOLB   C1D 8109   8.453  17.890  26.536  0.0100 -0.2001 -0.0617
  338BOLB   C2D 8110   8.679  17.873  26.252 -0.0459 -0.3837  0.0538
  338BOLB   C3D 8111   8.726  17.802  25.870 -0.1616  0.0985 -0.2225
  338BOLB   C4D 8112   8.974  17.978  25.568  0.1470 -0.0798  0.3783
  339BOLB   NC1 8113  13.588  21.656  23.427  0.4017  0.2430 -0.2099
  339BOLB   PO1 8114  13.441  21.204  23.531  0.1354  0.0244  0.3592
  339BOLB   GL1 8115  13.262  21.121  23.860 -0.2571  0.3301  0.0014
  339BOLB   GL2 8116  13.367  20.796  24.100 -0.0510  0.1200 -0.0473
  339BOLB   C1A 8117  13.211  21.253  24.241 -0.3588 -0.2767 -0.0656
  339BOLB   C2A 8118  13.341  21.438  24.580 -0.0927 -0.1008  0.2921
  339BOLB   C3A 8119  13.269  21.717  24.799 -0.0609 -0.0603  0.1472
  339BOLB   C4A 8120  13.093  21.952  25.139 -0.0526  0.5452 -0.2641
  339BOLB   C1B 8121  12.983  20.803  24.208  0.0625  0.2518 -0.2955
  339BOLB   C2B 8122  12.916  20.808  24.534 -0.4119  0.0900  0.1082
  339BOLB   C3B 8123  13.099  21.068  24.866  0.2072  0.0039  0.1836
  339BOLB   C4B 8124  13.107  21.108  25.325 -0.0679  0.2309 -0.1755
  339BOLB   NC2 8125  13.532  23.096  27.249  0.0323 -0.2583 -0.2238
  339BOLB   PO2 8126  13.054  22.975  27.034 -0.1473  0.2366  0.1467
  339BOLB   GL3 8127  12.942  23.019  26.638  0.3546 -0.1979  0.1222
  339BOLB   GL4 8128  12.669  23.248  26.711 -0.2004 -0.1775 -0.2514
  339BOLB   C1C 8129  12.762  22.802  26.334 -0.2895 -0.0094 -0.1169
  339BOLB   C2C 8130  12.570  22.558  26.002 -0.2008 -0.1667  0.0867
  339BOLB   C3C 8131  12.598  22.287  25.593 -0.2028  0.0995 -0.0534
  339BOLB   C4C 8132  12.803  21.963  25.422 -0.4125  0.2010 -0.0909
  339BOLB   C1D 8133  12.471  23.621  26.471  0.1551 -0.2200  0.1397
  339BOLB   C2D 8134  12.139  23.596  26.223 -0.2781  0.3419  0.1387
  339BOLB   C3D 8135  12.235  23.400  25.797  0.1517 -0.0828  0.1606
  339BOLB   C4D 8136  12.283  23.261  25.437 -0.0987 -0.3533 -0.1540
  340BOLB   NC1 8137  18.427  17.138  24.200  0.1455 -0.2614 -0.3382
  340BOLB   PO1 8138  18.756  17.094  24.445  0.5498 -0.0299  0.0505
  340BOLB   GL1 8139  18.993  17.248  24.703 -0.3091 -0.0706  0.0767
  340BOLB   GL2 8140  18.950  17.546  24.627  0.0916 -0.1092  0.3363
  340BOLB   C1A 8141  19.141  17.432  25.117 -0.0897  0.0801 -0.2630
  340BOLB   C2A 8142  19.206  17.582  25.499 -0.3977  0.1030 -0.0207
  340BOLB   C3A 8143  19.156  17.607  26.015 -0.3569  0.2057 -0.1100
  340BOLB   C4A 8144  19.345  17.322  26.358 -0.1143 -0.0214 -0.1298
  340BOLB   C1B 8145  19.144  17.969  24.874  0.1327 -0.0801  0.1726
  340BOLB   C2B 8146  19.356  18.107  25.268 -0.1319  0.1788  0.0240
  340BOLB   C3B 8147  19.688  18.104  25.602  0.0796 -0.0327 -0.2472
  340BOLB   C4B 8148  19.703  18.162  26.079 -0.0715  0.1596  0.0332
  340BOLB   NC2 8149  19.599  18.055  28.516 -0.0355  0.3200  0.0609
  340BOLB   PO2 8150  19.881  17.761  28.489 -0.0241 -0.0484 -0.1231
  340BOLB   GL3 8151  19.923  17.732  28.063 -0.2426 -0.2424  0.1938
  340BOLB   GL4 8152  20.121  17.886  27.885  0.0697  0.0120 -0.2078
  340BOLB   C1C 8153  19.715  17.646  27.670 -0.0454 -0.3703 -0.1475
  340BOLB   C2C 8154  19.800  17.594  27.317  0.2445 -0.0889 -0.2196
  340BOLB   C3C 8155  19.562  17.232  27.051  0.2411  0.0946  0.1670
  340BOLB   C4C 8156  19.427  16.982  26.674 -0.1413 -0.0295 -0.1069
  340BOLB   C1D 8157  20.212  17.839  27.394  0.0664  0.0064 -0.1254
  340BOLB   C2D 8158  20.470  17.811  26.943  0.0381 -0.2721  0.3708
  340BOLB   C3D 8159  20.784  17.747  26.673  0.2203 -0.0544  0.3596
  340BOLB   C4D 8160  20.891  18.032  26.411 -0.1820 -0.4582  0.4265
  341BOLB   NC1 8161   9.080  24.258  22.071  0.2350  0.0005 -0.1709
  341BOLB   PO1 8162   9.090  24.683  22.072  0.1069 -0.0862 -0.2066
  341BOLB   GL1 8163   9.276  24.511  22.476  0.1315  0.2682  0.0024
  341BOLB   GL2 8164   9.355  24.882  22.547 -0.0781  0.0780  0.0240
  341BOLB   C1A 8165   9.603  24.207  22.658 -0.1793 -0.2186  0.3372
  341BOLB   C2A 8166   9.777  23.898  23.013  0.0884  0.0980 -0.0785
  341BOLB   C3A 8167   9.881  24.041  23.454 -0.0503 -0.2273 -0.1472
  341BOLB   C4A 8168   9.896  24.170  23.865  0.1862 -0.1034  0.2843
  341BOLB   C1B 8169   9.672  24.655  22.827  0.1220  0.0670 -0.0976
  341BOLB   C2B 8170   9.826  24.525  23.220 -0.3066 -0.0745  0.4291
  341BOLB   C3B 8171  10.040  24.568  23.523  0.4672  0.0741  0.1954
  341BOLB   C4B 8172  10.272  24.793  23.813 -0.0282 -0.0489 -0.0218
  341BOLB   NC2 8173   8.127  25.002  24.430  0.0530  0.1646 -0.1601
  341BOLB   PO2 8174   8.129  24.735  24.835 -0.3360 -0.2567 -0.2292
  341BOLB   GL3 8175   8.461  24.728  24.639 -0.2848  0.4720  0.1946
  341BOLB   GL4 8176   8.480  24.560  24.359 -0.0509 -0.2080  0.0257
  341BOLB   C1C 8177   8.841  24.583  24.803  0.0422 -0.0037  0.0165
  341BOLB   C2C 8178   9.287  24.374  24.878  0.0805  0.0798 -0.1883
  341BOLB   C3C 8179   9.541  24.205  24.620 -0.0746  0.2442 -0.3127
  341BOLB   C4C 8180   9.630  24.359  24.265 -0.0232 -0.0702 -0.0371
  341BOLB   C1D 8181   8.888  24.276  24.355 -0.2388 -0.1076 -0.0140
  341BOLB   C2D 8182   9.099  23.962  24.478  0.0192  0.0589 -0.2666
  341BOLB   C3D 8183   9.331  23.756  24.725 -0.1745  0.1284  0.0624
  341BOLB   C4D 8184   9.419  23.682  25.137  0.2904  0.0218 -0.1331
  342BOLB   NC1 8185  15.164  23.270  21.411  0.1149 -0.0379 -0.1161
  342BOLB   PO1 8186  15.416  23.622  21.612  0.1741  0.0661  0.3464
  342BOLB   GL1 8187  15.720  23.948  21.806  0.0843 -0.0796 -0.0641
  342BOLB   GL2 8188  15.823  23.786  22.103 -0.2908 -0.0648  0.2359
  342BOLB   C1A 8189  15.956  24.345  22.005 -0.1768 -0.4573  0.2418
  342BOLB   C2A 8190  16.210  24.763  22.161  0.0891 -0.0723 -0.1968
  342BOLB   C3A 8191  16.319  25.075  22.449  0.1690 -0.4563 -0.1920
  342BOLB   C4A 8192  16.525  25.532  22.636  0.3321  0.1564  0.0374
  342BOLB   C1B 8193  15.928  23.981  22.456  0.0233  0.1213  0.2028
  342BOLB   C2B 8194  15.970  24.218  22.809 -0.0599 -0.1433  0.0321
  342BOLB   C3B 8195  16.062  24.460  23.149  0.2227 -0.0469  0.1371
  342BOLB   C4B 8196  16.234  24.430  23.569  0.2572 -0.0217 -0.0835
  342BOLB   NC2 8197  17.376  26.747  24.827  0.0215  0.1688 -0.3806
  342BOLB   PO2 8198  16.984  26.529  24.804  0.4562  0.2524 -0.2725
  342BOLB   GL3 8199  16.813  26.246  24.661  0.0291 -0.0098 -0.4799
  342BOLB   GL4 8200  16.444  26.202  24.693  0.2179  0.0508 -0.3629
  342BOLB   C1C 8201  16.714  26.035  24.161 -0.3063 -0.1402  0.1836
  342BOLB   C2C 8202  16.599  25.924  23.791  0.0120 -0.3127 -0.0313
  342BOLB   C3C 8203  16.357  25.700  23.492 -0.1722  0.2751  0.1685
  342BOLB   C4C 8204  16.239  25.609  23.012  0.3238  0.3103 -0.0267
  342BOLB   C1D 8205  16.308  26.248  24.213 -0.1658 -0.0718  0.2702
  342BOLB   C2D 8206  16.157  26.030  23.962  0.0644  0.1407  0.0547
  342BOLB   C3D 8207  15.864  25.711  23.778 -0.2912 -0.0761 -0.1272
  342BOLB   C4D 8208  15.795  25.375  23.451 -0.3085 -0.3129 -0.0442
  343BOLB   NC1 8209  18.194  11.432  22.059  0.1840 -0.0922  0.0194
  343BOLB   PO1 8210  18.094  11.155  22.423  0.1286  0.0165 -0.1762
  343BOLB   GL1 8211  18.270  11.165  22.881 -0.0066 -0.1848  0.1563
  343BOLB   GL2 8212  18.078  10.991  23.044 -0.1429  0.1594 -0.1244
  343BOLB   C1A 8213  18.611  11.013  23.207  0.4060  0.1256 -0.0552
  343BOLB   C2A 8214  18.690  10.787  23.668 -0.2906 -0.0990 -0.1900
  343BOLB   C3A 8215  18.882  10.561  23.926  0.2366 -0.0352  0.2242
  343BOLB   C4A 8216  19.268  10.418  24.163 -0.0011  0.0345 -0.0084
  343BOLB   C1B 8217  18.187  10.584  23.176 -0.0977 -0.2205  0.1706
  343BOLB   C2B 8218  18.534  10.393  23.327 -0.1030  0.0319  0.1090
  343BOLB   C3B 8219  18.827  10.203  23.541  0.1199 -0.0367  0.0219
  343BOLB   C4B 8220  18.980   9.875  23.641 -0.0652 -0.3022  0.2287
  343BOLB   NC2 8221  19.561   9.194  26.090 -0.1290  0.2156  0.2200
  343BOLB   PO2 8222  19.497   9.619  26.154 -0.0257  0.3394  0.0945
  343BOLB   GL3 8223  19.414   9.740  25.756  0.1811 -0.2287  0.0681
  343BOLB   GL4 8224  19.097   9.794  25.915  0.2303 -0.0358 -0.2631
  343BOLB   C1C 8225  19.159   9.892  25.438  0.0080 -0.2483 -0.2331
  343BOLB   C2C 8226  19.093  10.155  25.140  0.2122 -0.0512  0.1378
  343BOLB   C3C 8227  19.334  10.464  24.901 -0.2283 -0.2706 -0.1459
  343BOLB   C4C 8228  19.500  10.498  24.567 -0.0697  0.4281 -0.3391
  343BOLB   C1D 8229  18.683  10.083  25.664 -0.1562 -0.0385 -0.0340
  343BOLB   C2D 8230  18.473  10.378  25.677  0.0798  0.1917 -0.2165
  343BOLB   C3D 8231  17.984  10.418  25.464 -0.0535  0.0921  0.2330
  343BOLB   C4D 8232  17.724  10.573  25.178 -0.0852  0.0765 -0.2010
  344BOLB   NC1 8233  20.188  13.638  23.014  0.0027 -0.2583  0.3772
  344BOLB   PO1 8234  19.872  13.561  23.325 -0.2860  0.1958  0.0420
  344BOLB   GL1 8235  20.080  13.420  23.810 -0.0577 -0.1197 -0.2862
  344BOLB   GL2 8236  20.085  13.123  23.778 -0.3213  0.1344 -0.2771
  344BOLB   C1A 8237  20.121  13.444  24.180 -0.0022  0.0237 -0.1920
  344BOLB   C2A 8238  20.223  13.053  24.469  0.1745 -0.2983 -0.1737
  344BOLB   C3A 8239  20.272  12.785  24.759 -0.1995  0.2223 -0.1599
  344BOLB   C4A 8240  20.551  12.560  25.002 -0.0634  0.1376  0.3419
  344BOLB   C1B 8241  20.002  12.814  24.106 -0.0273 -0.1722 -0.0630
  344BOLB   C2B 8242  19.900  12.674  24.481 -0.1351  0.4303 -0.0666
  344BOLB   C3B 8243  19.906  12.482  24.875 -0.2196  0.1613 -0.1898
  344BOLB   C4B 8244  20.057  12.503  25.252  0.1461  0.1729 -0.0747
  344BOLB   NC2 8245  21.638  10.820  26.833 -0.0755 -0.0588  0.0335
  344BOLB   PO2 8246  21.460  10.768  26.422 -0.2597  0.0795 -0.0562
  344BOLB   GL3 8247  21.578  11.149  26.086 -0.1791  0.0395  0.0982
  344BOLB   GL4 8248  21.888  11.426  26.130 -0.3103  0.2482  0.1126
  344BOLB   C1C 8249  21.391  11.317  25.658  0.0142 -0.4499  0.1631
  344BOLB   C2C 8250  21.038  11.614  25.571  0.0670  0.1064  0.2474
  344BOLB   C3C 8251  21.009  11.880  25.282 -0.1150  0.0615 -0.2884
  344BOLB   C4C 8252  20.907  12.276  25.110 -0.0847 -0.1852  0.3642
  344BOLB   C1D 8253  22.082  11.758  25.798 -0.0202  0.0913  0.0334
  344BOLB   C2D 8254  21.819  12.158  25.846 -0.0175  0.0364  0.1927
  344BOLB   C3D 8255  21.869  12.556  25.532 -0.1563  0.0028 -0.0004
  344BOLB   C4D 8256  21.600  12.944  25.469  0.0311 -0.1053  0.2202
  345BOLB   NC1 8257  21.650  11.542  21.819  0.4341  0.2685  0.0506
  345BOLB   PO1 8258  21.702  11.306  21.394  0.4047 -0.2254  0.0745
  345BOLB   GL1 8259  22.015  11.124  21.657 -0.0693 -0.0657  0.0507
  345BOLB   GL2 8260  22.261  11.195  21.613  0.1174  0.0867  0.1816
  345BOLB   C1A 8261  22.277  10.792  21.929  0.0409  0.0469 -0.2474
  345BOLB   C2A 8262  22.419  10.552  22.271 -0.1002 -0.1213 -0.0152
  345BOLB   C3A 8263  22.284  10.384  22.733 -0.1881  0.0259  0.1865
  345BOLB   C4A 8264  22.305  10.578  23.048  0.0404  0.0993 -0.0044
  345BOLB   C1B 8265  22.487  11.256  21.990 -0.1864  0.0021  0.1524
  345BOLB   C2B 8266  22.471  11.049  22.340 -0.2372  0.3145  0.0188
  345BOLB   C3B 8267  22.339  10.948  22.721 -0.0258  0.1200 -0.0801
  345BOLB   C4B 8268  21.980  10.979  22.967  0.1592  0.1199  0.1339
  345BOLB   NC2 8269  23.631   9.387  24.778  0.1067  0.0279 -0.0463
  345BOLB   PO2 8270  23.734   9.718  24.885 -0.0335 -0.5065 -0.1961
  345BOLB   GL3 8271  23.636   9.899  24.591 -0.0542  0.0228  0.1633
  345BOLB   GL4 8272  23.449   9.686  24.440 -0.3382  0.1249  0.2754
  345BOLB   C1C 8273  23.135  10.099  24.249  0.0175 -0.1969 -0.1451
  345BOLB   C2C 8274  22.779  10.227  24.084  0.0117 -0.4448  0.1434
  345BOLB   C3C 8275  22.682  10.356  23.717 -0.2237  0.1032 -0.1580
  345BOLB   C4C 8276  22.356  10.481  23.493 -0.5521 -0.0209  0.1181
  345BOLB   C1D 8277  23.436   9.606  24.037 -0.2327 -0.1665  0.1101
  345BOLB   C2D 8278  23.499   9.771  23.583  0.0678 -0.0104 -0.1283
  345BOLB   C3D 8279  23.286   9.900  23.183 -0.0176 -0.1564  0.1329
  345BOLB   C4D 8280  23.415  10.020  22.744 -0.0664  0.0817  0.1654
  346BOLB   NC1 8281  22.959  20.479  21.992  0.0680  0.0913  0.1523
  346BOLB   PO1 8282  22.888  20.123  22.231  0.0409  0.0988  0.2680
  346BOLB   GL1 8283  23.083  20.099  22.541  0.1895  0.0091 -0.2990
  346BOLB   GL2 8284  22.922  19.902  22.742 -0.0042 -0.0611  0.1009
  346BOLB   C1A 8285  23.347  20.079  22.933  0.1914  0.2269 -0.1085
  346BOLB   C2A 8286  23.343  20.136  23.356  0.1677  0.0787 -0.0413
  346BOLB   C3A 8287  23.242  20.442  23.725 -0.2824 -0.4115  0.0625
  346BOLB   C4A 8288  23.165  20.698  24.076  0.1336  0.0750 -0.3780
  346BOLB   C1B 8289  22.877  20.288  23.016 -0.0047  0.0023 -0.2389
  346BOLB   C2B 8290  23.157  20.589  23.087  0.1619  0.5598  0.0784
  346BOLB   C3B 8291  23.613  20.510  23.073  0.0329  0.2833  0.0577
  346BOLB   C4B 8292  23.850  20.409  23.408  0.0224 -0.2149 -0.0183
  346BOLB   NC2 8293  24.572  22.323  25.429  0.2327 -0.0732  0.1737
  346BOLB   PO2 8294  24.764  22.014  25.170  0.0892 -0.0162  0.2180
  346BOLB   GL3 8295  24.609  21.805  24.829  0.2021  0.0180 -0.1573
  346BOLB   GL4 8296  24.445  21.927  24.591  0.0540 -0.0408 -0.0722
  346BOLB   C1C 8297  24.054  21.903  24.849  0.0537  0.1413  0.0448
  346BOLB   C2C 8298  23.737  21.646  24.919  0.0868 -0.0260  0.2078
  346BOLB   C3C 8299  23.444  21.455  24.479 -0.3585 -0.0817  0.1192
  346BOLB   C4C 8300  23.347  21.055  24.402  0.1009 -0.1372  0.1826
  346BOLB   C1D 8301  24.231  22.152  24.247  0.2893  0.1530 -0.1456
  346BOLB   C2D 8302  24.173  22.331  23.903  0.2368 -0.0677  0.3524
  346BOLB   C3D 8303  23.998  22.206  23.512 -0.0196 -0.2406  0.2058
  346BOLB   C4D 8304  24.038  21.726  23.261 -0.0671 -0.0145 -0.4264
  347BOLB   NC1 8305  14.090  22.314  22.444 -0.0532 -0.3654  0.1784
  347BOLB   PO1 8306  14.428  22.443  22.775  0.1218  0.2130  0.0751
  347BOLB   GL1 8307  14.438  22.633  23.222 -0.2771 -0.2316 -0.0425
  347BOLB   GL2 8308  14.360  22.397  23.520  0.0757  0.0732 -0.0107
  347BOLB   C1A 8309  14.696  22.744  23.610  0.2315 -0.1008 -0.2008
  347BOLB   C2A 8310  14.898  22.776  24.050  0.2200  0.1222 -0.2160
  347BOLB   C3A 8311  15.314  22.760  24.194  0.2310  0.4320 -0.4049
  347BOLB   C4A 8312  15.446  22.973  24.627 -0.0712  0.0682 -0.3106
  347BOLB   C1B 8313  14.217  22.676  23.822 -0.1190  0.0191 -0.1820
  347BOLB   C2B 8314  14.357  22.963  24.119  0.0259  0.0378 -0.1732
  347BOLB   C3B 8315  14.675  23.219  24.400  0.1397  0.0208  0.0838
  347BOLB   C4B 8316  14.669  23.555  24.729 -0.2220  0.2225  0.0360
  347BOLB   NC2 8317  16.197  24.687  26.727 -0.0961 -0.0463  0.0077
  347BOLB   PO2 8318  16.117  24.795  26.340  0.1753  0.0674  0.0001
  347BOLB   GL3 8319  15.912  24.639  25.975 -0.0939 -0.1310  0.0628
  347BOLB   GL4 8320  16.121  24.335  25.950  0.2222  0.1795 -0.0965
  347BOLB   C1C 8321  15.888  24.483  25.526 -0.1151  0.0155  0.0373
  347BOLB   C2C 8322  15.779  24.106  25.348  0.1980 -0.0777 -0.1347
  347BOLB   C3C 8323  15.850  23.726  25.008 -0.1554 -0.0687 -0.1477
  347BOLB   C4C 8324  15.585  23.328  24.917  0.0901  0.2678  0.2879
  347BOLB   C1D 8325  16.204  24.120  25.587 -0.0668  0.1884  0.3120
  347BOLB   C2D 8326  16.594  24.134  25.298  0.0934 -0.0494 -0.2788
  347BOLB   C3D 8327  16.546  24.414  24.850 -0.1578  0.0473  0.3569
  347BOLB   C4D 8328  16.671  24.737  24.448 -0.0896  0.4097  0.0480
  348BOLB   NC1 8329  19.548  19.398  23.516  0.2189  0.0995  0.3654
  348BOLB   PO1 8330  19.916  19.569  23.378 -0.1156  0.0836  0.0611
  348BOLB   GL1 8331  19.935  19.622  23.801 -0.3211  0.2938 -0.2772
  348BOLB   GL2 8332  19.977  19.962  23.801 -0.3091  0.0320 -0.2186
  348BOLB   C1A 8333  20.033  19.697  24.269  0.1601 -0.3778 -0.0866
  348BOLB   C2A 8334  20.131  19.765  24.626 -0.2401 -0.2896 -0.1406
  348BOLB   C3A 8335  20.265  19.952  24.960  0.1834 -0.4889 -0.2622
  348BOLB   C4A 8336  20.499  20.081  25.383 -0.3593  0.0674 -0.1339
  348BOLB   C1B 8337  20.205  20.144  24.113 -0.3459  0.0526 -0.2353
  348BOLB   C2B 8338  20.134  20.268  24.571 -0.0396 -0.0042  0.0501
  348BOLB   C3B 8339  20.192  20.450  25.044 -0.4170 -0.4906  0.3386
  348BOLB   C4B 8340  20.508  20.655  25.367  0.1147 -0.0343 -0.3877
  348BOLB   NC2 8341  21.522  20.362  27.590 -0.0082 -0.1071 -0.2600
  348BOLB   PO2 8342  21.207  20.798  27.538  0.3615  0.3951 -0.0712
  348BOLB   GL3 8343  21.072  20.445  27.318  0.2337 -0.0914  0.0468
  348BOLB   GL4 8344  21.269  20.521  27.092  0.1300  0.2952  0.0291
  348BOLB   C1C 8345  20.834  20.190  26.994 -0.1339 -0.0573 -0.0903
  348BOLB   C2C 8346  20.792  20.254  26.544  0.3135  0.0883  0.4357
  348BOLB   C3C 8347  20.486  20.237  26.174  0.4302  0.2056 -0.0563
  348BOLB   C4C 8348  20.427  20.317  25.771 -0.0715 -0.1250  0.0198
  348BOLB   C1D 8349  21.124  20.678  26.789 -0.1453 -0.3924  0.1246
  348BOLB   C2D 8350  21.266  20.628  26.382  0.2909 -0.0960  0.0196
  348BOLB   C3D 8351  21.003  20.437  26.058 -0.0711 -0.0090 -0.1393
  348BOLB   C4D 8352  20.979  20.488  25.477  0.0328  0.2171 -0.1311
  349BOLB   NC1 8353  10.618  10.564  23.530 -0.2394 -0.2043 -0.0224
  349BOLB   PO1 8354  11.073  10.847  23.497  0.0650 -0.0518  0.0044
  349BOLB   GL1 8355  10.884  10.771  23.900 -0.1841 -0.0559  0.5165
  349BOLB   GL2 8356  10.947  11.027  24.114 -0.0683  0.0233 -0.0948
  349BOLB   C1A 8357  10.704  10.601  24.207 -0.0422  0.2374 -0.0725
  349BOLB   C2A 8358  10.325  10.620  24.339  0.0552  0.0868 -0.2738
  349BOLB   C3A 8359  10.171  10.703  24.834 -0.1500 -0.0696 -0.1153
  349BOLB   C4A 8360  10.144  10.544  25.189 -0.1895 -0.0770  0.0091
  349BOLB   C1B 8361  10.888  11.009  24.536 -0.2141  0.0972  0.1303
  349BOLB   C2B 8362  11.068  10.996  24.997  0.4496  0.0656 -0.2003
  349BOLB   C3B 8363  11.345  10.751  25.253 -0.3682  0.3465  0.0316
  349BOLB   C4B 8364  11.656  10.574  25.257 -0.2384  0.0617  0.0110
  349BOLB   NC2 8365   8.792  10.053  27.329 -0.2400  0.1075 -0.4329
  349BOLB   PO2 8366   9.178  10.176  27.357 -0.2595 -0.1157 -0.0612
  349BOLB   GL3 8367   9.420  10.220  26.996  0.1778  0.2272 -0.1441
  349BOLB   GL4 8368   9.721  10.202  26.883 -0.1579 -0.4965  0.4841
  349BOLB   C1C 8369   9.548  10.638  26.725  0.1113 -0.1281  0.0579
  349BOLB   C2C 8370   9.820  10.741  26.382  0.0377  0.1913 -0.1222
  349BOLB   C3C 8371   9.918  10.909  26.070 -0.0281 -0.0705  0.2894
  349BOLB   C4C 8372  10.147  10.748  25.656  0.0068  0.2296 -0.1799
  349BOLB   C1D 8373   9.854  10.270  26.424 -0.0481  0.0007 -0.2265
  349BOLB   C2D 8374  10.056  10.447  26.055  0.2260 -0.1900  0.1097
  349BOLB   C3D 8375  10.042  10.274  25.744 -0.0554 -0.0248  0.0624
  349BOLB   C4D 8376   9.983   9.994  25.433 -0.0094  0.2372 -0.0802
  350BOLB   NC1 8377  14.175  10.486  22.704 -0.0862  0.1672 -0.1406
  350BOLB   PO1 8378  13.975  10.063  22.720 -0.0493  0.2280  0.2155
  350BOLB   GL1 8379  14.098   9.782  23.116 -0.1015  0.1705 -0.2368
  350BOLB   GL2 8380  14.135   9.429  23.062  0.1565 -0.2913  0.0016
  350BOLB   C1A 8381  14.098   9.683  23.473  0.0941  0.0015  0.3305
  350BOLB   C2A 8382  14.298   9.583  23.876 -0.3801 -0.1229 -0.4441
  350BOLB   C3A 8383  14.510   9.617  24.252 -0.2162 -0.1046  0.3491
  350BOLB   C4A 8384  14.538   9.395  24.635 -0.2934  0.2865 -0.2141
  350BOLB   C1B 8385  14.113   9.219  23.524  0.1065  0.0156  0.1076
  350BOLB   C2B 8386  14.095   8.994  23.910  0.1600 -0.0917 -0.3261
  350BOLB   C3B 8387  14.269   9.142  24.366  0.2610  0.4368 -0.4962
  350BOLB   C4B 8388  14.366   8.886  24.740  0.1420  0.0081  0.0368
  350BOLB   NC2 8389  15.222   8.595  27.327  0.2727 -0.0346 -0.1510
  350BOLB   PO2 8390  15.403   8.539  26.881  0.1472 -0.0024 -0.1808
  350BOLB   GL3 8391  15.118   8.690  26.519  0.1367  0.0997 -0.1381
  350BOLB   GL4 8392  15.069   9.066  26.484 -0.1816  0.0992 -0.0337
  350BOLB   C1C 8393  14.811   8.719  26.260 -0.0940 -0.3372 -0.1889
  350BOLB   C2C 8394  14.686   8.873  25.874 -0.0661  0.0140 -0.0874
  350BOLB   C3C 8395  14.723   9.097  25.482  0.0681 -0.0962  0.1968
  350BOLB   C4C 8396  14.631   9.285  25.103  0.0969 -0.2652  0.1550
  350BOLB   C1D 8397  15.014   9.244  26.107  0.2912 -0.1210 -0.1921
  350BOLB   C2D 8398  14.956   9.580  25.799 -0.1443  0.1015 -0.1219
  350BOLB   C3D 8399  14.906   9.854  25.471 -0.1555  0.4837  0.2265
  350BOLB   C4D 8400  15.116  10.076  25.202 -0.0545 -0.2176 -0.0446
  351BOLB   NC1 8401  19.104  11.419  21.580 -0.0474 -0.0860  0.1936
  351BOLB   PO1 8402  19.096  11.026  21.823 -0.1100  0.0223  0.0182
  351BOLB   GL1 8403  19.075  10.894  22.217 -0.4122 -0.0159  0.1431
  351BOLB   GL2 8404  18.980  11.243  22.449 -0.0434  0.2168  0.3111
  351BOLB   C1A 8405  19.124  10.600  22.574  0.3296  0.1041 -0.1556
  351BOLB   C2A 8406  19.008  10.291  22.928 -0.0329  0.2068 -0.0356
  351BOLB   C3A 8407  19.247  10.068  23.216  0.0831 -0.0728  0.1092
  351BOLB   C4A 8408  19.482   9.823  23.428  0.2243  0.0022 -0.1057
  351BOLB   C1B 8409  19.178  11.111  22.785  0.0603 -0.1289  0.3466
  351BOLB   C2B 8410  19.408  10.738  22.999 -0.0488  0.2115 -0.3161
  351BOLB   C3B 8411  19.575  10.480  23.271 -0.0311 -0.0947  0.0298
  351BOLB   C4B 8412  19.773  10.248  23.487  0.0250  0.0851  0.0117
  351BOLB   NC2 8413  20.171   9.067  25.623 -0.0288  0.0046 -0.1944
  351BOLB   PO2 8414  19.808   8.963  25.649  0.1050 -0.0624 -0.1845
  351BOLB   GL3 8415  19.760   9.222  25.380  0.1229  0.2467  0.0059
  351BOLB   GL4 8416  20.025   9.380  25.308  0.1637 -0.1714  0.0187
  351BOLB   C1C 8417  19.723   9.402  24.936  0.0432 -0.0761 -0.1353
  351BOLB   C2C 8418  19.528   9.534  24.651  0.4814  0.4384  0.2284
  351BOLB   C3C 8419  19.687   9.563  24.214 -0.3688 -0.0554 -0.0639
  351BOLB   C4C 8420  19.689   9.631  23.787 -0.2136  0.2882 -0.1328
  351BOLB   C1D 8421  20.233   9.220  24.909 -0.0027  0.0390 -0.0468
  351BOLB   C2D 8422  20.133   9.314  24.521 -0.2091 -0.2008  0.3387
  351BOLB   C3D 8423  20.264   9.548  24.133  0.3820 -0.1342 -0.0939
  351BOLB   C4D 8424  20.138   9.885  23.910 -0.1044  0.1950  0.0737
  352BOLB   NC1 8425  10.717  13.391  23.399 -0.1140 -0.0528  0.1396
  352BOLB   PO1 8426  10.626  13.312  23.729 -0.0600  0.0764 -0.0136
  352BOLB   GL1 8427  10.881  13.465  24.110  0.2993 -0.0457  0.0242
  352BOLB   GL2 8428  11.120  13.234  24.183  0.1218  0.2362 -0.0662
  352BOLB   C1A 8429  10.641  13.555  24.573 -0.4744  0.3530  0.1009
  352BOLB   C2A 8430  10.690  13.258  24.950  0.0261  0.0377  0.1034
  352BOLB   C3A 8431  10.528  13.050  25.283 -0.1394 -0.2219 -0.0178
  352BOLB   C4A 8432  10.354  12.984  25.706 -0.2841  0.1419  0.1885
  352BOLB   C1B 8433  11.036  13.244  24.584 -0.3102  0.0450 -0.2603
  352BOLB   C2B 8434  11.102  12.896  24.811 -0.1152  0.0937 -0.0077
  352BOLB   C3B 8435  11.455  12.732  24.836 -0.0990 -0.0061  0.0154
  352BOLB   C4B 8436  11.590  12.636  25.148  0.2524 -0.4188  0.1655
  352BOLB   NC2 8437  10.302  13.919  28.270 -0.1748 -0.2194 -0.0346
  352BOLB   PO2 8438  10.106  13.606  28.085  0.2553 -0.0772  0.1950
  352BOLB   GL3 8439  10.147  13.479  27.647 -0.1797 -0.2494  0.0452
  352BOLB   GL4 8440  10.384  13.695  27.605 -0.1241 -0.2230 -0.0666
  352BOLB   C1C 8441  10.393  13.389  27.233  0.0049 -0.1195 -0.2225
  352BOLB   C2C 8442  10.650  13.116  26.948 -0.0106 -0.2742 -0.2764
  352BOLB   C3C 8443  10.509  12.975  26.570  0.2461 -0.2295 -0.1402
  352BOLB   C4C 8444  10.412  12.886  26.070  0.2498  0.0132  0.0446
  352BOLB   C1D 8445  10.702  13.775  27.280  0.1334  0.0918 -0.2998
  352BOLB   C2D 8446  11.100  13.842  26.941 -0.0361 -0.1934  0.1792
  352BOLB   C3D 8447  11.353  13.684  26.595 -0.0899  0.0658  0.1614
  352BOLB   C4D 8448  11.784  13.668  26.333 -0.2103  0.2974 -0.1747
  353BOLB   NC1 8449  23.808  11.746  19.882 -0.1253 -0.3070 -0.5301
  353BOLB   PO1 8450  23.695  11.396  20.208 -0.0375 -0.1212  0.0561
  353BOLB   GL1 8451  23.643  10.978  20.311 -0.0116 -0.2570 -0.0103
  353BOLB   GL2 8452  23.471  11.020  20.553 -0.4651 -0.0344 -0.2795
  353BOLB   C1A 8453  23.693  10.554  20.463  0.1917 -0.1568 -0.1547
  353BOLB   C2A 8454  23.710  10.356  20.764 -0.2776 -0.0698 -0.2065
  353BOLB   C3A 8455  23.930  10.203  21.079 -0.1209 -0.1193  0.3299
  353BOLB   C4A 8456  23.986   9.917  21.349  0.3058  0.4064  0.3300
  353BOLB   C1B 8457  23.712  10.911  20.900 -0.2227 -0.2373 -0.0084
  353BOLB   C2B 8458  23.671  10.695  21.169  0.1178 -0.2322 -0.0097
  353BOLB   C3B 8459  23.674  10.563  21.667 -0.0782 -0.1203  0.0918
  353BOLB   C4B 8460  23.378  10.770  21.917  0.0374 -0.1542  0.0042
  353BOLB   NC2 8461  24.419   8.134  22.386  0.1558  0.1120  0.1210
  353BOLB   PO2 8462  24.492   8.426  22.664 -0.2838 -0.2319  0.0137
  353BOLB   GL3 8463  24.199   8.652  22.444  0.3317  0.0495  0.0382
  353BOLB   GL4 8464  23.990   8.775  22.665 -0.4283 -0.0665  0.0323
  353BOLB   C1C 8465  23.903   8.999  22.185 -0.1828 -0.1079 -0.5124
  353BOLB   C2C 8466  23.770   9.423  22.106  0.1608  0.2208  0.1849
  353BOLB   C3C 8467  23.968   9.749  21.993 -0.1590  0.1529 -0.1809
  353BOLB   C4C 8468  24.223   9.789  21.624 -0.2423 -0.3003 -0.2638
  353BOLB   C1D 8469  24.223   9.147  22.662  0.0211 -0.1719 -0.0500
  353BOLB   C2D 8470  24.205   9.449  22.356  0.1166 -0.0397  0.1416
  353BOLB   C3D 8471  24.474   9.665  22.057  0.0958  0.0106 -0.1218
  353BOLB   C4D 8472  24.711   9.617  21.694  0.0131 -0.1235  0.0240
  354BOLB   NC1 8473  20.192  13.148  23.264 -0.1417  0.3323 -0.2032
  354BOLB   PO1 8474  20.573  13.293  23.046 -0.0584 -0.3471 -0.0399
  354BOLB   GL1 8475  20.942  13.094  23.348  0.4076 -0.1816  0.1067
  354BOLB   GL2 8476  21.179  13.276  23.428  0.1045  0.2705  0.2875
  354BOLB   C1A 8477  20.901  12.888  23.772 -0.1764  0.5024 -0.0442
  354BOLB   C2A 8478  21.220  12.838  24.133 -0.1248 -0.4934 -0.0538
  354BOLB   C3A 8479  21.077  12.432  24.368  0.1918  0.1048  0.2104
  354BOLB   C4A 8480  20.747  12.244  24.579 -0.2851 -0.0133  0.2508
  354BOLB   C1B 8481  21.288  13.281  23.800  0.0933  0.1338  0.0440
  354BOLB   C2B 8482  21.334  13.344  24.135  0.0363 -0.1324 -0.0510
  354BOLB   C3B 8483  21.311  13.340  24.592 -0.0411 -0.1201 -0.3209
  354BOLB   C4B 8484  21.384  12.968  24.789  0.1306  0.0681 -0.0348
  354BOLB   NC2 8485  21.034  12.032  26.840 -0.0911  0.0659  0.3000
  354BOLB   PO2 8486  21.075  11.616  26.795 -0.0834  0.2818 -0.2380
  354BOLB   GL3 8487  21.083  11.702  26.337  0.1638  0.3006  0.3015
  354BOLB   GL4 8488  21.317  11.605  26.070 -0.0194 -0.1431  0.2251
  354BOLB   C1C 8489  20.816  11.779  25.969 -0.4410  0.0540 -0.0978
  354BOLB   C2C 8490  20.601  11.862  25.606  0.1903 -0.0779  0.1271
  354BOLB   C3C 8491  20.597  11.615  25.167  0.0359 -0.1061  0.3925
  354BOLB   C4C 8492  20.628  11.903  24.850 -0.1437  0.1878  0.0905
  354BOLB   C1D 8493  21.545  11.752  25.753 -0.1123 -0.1108 -0.1696
  354BOLB   C2D 8494  21.796  11.934  25.395  0.1994  0.2961  0.1055
  354BOLB   C3D 8495  21.882  12.286  25.087  0.3197  0.0666 -0.0028
  354BOLB   C4D 8496  21.729  12.711  25.060 -0.0878 -0.4057 -0.4628
  355BOLB   NC1 8497  16.380  13.693  24.253  0.1717 -0.2721 -0.0351
  355BOLB   PO1 8498  16.639  13.766  24.521 -0.1598 -0.1507 -0.2820
  355BOLB   GL1 8499  16.681  13.639  24.867  0.3650  0.0970 -0.2108
  355BOLB   GL2 8500  16.910  13.616  25.004 -0.2762 -0.1894 -0.1827
  355BOLB   C1A 8501  16.642  13.464  25.371 -0.1220  0.3057  0.0327
  355BOLB   C2A 8502  16.606  13.126  25.654  0.0447  0.1445 -0.3160
  355BOLB   C3A 8503  16.736  12.851  26.057  0.0533  0.0921  0.1788
  355BOLB   C4A 8504  16.983  12.683  26.202  0.1809 -0.3418  0.0209
  355BOLB   C1B 8505  17.197  13.316  25.314  0.0743 -0.1203  0.0315
  355BOLB   C2B 8506  17.426  13.263  25.706  0.2625 -0.2407  0.3354
  355BOLB   C3B 8507  17.795  13.372  25.981  0.2401 -0.1542 -0.0473
  355BOLB   C4B 8508  17.964  13.431  26.451 -0.2606 -0.0939 -0.0195
  355BOLB   NC2 8509  17.334  10.605  27.421  0.0732  0.0669 -0.0258
  355BOLB   PO2 8510  17.495  10.871  27.264 -0.0816 -0.2863  0.4388
  355BOLB   GL3 8511  17.669  11.166  26.962  0.1797 -0.0479 -0.1107
  355BOLB   GL4 8512  17.975  11.130  26.804 -0.0599  0.0833 -0.1268
  355BOLB   C1C 8513  17.663  11.393  26.601 -0.2005  0.1222 -0.0504
  355BOLB   C2C 8514  17.626  11.624  26.220 -0.2312 -0.1672  0.1676
  355BOLB   C3C 8515  17.336  11.870  25.908 -0.0892  0.3319  0.0256
  355BOLB   C4C 8516  17.175  12.199  26.116 -0.2241 -0.1247  0.0534
  355BOLB   C1D 8517  18.273  10.862  26.723 -0.0462 -0.3704  0.1540
  355BOLB   C2D 8518  18.280  10.730  26.267 -0.2524 -0.0855  0.0571
  355BOLB   C3D 8519  18.202  10.720  25.825  0.0904 -0.0250 -0.0578
  355BOLB   C4D 8520  18.083  10.962  25.510 -0.1322 -0.3844  0.1308
  356BOLB   NC1 8521  17.644   9.818  21.623  0.1251  0.0034  0.1429
  356BOLB   PO1 8522  17.209   9.885  21.505 -0.2243  0.0053  0.0204
  356BOLB   GL1 8523  17.170   9.565  21.679  0.2407  0.0795 -0.0266
  356BOLB   GL2 8524  17.136   9.615  21.988 -0.1095  0.0110 -0.0182
  356BOLB   C1A 8525  17.356   9.205  21.843  0.0164 -0.0971 -0.0287
  356BOLB   C2A 8526  17.528   9.004  22.214  0.0357  0.0089  0.4054
  356BOLB   C3A 8527  17.676   8.748  22.568  0.3605 -0.0732 -0.6077
  356BOLB   C4A 8528  17.754   8.670  23.030  0.4300  0.0216  0.3619
  356BOLB   C1B 8529  17.489   9.520  22.182  0.0059 -0.1659 -0.1148
  356BOLB   C2B 8530  17.461   9.329  22.541 -0.0369  0.0469 -0.1060
  356BOLB   C3B 8531  17.505   9.146  22.932 -0.0260 -0.1337 -0.0971
  356BOLB   C4B 8532  17.689   9.170  23.307 -0.0904 -0.0926 -0.2157
  356BOLB   NC2 8533  18.931   8.021  25.174  0.3055  0.0969  0.0521
  356BOLB   PO2 8534  18.458   7.930  25.332 -0.1582  0.0220  0.2771
  356BOLB   GL3 8535  18.486   7.915  24.872  0.1992  0.1248  0.3862
  356BOLB   GL4 8536  18.690   8.294  24.825 -0.1373 -0.0155  0.1127
  356BOLB   C1C 8537  18.341   8.039  24.401 -0.3460 -0.0634 -0.0090
  356BOLB   C2C 8538  18.044   8.052  24.072  0.0265 -0.1457  0.1321
  356BOLB   C3C 8539  17.909   8.089  23.746 -0.1682  0.3862 -0.2292
  356BOLB   C4C 8540  17.834   8.398  23.497  0.2804  0.0855 -0.0281
  356BOLB   C1D 8541  18.648   8.722  24.458  0.1478 -0.1891 -0.0820
  356BOLB   C2D 8542  18.349   8.942  24.400 -0.0071  0.0172  0.1125
  356BOLB   C3D 8543  17.906   8.989  24.220 -0.2827  0.2634 -0.1370
  356BOLB   C4D 8544  17.486   9.226  24.172  0.1987  0.2816 -0.1549
  357BOLB   NC1 8545  19.518  15.177  23.935  0.2996 -0.2632  0.1827
  357BOLB   PO1 8546  19.926  14.885  23.836  0.1337 -0.3112  0.1474
  357BOLB   GL1 8547  20.188  14.604  24.092 -0.2323 -0.0100 -0.2031
  357BOLB   GL2 8548  20.066  14.336  23.940  0.0892 -0.1052 -0.0514
  357BOLB   C1A 8549  20.349  14.433  24.378  0.1773  0.0257  0.1280
  357BOLB   C2A 8550  20.395  14.446  24.837 -0.0263  0.1715  0.1774
  357BOLB   C3A 8551  20.533  14.447  25.388  0.2354  0.0303 -0.4588
  357BOLB   C4A 8552  20.786  14.668  25.661  0.3007  0.1072  0.0465
  357BOLB   C1B 8553  20.132  13.999  24.261  0.1721 -0.0053 -0.1453
  357BOLB   C2B 8554  20.245  13.848  24.700  0.0569  0.0763 -0.2546
  357BOLB   C3B 8555  20.338  13.813  25.185  0.1238 -0.1099  0.2057
  357BOLB   C4B 8556  20.238  13.795  25.590  0.1183  0.2379 -0.0517
  357BOLB   NC2 8557  21.075  13.820  27.911  0.1854 -0.2332  0.2224
  357BOLB   PO2 8558  21.235  14.271  28.091 -0.3022  0.3553  0.0487
  357BOLB   GL3 8559  21.214  14.418  27.673 -0.1416 -0.4359 -0.0972
  357BOLB   GL4 8560  21.039  14.675  27.612 -0.1455  0.1903  0.0789
  357BOLB   C1C 8561  21.257  14.434  27.300  0.0358  0.0487  0.2630
  357BOLB   C2C 8562  21.146  14.692  26.915 -0.0749 -0.2768 -0.2162
  357BOLB   C3C 8563  21.182  14.849  26.512  0.1547 -0.1655 -0.1185
  357BOLB   C4C 8564  20.938  14.863  26.130 -0.2993 -0.1167 -0.2091
  357BOLB   C1D 8565  20.695  14.649  27.296 -0.0258 -0.4232  0.1940
  357BOLB   C2D 8566  20.622  14.641  26.839 -0.0546  0.2167  0.4773
  357BOLB   C3D 8567  20.741  14.548  26.421 -0.1924 -0.3063  0.0750
  357BOLB   C4D 8568  20.750  14.270  26.023  0.2883 -0.1593  0.0163
  358BOLB   NC1 8569  19.814  22.738  21.950  0.0043 -0.1843 -0.0192
  358BOLB   PO1 8570  19.707  22.283  21.984  0.0016  0.0486  0.1072
  358BOLB   GL1 8571  19.860  22.454  22.371  0.2603 -0.1065 -0.0881
  358BOLB   GL2 8572  19.810  22.825  22.448 -0.2145 -0.4204  0.1386
  358BOLB   C1A 8573  19.783  22.533  22.800  0.3476 -0.1790 -0.2643
  358BOLB   C2A 8574  19.854  22.702  23.152 -0.1847 -0.1358  0.1975
  358BOLB   C3A 8575  19.790  22.935  23.511 -0.0373  0.0092  0.0704
  358BOLB   C4A 8576  20.083  23.066  23.824  0.1944 -0.1083  0.0682
  358BOLB   C1B 8577  19.723  23.038  22.831 -0.0817  0.0129 -0.1773
  358BOLB   C2B 8578  19.917  23.230  23.171 -0.1669 -0.1412 -0.0242
  358BOLB   C3B 8579  20.204  23.387  23.458  0.1302 -0.1187 -0.2349
  358BOLB   C4B 8580  20.693  23.508  23.445 -0.0352  0.2685  0.0418
  358BOLB   NC2 8581  21.378  24.462  25.637 -0.0572  0.1016 -0.1294
  358BOLB   PO2 8582  20.962  24.205  25.712  0.2724 -0.4433 -0.2050
  358BOLB   GL3 8583  20.938  24.077  25.299  0.0679 -0.0417  0.1295
  358BOLB   GL4 8584  20.957  23.734  25.518  0.1537 -0.1218 -0.0477
  358BOLB   C1C 8585  20.663  24.093  24.855 -0.0099  0.2540  0.0583
  358BOLB   C2C 8586  20.590  24.296  24.432 -0.0263  0.2867  0.1339
  358BOLB   C3C 8587  20.615  23.879  24.133 -0.0135  0.4577 -0.1053
  358BOLB   C4C 8588  20.457  23.450  23.920 -0.0851  0.0596 -0.1507
  358BOLB   C1D 8589  20.676  23.655  25.146  0.1610  0.3269  0.1677
  358BOLB   C2D 8590  20.290  23.724  24.844  0.0252 -0.2015 -0.0518
  358BOLB   C3D 8591  20.327  23.520  24.508 -0.4614  0.1248 -0.1267
  358BOLB   C4D 8592  20.210  23.197  24.298  0.2204 -0.0101  0.1378
  359BOLB   NC1 8593  10.117  19.385  23.491  0.0874  0.2060  0.2439
  359BOLB   PO1 8594  10.159  18.823  23.493  0.2294 -0.1046 -0.0608
  359BOLB   GL1 8595  10.108  18.910  23.940  0.1383  0.1671 -0.0122
  359BOLB   GL2 8596   9.875  18.712  24.017  0.0242  0.0208  0.4659
  359BOLB   C1A 8597  10.107  19.159  24.321 -0.0166  0.2311  0.2053
  359BOLB   C2A 8598   9.773  19.284  24.502 -0.1082  0.3050 -0.1900
  359BOLB   C3A 8599   9.664  18.963  24.899  0.0945 -0.0381 -0.0124
  359BOLB   C4A 8600   9.619  18.741  25.349 -0.2718 -0.4145  0.1131
  359BOLB   C1B 8601   9.768  18.731  24.421  0.3618 -0.0424 -0.0312
  359BOLB   C2B 8602   9.546  18.541  24.791  0.0335  0.1722  0.1968
  359BOLB   C3B 8603   9.360  18.509  25.066  0.0600 -0.1886  0.0460
  359BOLB   C4B 8604   9.355  18.358  25.546  0.1448 -0.0260  0.1625
  359BOLB   NC2 8605   9.730  18.483  27.887 -0.0059 -0.0635 -0.1856
  359BOLB   PO2 8606   9.302  18.340  27.795 -0.3019  0.2113  0.2804
  359BOLB   GL3 8607   9.459  18.387  27.381 -0.0077 -0.0347 -0.3033
  359BOLB   GL4 8608   9.674  18.711  27.476 -0.1120 -0.0528 -0.1128
  359BOLB   C1C 8609   9.335  18.349  26.958 -0.0733  0.0837  0.0703
  359BOLB   C2C 8610   9.335  18.300  26.503 -0.5175 -0.1628 -0.3831
  359BOLB   C3C 8611   9.385  18.673  26.217 -0.0718  0.1520 -0.0376
  359BOLB   C4C 8612   9.564  18.682  25.827  0.0256 -0.1832 -0.0088
  359BOLB   C1D 8613   9.852  18.907  27.148  0.0172 -0.2784  0.0516
  359BOLB   C2D 8614  10.065  18.810  26.784  0.0611 -0.0470  0.1153
  359BOLB   C3D 8615  10.224  18.470  26.566  0.1575 -0.1244 -0.2728
  359BOLB   C4D 8616  10.218  18.037  26.447 -0.0866 -0.1248 -0.2269
  360BOLB   NC1 8617  21.959  24.174  20.664  0.0724 -0.0345  0.0032
  360BOLB   PO1 8618  21.614  24.336  20.543 -0.0990 -0.1727  0.2288
  360BOLB   GL1 8619  21.398  24.501  20.792  0.0794  0.1631 -0.0226
  360BOLB   GL2 8620  20.995  24.524  20.704  0.1959  0.2492 -0.0904
  360BOLB   C1A 8621  21.324  24.752  21.212 -0.3593 -0.2942  0.0470
  360BOLB   C2A 8622  21.146  24.953  21.509  0.0124 -0.1448  0.0320
  360BOLB   C3A 8623  20.772  25.164  21.561  0.2104 -0.0098  0.1152
  360BOLB   C4A 8624  20.468  25.375  21.865  0.3471 -0.4641  0.0782
  360BOLB   C1B 8625  21.047  24.328  21.220  0.1348 -0.1782  0.1439
  360BOLB   C2B 8626  21.179  24.471  21.674 -0.1141  0.2703 -0.3860
  360BOLB   C3B 8627  21.516  24.396  22.001  0.1970  0.1228  0.1081
  360BOLB   C4B 8628  21.638  24.599  22.359 -0.1963  0.0353 -0.1678
  360BOLB   NC2 8629  19.670  27.145  23.682  0.2523  0.2250  0.3490
  360BOLB   PO2 8630  20.087  27.200  23.683  0.0920  0.1599 -0.0765
  360BOLB   GL3 8631  20.060  26.788  23.307 -0.2314  0.1535  0.1300
  360BOLB   GL4 8632  19.718  26.752  23.364  0.1897 -0.1079  0.0449
  360BOLB   C1C 8633  20.186  26.641  22.848  0.2031  0.4014  0.0467
  360BOLB   C2C 8634  20.273  26.420  22.496  0.1681 -0.1239  0.3382
  360BOLB   C3C 8635  20.232  26.196  22.184 -0.0214  0.2398 -0.0228
  360BOLB   C4C 8636  20.333  25.730  22.046  0.6224  0.4357 -0.0155
  360BOLB   C1D 8637  19.409  26.540  23.095  0.2161  0.0601  0.0091
  360BOLB   C2D 8638  19.203  26.370  22.728  0.2341 -0.1155 -0.0783
  360BOLB   C3D 8639  19.179  26.245  22.343 -0.0419 -0.2172 -0.1036
  360BOLB   C4D 8640  19.089  25.897  22.002 -0.0141 -0.2150 -0.2892
  361BOLB   NC1 8641  11.787  17.340  24.610  0.0309 -0.4269 -0.0825
  361BOLB   PO1 8642  11.975  17.018  24.472  0.3102 -0.1876 -0.0183
  361BOLB   GL1 8643  11.978  16.932  24.914 -0.0177  0.0579 -0.2843
  361BOLB   GL2 8644  11.754  17.031  25.052  0.0603 -0.2261  0.2396
  361BOLB   C1A 8645  12.024  16.679  25.288  0.0291  0.0328  0.0517
  361BOLB   C2A 8646  12.019  16.939  25.702  0.0213  0.0421  0.1615
  361BOLB   C3A 8647  12.040  16.731  26.095 -0.0417 -0.3158  0.3844
  361BOLB   C4A 8648  12.083  16.675  26.466  0.2013 -0.0427 -0.2161
  361BOLB   C1B 8649  11.623  17.031  25.422  0.1127 -0.2182  0.0102
  361BOLB   C2B 8650  11.500  17.218  25.805 -0.1938 -0.1002 -0.1845
  361BOLB   C3B 8651  11.242  17.054  26.252 -0.1019  0.1100  0.1254
  361BOLB   C4B 8652  11.124  16.739  26.511 -0.1187  0.1224 -0.1014
  361BOLB   NC2 8653  12.115  16.483  29.184 -0.1081 -0.0452  0.1819
  361BOLB   PO2 8654  12.462  16.630  28.873 -0.2044  0.2945  0.1258
  361BOLB   GL3 8655  12.332  16.537  28.503  0.2936  0.0414  0.2772
  361BOLB   GL4 8656  12.264  16.747  28.415  0.0449 -0.1548  0.1708
  361BOLB   C1C 8657  12.553  16.487  28.090 -0.2443  0.3959 -0.1703
  361BOLB   C2C 8658  12.432  16.538  27.597  0.2186  0.1459  0.0798
  361BOLB   C3C 8659  12.524  16.539  27.160  0.0336 -0.0767  0.1792
  361BOLB   C4C 8660  12.313  16.655  26.787  0.1317 -0.1690 -0.1682
  361BOLB   C1D 8661  12.421  16.963  28.137  0.0851 -0.3236  0.1512
  361BOLB   C2D 8662  12.810  17.269  28.085  0.2633  0.1210  0.3069
  361BOLB   C3D 8663  12.891  17.707  27.923 -0.0921 -0.1697  0.0033
  361BOLB   C4D 8664  12.740  18.064  27.723  0.0355 -0.1145  0.0343
  362BOLB   NC1 8665  19.506  16.163  24.357  0.0175 -0.2033 -0.4973
  362BOLB   PO1 8666  19.119  15.890  24.245 -0.1058  0.0911 -0.0513
  362BOLB   GL1 8667  19.299  15.782  24.685 -0.1579 -0.0329  0.3670
  362BOLB   GL2 8668  19.553  15.544  24.737 -0.0527  0.1179 -0.3121
  362BOLB   C1A 8669  19.205  15.951  25.133  0.2378  0.0802  0.2674
  362BOLB   C2A 8670  19.264  15.790  25.474  0.3112  0.1559 -0.0694
  362BOLB   C3A 8671  19.384  15.779  26.009 -0.1087 -0.0683  0.0380
  362BOLB   C4A 8672  19.304  15.735  26.447  0.2974 -0.2207  0.1795
  362BOLB   C1B 8673  19.641  15.699  25.157  0.0616  0.1347 -0.1334
  362BOLB   C2B 8674  19.658  15.531  25.571  0.3533 -0.2467 -0.0513
  362BOLB   C3B 8675  19.672  15.421  26.029 -0.0807  0.0678 -0.0003
  362BOLB   C4B 8676  19.872  15.237  26.430  0.0140 -0.1372  0.2660
  362BOLB   NC2 8677  19.698  14.438  28.143  0.0767  0.0329 -0.3886
  362BOLB   PO2 8678  19.257  14.407  28.276 -0.1685 -0.2391 -0.0244
  362BOLB   GL3 8679  19.077  14.780  28.076 -0.3438 -0.1970  0.0658
  362BOLB   GL4 8680  18.769  14.806  27.936  0.3327 -0.0697 -0.0413
  362BOLB   C1C 8681  19.190  14.926  27.676  0.1982  0.3583 -0.1114
  362BOLB   C2C 8682  19.082  15.303  27.294 -0.3174  0.2096 -0.1499
  362BOLB   C3C 8683  19.085  15.533  27.001  0.1191  0.1965 -0.1711
  362BOLB   C4C 8684  18.999  15.722  26.693 -0.0536  0.1759 -0.0185
  362BOLB   C1D 8685  18.821  14.494  27.538  0.0535 -0.1465 -0.1752
  362BOLB   C2D 8686  18.665  14.516  27.085 -0.2160  0.1967 -0.3252
  362BOLB   C3D 8687  18.624  14.455  26.693  0.0489  0.0454  0.0436
  362BOLB   C4D 8688  18.788  14.407  26.293  0.0345 -0.2090 -0.1968
  363BOLB   NC1 8689  14.318  12.171  23.521 -0.2437 -0.2253  0.0371
  363BOLB   PO1 8690  14.114  12.085  23.948  0.0453  0.0620  0.0115
  363BOLB   GL1 8691  14.327  11.750  24.208 -0.1789 -0.2259 -0.0163
  363BOLB   GL2 8692  14.651  11.611  24.039  0.1050 -0.1574  0.1576
  363BOLB   C1A 8693  14.454  11.465  24.471 -0.3169  0.0066 -0.3225
  363BOLB   C2A 8694  14.444  11.517  24.922 -0.0790 -0.0791 -0.0788
  363BOLB   C3A 8695  14.520  11.510  25.418 -0.0296  0.5071  0.0417
  363BOLB   C4A 8696  14.417  11.592  25.775 -0.1775 -0.1401  0.1179
  363BOLB   C1B 8697  14.956  11.510  24.339  0.1021  0.2913 -0.0228
  363BOLB   C2B 8698  15.028  11.444  24.742 -0.0773 -0.0176 -0.0746
  363BOLB   C3B 8699  14.884  11.253  25.044 -0.1451  0.0043  0.0825
  363BOLB   C4B 8700  15.082  11.123  25.386  0.0728 -0.3704 -0.1304
  363BOLB   NC2 8701  14.329  11.369  28.022 -0.1871 -0.1268 -0.1537
  363BOLB   PO2 8702  14.809  11.413  28.092  0.1132  0.4276  0.1211
  363BOLB   GL3 8703  14.708  11.334  27.672  0.3472  0.0402 -0.1483
  363BOLB   GL4 8704  15.031  11.475  27.548 -0.0741 -0.1671  0.0337
  363BOLB   C1C 8705  14.680  11.178  27.237 -0.0424 -0.2289 -0.0920
  363BOLB   C2C 8706  14.574  11.462  26.903  0.2269  0.3606 -0.1690
  363BOLB   C3C 8707  14.511  11.509  26.509  0.1407 -0.2791  0.2010
  363BOLB   C4C 8708  14.296  11.532  26.132 -0.1863 -0.1111 -0.3423
  363BOLB   C1D 8709  14.960  11.678  27.207 -0.0899 -0.2614  0.3733
  363BOLB   C2D 8710  14.752  12.012  26.903  0.0085  0.2380  0.2310
  363BOLB   C3D 8711  14.671  12.440  26.793  0.2174  0.3574  0.0744
  363BOLB   C4D 8712  14.497  12.467  26.374 -0.0727 -0.0799 -0.0178
  364BOLB   NC1 8713  19.713  12.823  22.677  0.2719  0.3356  0.1488
  364BOLB   PO1 8714  19.871  12.829  23.064 -0.1137 -0.0041 -0.1595
  364BOLB   GL1 8715  20.063  12.621  23.433 -0.2238  0.0041 -0.3520
  364BOLB   GL2 8716  19.896  12.566  23.700  0.0488 -0.0999 -0.2249
  364BOLB   C1A 8717  20.350  12.260  23.511 -0.0496 -0.0483 -0.0819
  364BOLB   C2A 8718  20.506  12.028  23.854 -0.1884 -0.2637  0.1862
  364BOLB   C3A 8719  20.616  11.652  24.072 -0.1366  0.0269 -0.1062
  364BOLB   C4A 8720  20.620  11.218  24.196  0.1915  0.1585  0.1612
  364BOLB   C1B 8721  19.871  12.272  24.131  0.3243  0.1083 -0.1336
  364BOLB   C2B 8722  19.808  12.038  24.555  0.2431 -0.1148 -0.0281
  364BOLB   C3B 8723  19.806  11.996  24.984  0.3421  0.0310 -0.3538
  364BOLB   C4B 8724  20.031  11.652  25.201 -0.2026  0.0358 -0.1265
  364BOLB   NC2 8725  21.799   8.596  24.790  0.0313  0.3036 -0.0519
  364BOLB   PO2 8726  21.859   9.039  25.068  0.1983 -0.0564  0.1515
  364BOLB   GL3 8727  21.670   9.385  24.818 -0.1808 -0.1266  0.3199
  364BOLB   GL4 8728  21.862   9.239  24.478  0.2972  0.5397 -0.3651
  364BOLB   C1C 8729  21.354   9.699  24.684  0.3004  0.3334  0.0331
  364BOLB   C2C 8730  21.230  10.007  24.526  0.0649 -0.1553  0.0644
  364BOLB   C3C 8731  21.231  10.415  24.342  0.1768 -0.2780 -0.2131
  364BOLB   C4C 8732  20.973  10.896  24.178 -0.3031 -0.1154 -0.1632
  364BOLB   C1D 8733  21.431   9.298  24.332 -0.3379 -0.0900  0.0930
  364BOLB   C2D 8734  21.342   9.140  23.961  0.2506  0.1122 -0.0333
  364BOLB   C3D 8735  21.454   9.344  23.603  0.2879  0.4391  0.1514
  364BOLB   C4D 8736  21.700   9.315  23.210  0.1206  0.3671  0.0283
  365BOLB   NC1 8737  19.770  23.718  20.690  0.1418  0.1920  0.0881
  365BOLB   PO1 8738  19.817  23.765  21.192 -0.1064  0.0976  0.0030
  365BOLB   GL1 8739  19.772  23.846  21.524 -0.3625 -0.1036  0.1605
  365BOLB   GL2 8740  19.750  24.141  21.504  0.0032  0.0389  0.1273
  365BOLB   C1A 8741  19.639  23.812  21.904  0.1483 -0.2856 -0.0491
  365BOLB   C2A 8742  19.697  23.922  22.286  0.2302 -0.1723 -0.0437
  365BOLB   C3A 8743  19.942  24.202  22.403  0.1621  0.2262  0.0351
  365BOLB   C4A 8744  20.081  24.614  22.601 -0.1156 -0.1574 -0.0571
  365BOLB   C1B 8745  19.913  24.224  21.900  0.0125 -0.1362  0.3614
  365BOLB   C2B 8746  20.208  24.558  22.039  0.0630 -0.0485 -0.0029
  365BOLB   C3B 8747  20.203  25.008  22.218  0.2008 -0.3433 -0.1177
  365BOLB   C4B 8748  20.142  25.344  22.513 -0.1005  0.2290 -0.0885
  365BOLB   NC2 8749  21.152  26.170  24.710  0.1401 -0.2175  0.2689
  365BOLB   PO2 8750  20.685  26.117  24.745  0.3379  0.0443  0.0480
  365BOLB   GL3 8751  20.583  25.874  24.418  0.1044  0.0694 -0.0411
  365BOLB   GL4 8752  20.548  25.549  24.438 -0.0667 -0.0834  0.2966
  365BOLB   C1C 8753  20.288  25.705  23.960 -0.1094 -0.1756 -0.1517
  365BOLB   C2C 8754  20.250  25.472  23.599 -0.1783 -0.1040  0.1333
  365BOLB   C3C 8755  20.167  25.161  23.291 -0.0285  0.0936 -0.2098
  365BOLB   C4C 8756  20.038  25.022  22.893 -0.1071 -0.2957 -0.1758
  365BOLB   C1D 8757  20.088  25.397  24.392 -0.4647 -0.2336  0.1440
  365BOLB   C2D 8758  20.151  25.166  23.951  0.2677  0.0739 -0.2013
  365BOLB   C3D 8759  20.048  24.708  23.674  0.2089  0.0126 -0.1379
  365BOLB   C4D 8760  19.801  24.403  23.787 -0.0160 -0.1408  0.1511
  366BOLB   NC1 8761   7.877  14.600  22.502  0.0695  0.0135 -0.1866
  366BOLB   PO1 8762   7.964  15.081  22.746  0.1744 -0.2698  0.3208
  366BOLB   GL1 8763   7.790  15.324  23.008  0.1041  0.0828 -0.2991
  366BOLB   GL2 8764   7.758  15.587  22.655 -0.2232  0.2670  0.1114
  366BOLB   C1A 8765   7.626  15.285  23.344 -0.0745 -0.2341  0.1580
  366BOLB   C2A 8766   7.329  15.159  23.708  0.2271  0.1896  0.0525
  366BOLB   C3A 8767   7.044  15.323  24.038 -0.1892  0.4127  0.2576
  366BOLB   C4A 8768   7.091  15.566  24.330  0.2007  0.2305 -0.2042
  366BOLB   C1B 8769   7.411  15.614  23.002  0.0829  0.1759 -0.2800
  366BOLB   C2B 8770   7.227  15.622  23.448  0.0766 -0.4363  0.1681
  366BOLB   C3B 8771   7.028  15.652  23.635 -0.0020 -0.0876  0.2849
  366BOLB   C4B 8772   6.724  15.826  23.872  0.1477  0.2410  0.0535
  366BOLB   NC2 8773   5.523  17.020  25.750  0.1154 -0.2876 -0.3176
  366BOLB   PO2 8774   5.433  16.612  25.974  0.3254  0.0467  0.0854
  366BOLB   GL3 8775   5.786  16.458  25.682  0.3493  0.4233 -0.0408
  366BOLB   GL4 8776   5.908  16.175  25.629 -0.2815  0.1533 -0.2248
  366BOLB   C1C 8777   6.109  16.558  25.451 -0.1468  0.2077  0.0463
  366BOLB   C2C 8778   6.458  16.343  25.167 -0.0028 -0.2709  0.2029
  366BOLB   C3C 8779   6.607  16.148  24.800  0.0285  0.2361 -0.1862
  366BOLB   C4C 8780   6.941  15.890  24.674  0.1886  0.1980  0.2908
  366BOLB   C1D 8781   6.196  16.026  25.409 -0.1904 -0.0741  0.0670
  366BOLB   C2D 8782   6.400  15.796  25.111 -0.1599  0.2916 -0.0760
  366BOLB   C3D 8783   6.795  15.900  25.264 -0.1116  0.0340  0.1067
  366BOLB   C4D 8784   7.079  16.282  25.351  0.2130 -0.0398 -0.1045
  367BOLB   NC1 8785  18.508  22.702  21.717 -0.3101 -0.1050  0.1365
  367BOLB   PO1 8786  18.270  22.979  21.986  0.1651 -0.3127 -0.2950
  367BOLB   GL1 8787  18.406  22.871  22.390 -0.1032  0.1699  0.1065
  367BOLB   GL2 8788  18.162  22.903  22.698 -0.1219  0.0239 -0.0303
  367BOLB   C1A 8789  18.714  22.991  22.735  0.1509 -0.0846  0.2843
  367BOLB   C2A 8790  18.661  23.147  23.089 -0.1227 -0.0895  0.0524
  367BOLB   C3A 8791  18.383  23.191  23.365  0.1017 -0.3145 -0.0204
  367BOLB   C4A 8792  18.428  23.423  23.820 -0.3337 -0.0008  0.6425
  367BOLB   C1B 8793  18.206  23.303  22.813 -0.1172  0.1972 -0.2049
  367BOLB   C2B 8794  18.380  23.649  23.100 -0.0815 -0.0033 -0.1722
  367BOLB   C3B 8795  18.267  23.682  23.450 -0.0759  0.0305  0.0790
  367BOLB   C4B 8796  17.964  23.579  23.735 -0.3449 -0.1187  0.4136
  367BOLB   NC2 8797  18.813  25.173  25.939 -0.1070  0.2355 -0.0855
  367BOLB   PO2 8798  18.897  24.763  25.576  0.2865  0.1949 -0.0521
  367BOLB   GL3 8799  19.061  24.510  25.341  0.0213  0.1316 -0.1641
  367BOLB   GL4 8800  19.302  24.698  25.204 -0.0035  0.0639 -0.3430
  367BOLB   C1C 8801  18.977  24.185  25.073 -0.1286 -0.3044  0.0372
  367BOLB   C2C 8802  18.993  23.965  24.752  0.1035  0.0431  0.2646
  367BOLB   C3C 8803  18.836  23.687  24.438 -0.0516  0.1268 -0.0416
  367BOLB   C4C 8804  18.690  23.370  24.096  0.2317 -0.0776  0.2120
  367BOLB   C1D 8805  19.157  24.697  24.775  0.0608  0.2324  0.1481
  367BOLB   C2D 8806  18.973  24.582  24.362  0.1082 -0.2931 -0.0694
  367BOLB   C3D 8807  18.943  24.548  23.950 -0.3793  0.1103  0.0392
  367BOLB   C4D 8808  18.920  24.594  23.420  0.2667 -0.1799 -0.0137
  368BOLB   NC1 8809  11.985  21.111  23.536  0.1406 -0.1015 -0.3431
  368BOLB   PO1 8810  12.023  20.673  23.552 -0.0614 -0.0090 -0.4540
  368BOLB   GL1 8811  12.218  20.561  23.985  0.0865  0.3253  0.1588
  368BOLB   GL2 8812  12.556  20.551  24.022  0.0146  0.0472  0.0831
  368BOLB   C1A 8813  12.217  20.583  24.340  0.1243  0.3183  0.2706
  368BOLB   C2A 8814  12.094  20.244  24.692  0.1402  0.1980  0.0246
  368BOLB   C3A 8815  11.999  20.333  25.174 -0.2820 -0.1991  0.4042
  368BOLB   C4A 8816  11.885  20.427  25.542  0.0784  0.4589 -0.4948
  368BOLB   C1B 8817  12.497  20.977  24.381  0.1196  0.1721  0.0068
  368BOLB   C2B 8818  12.537  21.097  24.746 -0.1366  0.0137  0.1376
  368BOLB   C3B 8819  12.273  21.243  25.028 -0.0462 -0.2515 -0.1045
  368BOLB   C4B 8820  11.877  21.323  25.016 -0.0804 -0.2003 -0.0884
  368BOLB   NC2 8821  12.130  20.426  27.878  0.1401  0.4376 -0.1624
  368BOLB   PO2 8822  11.675  20.423  27.859  0.1030  0.0960  0.2172
  368BOLB   GL3 8823  11.396  20.316  27.535 -0.2156 -0.0563  0.1168
  368BOLB   GL4 8824  11.440  19.993  27.425  0.2164 -0.2119  0.2761
  368BOLB   C1C 8825  11.595  20.441  27.098 -0.0831  0.1888  0.4854
  368BOLB   C2C 8826  11.595  20.654  26.675 -0.3080  0.1117 -0.0900
  368BOLB   C3C 8827  11.708  20.659  26.232 -0.3595  0.1461  0.0727
  368BOLB   C4C 8828  11.909  20.703  25.902 -0.0568 -0.1233 -0.0855
  368BOLB   C1D 8829  11.141  20.227  27.061 -0.0958 -0.2494 -0.1831
  368BOLB   C2D 8830  11.317  20.247  26.620  0.0787 -0.3658  0.0832
  368BOLB   C3D 8831  11.353  20.148  26.203  0.1208 -0.2173  0.2408
  368BOLB   C4D 8832  11.557  20.254  25.857 -0.0171 -0.0675  0.1291
  369BOLB   NC1 8833  17.317  18.479  23.828 -0.1965  0.0891  0.1878
  369BOLB   PO1 8834  16.951  18.850  23.774  0.2596  0.2401 -0.0284
  369BOLB   GL1 8835  17.077  19.141  24.185  0.0797 -0.1631  0.2386
  369BOLB   GL2 8836  17.077  18.936  24.436 -0.0783 -0.2309 -0.0952
  369BOLB   C1A 8837  17.359  19.441  24.349  0.3435  0.2507  0.1155
  369BOLB   C2A 8838  17.376  19.676  24.667 -0.3922 -0.1412  0.0749
  369BOLB   C3A 8839  17.510  19.894  25.040  0.2265 -0.4587 -0.0006
  369BOLB   C4A 8840  17.434  19.910  25.474  0.2400 -0.1336  0.0468
  369BOLB   C1B 8841  17.012  19.190  24.855  0.2712 -0.0517  0.4103
  369BOLB   C2B 8842  16.756  19.379  25.205 -0.1148 -0.0005  0.1707
  369BOLB   C3B 8843  16.896  19.490  25.570 -0.0800 -0.0033 -0.2219
  369BOLB   C4B 8844  16.923  19.602  25.994 -0.0648  0.1595 -0.1494
  369BOLB   NC2 8845  17.562  21.373  27.862 -0.2305 -0.0888  0.2848
  369BOLB   PO2 8846  17.772  21.004  27.699 -0.1541 -0.0586 -0.0760
  369BOLB   GL3 8847  17.583  21.017  27.341 -0.0505  0.0659 -0.0557
  369BOLB   GL4 8848  17.399  21.245  27.300 -0.0631  0.0917  0.2126
  369BOLB   C1C 8849  17.675  20.798  26.930  0.0941 -0.1081  0.0494
  369BOLB   C2C 8850  17.450  20.508  26.768  0.1856 -0.1457  0.4122
  369BOLB   C3C 8851  17.529  20.358  26.246  0.0524 -0.1738  0.1608
  369BOLB   C4C 8852  17.374  20.092  25.821 -0.2797 -0.0171 -0.3266
  369BOLB   C1D 8853  17.488  21.269  26.879 -0.2808  0.3977  0.1327
  369BOLB   C2D 8854  17.600  21.507  26.447  0.2064  0.0632  0.1620
  369BOLB   C3D 8855  17.526  21.736  26.128  0.1790  0.1206 -0.0761
  369BOLB   C4D 8856  17.604  22.025  25.720  0.1040  0.2282 -0.2318
  370BOLB   NC1 8857  11.027  11.853  23.299 -0.0279  0.1967  0.2128
  370BOLB   PO1 8858  10.757  11.940  23.619 -0.2250 -0.0712 -0.2112
  370BOLB   GL1 8859  10.590  12.050  23.975  0.3836 -0.0886 -0.0492
  370BOLB   GL2 8860  10.522  12.314  24.119  0.0510 -0.5781 -0.4269
  370BOLB   C1A 8861  10.688  11.882  24.477  0.3603  0.0096  0.1946
  370BOLB   C2A 8862  10.640  12.010  24.861 -0.3735  0.1085  0.0009
  370BOLB   C3A 8863  10.672  11.755  25.200  0.2929 -0.0926  0.3470
  370BOLB   C4A 8864  10.638  11.518  25.625  0.1308  0.1935  0.2510
  370BOLB   C1B 8865  10.609  12.427  24.554 -0.2190  0.1919  0.2069
  370BOLB   C2B 8866  10.679  12.578  25.029 -0.0160 -0.0287 -0.1997
  370BOLB   C3B 8867  10.711  12.591  25.538  0.0978 -0.2176  0.0087
  370BOLB   C4B 8868  10.513  12.503  25.843  0.1906  0.1690  0.0763
  370BOLB   NC2 8869   9.401  11.197  28.078 -0.1096 -0.2845  0.1518
  370BOLB   PO2 8870   9.457  10.983  27.687  0.0549  0.0268  0.0855
  370BOLB   GL3 8871   9.834  11.036  27.414 -0.1040 -0.1620  0.1415
  370BOLB   GL4 8872   9.712  11.167  27.281  0.1469 -0.1633 -0.0723
  370BOLB   C1C 8873   9.929  10.937  26.883 -0.0279 -0.1316 -0.0142
  370BOLB   C2C 8874  10.165  11.036  26.545  0.0056 -0.1376 -0.1043
  370BOLB   C3C 8875  10.319  11.269  26.265 -0.0268 -0.0630 -0.2451
  370BOLB   C4C 8876  10.533  11.553  26.097  0.0611  0.2885 -0.0038
  370BOLB   C1D 8877   9.827  11.572  27.042 -0.0457  0.1145 -0.1983
  370BOLB   C2D 8878   9.985  11.565  26.632 -0.1870  0.3426 -0.0323
  370BOLB   C3D 8879  10.103  11.886  26.289  0.0533 -0.2683 -0.0144
  370BOLB   C4D 8880  10.051  12.356  26.186  0.1422  0.0821 -0.2341
  371BOLB   NC1 8881  15.979  14.041  23.960 -0.1181  0.2137  0.0815
  371BOLB   PO1 8882  15.851  13.780  24.297 -0.5126  0.2246 -0.0801
  371BOLB   GL1 8883  15.835  13.500  24.602 -0.3512  0.3467 -0.1011
  371BOLB   GL2 8884  16.199  13.445  24.644  0.0936  0.1017  0.0148
  371BOLB   C1A 8885  15.767  13.390  25.065 -0.0547 -0.1035 -0.1760
  371BOLB   C2A 8886  15.643  12.941  25.365  0.5826 -0.0186  0.0991
  371BOLB   C3A 8887  15.675  12.849  25.846  0.0560  0.0243 -0.0167
  371BOLB   C4A 8888  15.396  12.521  26.019  0.5625  0.3275  0.1927
  371BOLB   C1B 8889  16.418  13.251  24.932 -0.0081 -0.2903  0.0943
  371BOLB   C2B 8890  16.672  13.055  25.038 -0.0664  0.0356 -0.1526
  371BOLB   C3B 8891  16.703  12.759  25.259  0.1083  0.1587  0.2428
  371BOLB   C4B 8892  16.891  12.457  25.675 -0.0423 -0.0982 -0.0014
  371BOLB   NC2 8893  16.075  11.189  27.763 -0.0755 -0.0133  0.1216
  371BOLB   PO2 8894  15.706  11.294  27.994  0.0976  0.0409  0.1032
  371BOLB   GL3 8895  15.752  11.687  27.736 -0.3706  0.1134  0.2005
  371BOLB   GL4 8896  16.005  11.940  27.683  0.1451 -0.0671 -0.3389
  371BOLB   C1C 8897  15.517  11.696  27.266 -0.0406 -0.0051 -0.0993
  371BOLB   C2C 8898  15.471  11.876  26.957  0.3240  0.0725 -0.0886
  371BOLB   C3C 8899  15.170  12.099  26.707 -0.1807 -0.1713 -0.0055
  371BOLB   C4C 8900  15.253  12.300  26.309  0.0886  0.0910 -0.4690
  371BOLB   C1D 8901  16.029  11.916  27.215  0.0627  0.0558  0.2731
  371BOLB   C2D 8902  15.964  11.843  26.805 -0.1395 -0.0744  0.1907
  371BOLB   C3D 8903  16.154  12.050  26.447 -0.1094 -0.1934  0.0231
  371BOLB   C4D 8904  16.227  12.036  26.164  0.0618  0.1780  0.0424
  372BOLB   NC1 8905  16.200  15.968  25.069 -0.1657  0.0102 -0.2892
  372BOLB   PO1 8906  16.560  15.790  25.041 -0.0682  0.3963 -0.0535
  372BOLB   GL1 8907  16.624  15.517  25.387 -0.1880 -0.2061 -0.4809
  372BOLB   GL2 8908  16.890  15.222  25.424 -0.1049 -0.1088  0.1825
  372BOLB   C1A 8909  16.382  15.343  25.801 -0.4084 -0.3050  0.0445
  372BOLB   C2A 8910  16.207  14.964  25.976 -0.0353 -0.0664  0.0710
  372BOLB   C3A 8911  16.109  14.738  26.346  0.1340 -0.4018  0.0891
  372BOLB   C4A 8912  16.377  14.564  26.683  0.3626  0.1152  0.0376
  372BOLB   C1B 8913  16.954  15.100  25.858  0.3307  0.2985 -0.0828
  372BOLB   C2B 8914  17.118  15.013  26.223 -0.0918 -0.0401 -0.2390
  372BOLB   C3B 8915  17.307  14.940  26.640 -0.1212 -0.2220  0.0319
  372BOLB   C4B 8916  17.582  15.173  26.966  0.0109 -0.1441  0.2026
  372BOLB   NC2 8917  15.922  13.631  29.168 -0.1117 -0.3438  0.0878
  372BOLB   PO2 8918  16.018  13.638  28.741 -0.2874 -0.1685 -0.0553
  372BOLB   GL3 8919  15.823  13.889  28.442  0.1520 -0.4173 -0.1383
  372BOLB   GL4 8920  16.067  14.052  28.430 -0.0933  0.0347 -0.1841
  372BOLB   C1C 8921  15.746  13.969  28.015  0.0063  0.1023 -0.1712
  372BOLB   C2C 8922  15.867  14.217  27.567  0.2716  0.3158 -0.2455
  372BOLB   C3C 8923  15.938  14.129  27.251 -0.2338 -0.0740  0.1177
  372BOLB   C4C 8924  16.209  14.217  26.892  0.4118  0.1449  0.0688
  372BOLB   C1D 8925  16.105  14.337  28.061 -0.1209 -0.3672 -0.0517
  372BOLB   C2D 8926  16.281  14.431  27.664  0.0762  0.1234  0.2583
  372BOLB   C3D 8927  16.464  14.584  27.320 -0.0486  0.0956 -0.1136
  372BOLB   C4D 8928  16.903  14.628  27.330 -0.1366  0.2420  0.0041
  373BOLB   NC1 8929  15.334  23.883  20.773 -0.3086 -0.3118 -0.1943
  373BOLB   PO1 8930  15.419  24.378  20.894 -0.2597 -0.1823  0.0055
  373BOLB   GL1 8931  15.471  24.751  21.150  0.2175 -0.2326 -0.0689
  373BOLB   GL2 8932  15.549  24.950  20.852  0.2433 -0.2611 -0.2882
  373BOLB   C1A 8933  15.890  25.191  21.184  0.1490 -0.0807 -0.0681
  373BOLB   C2A 8934  16.121  25.405  21.451  0.0379  0.1142 -0.2037
  373BOLB   C3A 8935  16.308  25.831  21.737 -0.1416  0.0632 -0.0249
  373BOLB   C4A 8936  16.626  26.049  21.828 -0.1135  0.2979  0.0347
  373BOLB   C1B 8937  15.421  25.284  21.114 -0.3785 -0.1887  0.0376
  373BOLB   C2B 8938  15.526  25.582  21.394  0.1451  0.2443  0.0250
  373BOLB   C3B 8939  15.641  25.919  21.602  0.0170  0.0826  0.0848
  373BOLB   C4B 8940  15.661  26.408  21.748  0.2093  0.1050 -0.1062
  373BOLB   NC2 8941  17.901  27.688  23.033 -0.2473 -0.0236 -0.1421
  373BOLB   PO2 8942  17.966  27.876  22.709 -0.3580 -0.2272  0.2705
  373BOLB   GL3 8943  18.022  27.453  22.609  0.0826  0.0669 -0.0657
  373BOLB   GL4 8944  18.032  27.191  22.879  0.1376 -0.0029 -0.1956
  373BOLB   C1C 8945  17.758  27.168  22.498  0.1469 -0.2315 -0.1258
  373BOLB   C2C 8946  17.726  26.822  22.263 -0.3333 -0.2450  0.2751
  373BOLB   C3C 8947  17.327  26.648  22.198  0.0530  0.1029  0.0695
  373BOLB   C4C 8948  16.977  26.420  21.926  0.1654 -0.0390  0.0147
  373BOLB   C1D 8949  18.197  26.849  22.673  0.1034  0.0382 -0.0843
  373BOLB   C2D 8950  18.417  26.482  22.679  0.2079 -0.0100 -0.1429
  373BOLB   C3D 8951  18.248  26.146  22.908  0.0958 -0.0156  0.0113
  373BOLB   C4D 8952  18.514  25.825  23.232 -0.1804 -0.1426  0.2496
  374BOLB   NC1 8953  12.182   7.608  23.145 -0.1259  0.0521  0.0820
  374BOLB   PO1 8954  12.021   8.094  23.162 -0.2231 -0.0737  0.2882
  374BOLB   GL1 8955  11.910   8.343  23.398 -0.3484 -0.2210  0.1092
  374BOLB   GL2 8956  11.746   8.623  23.260  0.0324  0.1544  0.0127
  374BOLB   C1A 8957  11.903   8.660  23.778 -0.2185 -0.0021  0.1987
  374BOLB   C2A 8958  12.067   8.914  24.052  0.0254  0.0025 -0.0812
  374BOLB   C3A 8959  12.335   8.926  24.461 -0.1199 -0.1703  0.3167
  374BOLB   C4A 8960  12.596   8.664  24.696  0.2551  0.0664 -0.3183
  374BOLB   C1B 8961  12.114   8.749  23.312 -0.0158  0.2855 -0.0862
  374BOLB   C2B 8962  12.458   8.484  23.560 -0.0542  0.1247 -0.0809
  374BOLB   C3B 8963  12.436   8.584  23.936 -0.2421  0.0234 -0.1631
  374BOLB   C4B 8964  12.709   8.578  24.237 -0.1250  0.0560 -0.1041
  374BOLB   NC2 8965  12.967   7.662  26.813  0.0537 -0.1931  0.0526
  374BOLB   PO2 8966  13.341   7.924  26.902 -0.1564 -0.2812  0.2488
  374BOLB   GL3 8967  13.451   8.291  26.638 -0.0987 -0.0168  0.2218
  374BOLB   GL4 8968  13.226   8.507  26.690  0.2110  0.0059 -0.2521
  374BOLB   C1C 8969  13.424   8.465  26.218  0.2645  0.1434  0.3069
  374BOLB   C2C 8970  13.355   8.492  25.740 -0.2002  0.1075 -0.1417
  374BOLB   C3C 8971  13.054   8.552  25.438 -0.1082 -0.2260 -0.0210
  374BOLB   C4C 8972  12.819   8.453  25.145  0.1268 -0.1780  0.2168
  374BOLB   C1D 8973  13.156   8.817  26.395 -0.1118  0.2336  0.2235
  374BOLB   C2D 8974  13.190   8.947  25.980  0.0458 -0.0511 -0.0378
  374BOLB   C3D 8975  13.243   9.049  25.579 -0.0306  0.0814  0.3276
  374BOLB   C4D 8976  13.160   9.416  25.224  0.4851  0.0148  0.2968
  375BOLB   NC1 8977  21.134  22.791  21.029 -0.2058 -0.0094  0.3621
  375BOLB   PO1 8978  21.456  23.101  21.332  0.1973 -0.1134 -0.2222
  375BOLB   GL1 8979  21.559  23.218  21.704 -0.2600 -0.1069 -0.2074
  375BOLB   GL2 8980  21.238  23.164  21.804 -0.1961  0.1393 -0.4116
  375BOLB   C1A 8981  21.596  23.349  22.186  0.3353  0.1879  0.2708
  375BOLB   C2A 8982  22.033  23.201  22.324  0.1092  0.1062  0.2137
  375BOLB   C3A 8983  22.338  23.412  22.572 -0.1233 -0.2335 -0.3174
  375BOLB   C4A 8984  22.155  23.665  22.889  0.0100 -0.0592  0.2421
  375BOLB   C1B 8985  21.138  23.577  22.010  0.0885  0.1602  0.2874
  375BOLB   C2B 8986  21.155  24.017  22.171 -0.2775  0.1992  0.0333
  375BOLB   C3B 8987  21.262  24.300  22.514  0.1831  0.0084  0.3630
  375BOLB   C4B 8988  21.472  24.604  22.813  0.1171  0.0292  0.0219
  375BOLB   NC2 8989  23.469  23.692  24.908  0.0395  0.0864 -0.1222
  375BOLB   PO2 8990  23.471  23.999  24.756 -0.1611 -0.1894  0.0241
  375BOLB   GL3 8991  23.091  24.009  24.558 -0.1489  0.0454 -0.1924
  375BOLB   GL4 8992  23.194  23.756  24.404  0.1711 -0.1655  0.0264
  375BOLB   C1C 8993  22.702  24.207  24.331 -0.1973 -0.2390 -0.3604
  375BOLB   C2C 8994  22.421  24.196  24.000  0.0175  0.0671  0.0746
  375BOLB   C3C 8995  22.362  23.897  23.637 -0.2171 -0.0084  0.0008
  375BOLB   C4C 8996  22.104  23.874  23.242 -0.1946 -0.2556  0.0593
  375BOLB   C1D 8997  22.901  23.768  24.101 -0.1505 -0.2426  0.0137
  375BOLB   C2D 8998  22.844  23.676  23.659 -0.1325 -0.1967 -0.0666
  375BOLB   C3D 8999  23.145  23.774  23.272 -0.2633 -0.2108  0.1302
  375BOLB   C4D 9000  23.169  23.945  22.770 -0.1560  0.2295  0.2561
  376BOLB   NC1 9001  11.386  25.047  20.392  0.0306 -0.3178  0.0052
  376BOLB   PO1 9002  11.176  24.867  20.717  0.0316 -0.0023 -0.0440
  376BOLB   GL1 9003  11.110  25.327  20.721  0.0888  0.0265 -0.2731
  376BOLB   GL2 9004  10.856  25.377  21.000  0.0845  0.3018  0.2267
  376BOLB   C1A 9005  11.452  25.529  20.935 -0.1948  0.0192 -0.2398
  376BOLB   C2A 9006  11.546  25.973  21.153 -0.3546 -0.0951  0.1186
  376BOLB   C3A 9007  11.779  26.248  21.398 -0.2432  0.1949  0.0099
  376BOLB   C4A 9008  12.064  26.539  21.400 -0.1378  0.0549 -0.1500
  376BOLB   C1B 9009  10.721  25.409  21.482  0.0328 -0.1014  0.0266
  376BOLB   C2B 9010  10.165  25.485  21.685 -0.1806  0.2165 -0.1225
  376BOLB   C3B 9011   9.846  25.306  21.993  0.1181  0.0473  0.2573
  376BOLB   C4B 9012   9.590  25.111  22.212 -0.0554 -0.0779  0.1148
  376BOLB   NC2 9013  12.378  28.677  22.482  0.0381  0.1949  0.2435
  376BOLB   PO2 9014  12.422  28.231  22.647 -0.0132 -0.0639  0.1083
  376BOLB   GL3 9015  12.729  27.913  22.556  0.3228  0.0932 -0.0583
  376BOLB   GL4 9016  12.632  27.905  22.212 -0.3458 -0.2215 -0.0257
  376BOLB   C1C 9017  12.700  27.468  22.374 -0.0083  0.0814  0.0222
  376BOLB   C2C 9018  12.712  27.171  22.193  0.2299 -0.1256  0.0764
  376BOLB   C3C 9019  12.779  26.911  21.750  0.2491 -0.0363  0.3041
  376BOLB   C4C 9020  12.482  26.497  21.668 -0.2688  0.0680  0.0060
  376BOLB   C1D 9021  12.735  27.935  21.772 -0.1284 -0.0329  0.0842
  376BOLB   C2D 9022  12.727  27.970  21.268  0.1637  0.0873  0.2384
  376BOLB   C3D 9023  12.523  27.600  21.009 -0.1728  0.0446  0.0659
  376BOLB   C4D 9024  12.265  27.398  20.697  0.2568 -0.1979 -0.1521
  377BOLB   NC1 9025  19.476  22.897  21.217  0.0004 -0.1818  0.0809
  377BOLB   PO1 9026  19.764  23.010  21.454 -0.1309  0.2917 -0.0853
  377BOLB   GL1 9027  19.756  23.325  21.787  0.1742  0.1784 -0.1461
  377BOLB   GL2 9028  19.830  23.212  22.125 -0.1463  0.1024  0.0547
  377BOLB   C1A 9029  20.082  23.638  22.086  0.0806  0.1272  0.1118
  377BOLB   C2A 9030  20.215  23.812  22.425  0.1413  0.1033 -0.2269
  377BOLB   C3A 9031  20.331  23.975  22.761 -0.0401  0.0052 -0.1642
  377BOLB   C4A 9032  20.644  23.959  23.060  0.0866 -0.0586  0.1029
  377BOLB   C1B 9033  19.589  23.324  22.472  0.2004 -0.0302 -0.0124
  377BOLB   C2B 9034  19.545  23.498  22.793  0.1433  0.1731 -0.2095
  377BOLB   C3B 9035  19.533  23.731  23.174  0.3270  0.1219 -0.2210
  377BOLB   C4B 9036  19.600  24.006  23.409  0.0928  0.0665  0.2414
  377BOLB   NC2 9037  21.082  25.301  25.663  0.0895 -0.1194 -0.3156
  377BOLB   PO2 9038  21.112  25.282  25.186  0.0603 -0.1904 -0.1411
  377BOLB   GL3 9039  21.162  24.936  24.911  0.4346  0.0428 -0.1483
  377BOLB   GL4 9040  21.436  24.739  24.941  0.1589  0.3935  0.2786
  377BOLB   C1C 9041  20.999  24.716  24.555  0.2089  0.1679 -0.1117
  377BOLB   C2C 9042  21.079  24.472  24.149 -0.3631 -0.0495  0.0246
  377BOLB   C3C 9043  20.987  24.427  23.737  0.1205 -0.0111 -0.1064
  377BOLB   C4C 9044  20.838  24.181  23.421  0.2822  0.1607 -0.2541
  377BOLB   C1D 9045  21.210  24.310  24.812  0.0547  0.1020  0.3237
  377BOLB   C2D 9046  21.053  23.998  24.468 -0.3629  0.2010  0.3094
  377BOLB   C3D 9047  21.163  23.931  24.040  0.3974  0.0459 -0.1737
  377BOLB   C4D 9048  21.407  23.583  23.930  0.2502 -0.0389 -0.0641
  378BOLB   NC1 9049  15.779  13.005  23.881  0.3631 -0.1788 -0.0919
  378BOLB   PO1 9050  16.156  13.200  24.209  0.1539  0.0429 -0.0842
  378BOLB   GL1 9051  16.053  12.970  24.609  0.1631 -0.1707  0.0150
  378BOLB   GL2 9052  16.015  12.722  24.517  0.2367 -0.0151  0.0954
  378BOLB   C1A 9053  16.079  12.982  25.115 -0.1690 -0.0943  0.1439
  378BOLB   C2A 9054  16.163  12.833  25.421 -0.3463  0.1103 -0.1288
  378BOLB   C3A 9055  16.273  12.727  25.882  0.0574  0.1866 -0.1925
  378BOLB   C4A 9056  16.523  12.376  25.944  0.3296  0.0218 -0.0113
  378BOLB   C1B 9057  16.341  12.481  24.701 -0.3739  0.1338 -0.3685
  378BOLB   C2B 9058  16.334  12.448  25.108 -0.2208  0.1551  0.2431
  378BOLB   C3B 9059  16.564  12.227  25.386  0.0748 -0.4302  0.1537
  378BOLB   C4B 9060  16.282  11.910  25.543 -0.1889  0.2102 -0.2732
  378BOLB   NC2 9061  15.868  12.807  28.329 -0.0943 -0.0354  0.1366
  378BOLB   PO2 9062  16.009  12.414  28.141 -0.0177  0.3200 -0.0197
  378BOLB   GL3 9063  15.883  12.470  27.761 -0.1249 -0.3359 -0.2088
  378BOLB   GL4 9064  15.615  12.622  27.928  0.0668  0.0443 -0.0538
  378BOLB   C1C 9065  16.103  12.439  27.360 -0.3085 -0.1626  0.0846
  378BOLB   C2C 9066  16.190  12.269  26.896 -0.2339  0.2306 -0.1903
  378BOLB   C3C 9067  16.575  12.191  26.631 -0.0154  0.0482  0.2069
  378BOLB   C4C 9068  16.717  12.230  26.250  0.0492 -0.0828 -0.2484
  378BOLB   C1D 9069  15.635  13.021  27.789  0.0684  0.1971  0.1205
  378BOLB   C2D 9070  15.416  13.187  27.399  0.0918  0.0715  0.4131
  378BOLB   C3D 9071  15.339  13.201  26.959  0.2344  0.1873 -0.0070
  378BOLB   C4D 9072  15.332  13.316  26.603  0.1590  0.0691  0.2827
  379BOLB   NC1 9073  12.868  17.953  24.046  0.0530 -0.2709  0.0802
  379BOLB   PO1 9074  12.438  17.851  24.172  0.0749  0.1511  0.3270
  379BOLB   GL1 9075  12.361  17.822  24.727 -0.0582 -0.1399 -0.5764
  379BOLB   GL2 9076  12.152  18.027  24.770  0.0666  0.2463 -0.1062
  379BOLB   C1A 9077  12.388  17.847  25.137 -0.0349 -0.2488  0.2060
  379BOLB   C2A 9078  12.375  17.769  25.564 -0.2218 -0.2385 -0.2811
  379BOLB   C3A 9079  12.365  17.626  25.975  0.0291  0.0530 -0.0795
  379BOLB   C4A 9080  12.457  17.801  26.322 -0.1097  0.0239 -0.3885
  379BOLB   C1B 9081  11.730  18.091  24.876 -0.2415 -0.0992 -0.1399
  379BOLB   C2B 9082  11.363  17.965  25.189 -0.1380 -0.0974 -0.1470
  379BOLB   C3B 9083  11.302  18.046  25.586  0.0520 -0.2564  0.0567
  379BOLB   C4B 9084  11.116  18.191  26.031  0.2967  0.1842 -0.1347
  379BOLB   NC2 9085  11.236  17.184  29.334  0.0516  0.1579  0.2340
  379BOLB   PO2 9086  11.542  17.374  28.939  0.2521  0.1173 -0.2282
  379BOLB   GL3 9087  11.674  17.209  28.557  0.0606  0.0821  0.2731
  379BOLB   GL4 9088  11.374  17.003  28.384 -0.2916 -0.0994  0.0206
  379BOLB   C1C 9089  11.860  17.190  28.104  0.2475 -0.0244 -0.0198
  379BOLB   C2C 9090  11.893  17.514  27.723 -0.2033 -0.2259 -0.0434
  379BOLB   C3C 9091  12.202  17.444  27.301  0.2547 -0.0295  0.0633
  379BOLB   C4C 9092  12.301  17.695  26.845 -0.3222  0.2265 -0.0347
  379BOLB   C1D 9093  11.600  16.856  27.856 -0.0089  0.2816  0.1199
  379BOLB   C2D 9094  11.770  17.026  27.548  0.0227 -0.2625  0.2225
  379BOLB   C3D 9095  11.643  17.372  27.303 -0.2216 -0.0049 -0.1434
  379BOLB   C4D 9096  11.732  17.587  26.934 -0.1341  0.4169  0.1140
  380BOLB   NC1 9097  22.670  22.374  20.786  0.0323  0.2618 -0.3510
  380BOLB   PO1 9098  22.588  22.756  21.121 -0.0766 -0.1403 -0.0679
  380BOLB   GL1 9099  22.533  22.967  21.562 -0.2735  0.3894  0.2793
  380BOLB   GL2 9100  22.714  23.220  21.629 -0.2685 -0.1872 -0.0379
  380BOLB   C1A 9101  22.766  22.834  21.931 -0.1566  0.2373 -0.1424
  380BOLB   C2A 9102  23.125  22.624  22.179 -0.2449 -0.1395  0.3602
  380BOLB   C3A 9103  23.251  22.511  22.672  0.4125  0.0527  0.1521
  380BOLB   C4A 9104  23.521  22.501  22.917  0.0077  0.4712  0.0807
  380BOLB   C1B 9105  22.672  23.609  21.824  0.2750  0.1207 -0.2597
  380BOLB   C2B 9106  22.638  23.702  22.278 -0.1088  0.0524 -0.2112
  380BOLB   C3B 9107  22.703  23.796  22.669  0.0151  0.3294 -0.3303
  380BOLB   C4B 9108  22.618  23.898  23.057  0.2997 -0.0132  0.0517
  380BOLB   NC2 9109  24.159  23.009  25.214  0.0076 -0.1492  0.0656
  380BOLB   PO2 9110  24.461  22.894  24.994 -0.0412 -0.1115 -0.2441
  380BOLB   GL3 9111  24.275  22.758  24.634 -0.0540 -0.4325  0.0352
  380BOLB   GL4 9112  24.006  22.934  24.456  0.0028  0.0793  0.0099
  380BOLB   C1C 9113  23.842  22.490  24.424  0.1421 -0.1865  0.3015
  380BOLB   C2C 9114  23.749  22.620  23.992 -0.5116 -0.1454  0.0536
  380BOLB   C3C 9115  23.580  22.658  23.681  0.2040 -0.0662  0.0177
  380BOLB   C4C 9116  23.435  22.649  23.238 -0.2660 -0.0416 -0.0178
  380BOLB   C1D 9117  23.924  23.032  24.135 -0.2778 -0.0504 -0.0824
  380BOLB   C2D 9118  23.746  23.108  23.699  0.1006 -0.3209  0.0131
  380BOLB   C3D 9119  23.323  23.090  23.481 -0.2117 -0.1918  0.0241
  380BOLB   C4D 9120  22.977  23.333  23.341 -0.0136 -0.1300 -0.0803
  381BOLB   NC1 9121  11.938  20.795  23.110 -0.1715  0.2830  0.2871
  381BOLB   PO1 9122  11.601  21.145  23.275 -0.3769  0.0681  0.1280
  381BOLB   GL1 9123  11.292  21.221  23.560  0.0814 -0.1738  0.1383
  381BOLB   GL2 9124  11.122  21.045  23.818  0.0878 -0.3352  0.1318
  381BOLB   C1A 9125  11.116  21.508  23.837  0.0175 -0.0548  0.0420
  381BOLB   C2A 9126  11.088  21.670  24.197 -0.0273 -0.0927  0.0468
  381BOLB   C3A 9127  11.172  21.761  24.638  0.1298  0.2964  0.0303
  381BOLB   C4A 9128  10.980  21.790  25.053 -0.1852 -0.3338  0.3029
  381BOLB   C1B 9129  11.016  20.854  24.250 -0.1551  0.3652  0.1688
  381BOLB   C2B 9130  10.796  20.972  24.573  0.2409  0.0356 -0.3457
  381BOLB   C3B 9131  10.464  20.910  24.818 -0.0228  0.0095  0.2354
  381BOLB   C4B 9132  10.276  20.596  25.100  0.2772 -0.0721  0.0498
  381BOLB   NC2 9133  11.343  22.976  26.835 -0.0164 -0.0217  0.2639
  381BOLB   PO2 9134  11.546  22.694  27.076  0.0314 -0.5245  0.2950
  381BOLB   GL3 9135  11.571  22.423  26.789 -0.1466  0.2876 -0.0737
  381BOLB   GL4 9136  11.406  22.100  26.789 -0.0510 -0.1809  0.3657
  381BOLB   C1C 9137  11.607  22.192  26.337 -0.2532 -0.0659  0.0875
  381BOLB   C2C 9138  11.741  21.997  26.055 -0.0148  0.1604  0.2796
  381BOLB   C3C 9139  11.480  21.867  25.816 -0.2431  0.0494  0.1059
  381BOLB   C4C 9140  11.201  21.866  25.446 -0.3233 -0.1504 -0.1044
  381BOLB   C1D 9141  11.459  21.704  26.571 -0.3329 -0.0838 -0.0909
  381BOLB   C2D 9142  11.604  21.561  26.199  0.0623  0.0296  0.4356
  381BOLB   C3D 9143  11.922  21.565  25.824 -0.1050 -0.0862  0.1802
  381BOLB   C4D 9144  12.140  21.445  25.440  0.0360  0.0699  0.2350
  382BOLB   NC1 9145   8.998  10.532  22.596 -0.0370 -0.0083 -0.1818
  382BOLB   PO1 9146   9.267  10.230  22.993 -0.0475  0.0032 -0.0565
  382BOLB   GL1 9147   9.087  10.214  23.296 -0.1873  0.1253 -0.0378
  382BOLB   GL2 9148   8.969  10.464  23.505  0.0722  0.1633 -0.2281
  382BOLB   C1A 9149   9.185  10.046  23.746 -0.1931  0.0318 -0.0319
  382BOLB   C2A 9150   9.379   9.925  24.179  0.1178  0.2331  0.2332
  382BOLB   C3A 9151   9.302  10.155  24.600  0.0945 -0.2865 -0.3688
  382BOLB   C4A 9152   9.249  10.291  25.076 -0.0752  0.0947 -0.2123
  382BOLB   C1B 9153   8.966  10.781  23.816  0.1709  0.2071 -0.4220
  382BOLB   C2B 9154   9.037  10.975  24.202  0.2804 -0.0130  0.1378
  382BOLB   C3B 9155   9.034  11.171  24.582 -0.0982  0.1458 -0.0077
  382BOLB   C4B 9156   8.909  11.255  25.005 -0.1180 -0.1008  0.0613
  382BOLB   NC2 9157   7.919   9.760  27.640 -0.0661 -0.2950 -0.0154
  382BOLB   PO2 9158   8.335   9.796  27.317  0.4759  0.1307 -0.1102
  382BOLB   GL3 9159   8.411  10.059  27.017  0.0967  0.1229  0.1249
  382BOLB   GL4 9160   8.300  10.239  26.838 -0.0370  0.0299  0.1829
  382BOLB   C1C 9161   8.375   9.888  26.475 -0.1118  0.0813  0.0041
  382BOLB   C2C 9162   8.418   9.920  26.004  0.3098 -0.3178  0.1008
  382BOLB   C3C 9163   8.699  10.219  25.756 -0.7020 -0.0665 -0.1135
  382BOLB   C4C 9164   9.008  10.252  25.506 -0.0224 -0.2280 -0.1375
  382BOLB   C1D 9165   8.643  10.267  26.522 -0.0360  0.1623 -0.0581
  382BOLB   C2D 9166   8.912  10.186  26.202  0.0906  0.0777  0.1517
  382BOLB   C3D 9167   9.295  10.134  25.907  0.2012 -0.0578 -0.0187
  382BOLB   C4D 9168   9.653   9.949  25.894 -0.1958  0.0450 -0.0957
  383BOLB   NC1 9169  14.625  19.509  23.979  0.0869 -0.2024  0.2921
  383BOLB   PO1 9170  14.553  19.492  24.484  0.0876  0.0122  0.0739
  383BOLB   GL1 9171  14.569  19.744  24.867  0.2185  0.2181  0.0965
  383BOLB   GL2 9172  14.249  19.754  25.034 -0.0001 -0.0315 -0.2765
  383BOLB   C1A 9173  14.594  20.012  25.257 -0.1109  0.1052 -0.0883
  383BOLB   C2A 9174  14.617  20.193  25.699 -0.2029 -0.0948  0.0872
  383BOLB   C3A 9175  14.702  20.607  25.942 -0.5595 -0.0668  0.3424
  383BOLB   C4A 9176  14.308  20.752  26.019 -0.0048 -0.0485 -0.5047
  383BOLB   C1B 9177  14.142  20.031  25.459  0.1734 -0.1635 -0.0100
  383BOLB   C2B 9178  13.710  20.001  25.699 -0.1937  0.1570  0.1954
  383BOLB   C3B 9179  13.349  20.187  25.845  0.1180  0.0722  0.0935
  383BOLB   C4B 9180  13.128  20.596  25.982  0.2494  0.2310 -0.1093
  383BOLB   NC2 9181  13.175  20.076  28.188  0.0736  0.0414 -0.2566
  383BOLB   PO2 9182  13.202  20.504  27.913  0.3277  0.0333 -0.1923
  383BOLB   GL3 9183  13.245  20.235  27.681  0.0153  0.2208  0.0796
  383BOLB   GL4 9184  12.949  19.878  27.660 -0.1184  0.1669 -0.1107
  383BOLB   C1C 9185  13.390  20.253  27.217 -0.1804  0.1805  0.0122
  383BOLB   C2C 9186  13.616  20.335  26.910 -0.4344  0.0819 -0.2930
  383BOLB   C3C 9187  13.927  20.620  26.724  0.1690 -0.0314 -0.0523
  383BOLB   C4C 9188  14.059  20.705  26.315  0.0179  0.0617  0.0041
  383BOLB   C1D 9189  13.268  19.600  27.661  0.0937  0.1231 -0.0128
  383BOLB   C2D 9190  13.349  19.354  27.325  0.3560  0.1967  0.0284
  383BOLB   C3D 9191  13.702  19.371  27.082 -0.4221 -0.0244  0.1250
  383BOLB   C4D 9192  13.997  19.313  26.710 -0.0724  0.0616  0.2581
  384BOLB   NC1 9193  22.667  17.848  23.335  0.1481  0.1468 -0.0559
  384BOLB   PO1 9194  22.699  18.366  23.417 -0.0805  0.0436  0.0277
  384BOLB   GL1 9195  22.780  18.287  23.804  0.1609  0.3226 -0.0051
  384BOLB   GL2 9196  22.762  17.979  23.843  0.1429 -0.2885 -0.1109
  384BOLB   C1A 9197  22.958  18.180  24.276  0.2948 -0.4536 -0.1323
  384BOLB   C2A 9198  22.756  17.984  24.565  0.0408  0.1227  0.0602
  384BOLB   C3A 9199  22.691  18.136  24.962  0.2185 -0.0173 -0.1423
  384BOLB   C4A 9200  22.496  18.352  25.381 -0.5421 -0.0694 -0.1063
  384BOLB   C1B 9201  22.454  18.204  24.198 -0.0897 -0.1120 -0.3937
  384BOLB   C2B 9202  22.497  18.392  24.587 -0.1705  0.0054 -0.0644
  384BOLB   C3B 9203  22.354  18.652  24.969  0.0747  0.1291  0.0688
  384BOLB   C4B 9204  22.015  18.653  25.260  0.0040  0.0336 -0.1945
  384BOLB   NC2 9205  22.675  19.360  27.785 -0.3966 -0.1835  0.4077
  384BOLB   PO2 9206  22.317  19.286  27.447  0.0803 -0.0459 -0.1310
  384BOLB   GL3 9207  22.183  19.188  27.120  0.0375  0.1038 -0.2226
  384BOLB   GL4 9208  21.866  19.168  27.078 -0.0579  0.1846  0.2215
  384BOLB   C1C 9209  22.222  18.832  26.831  0.0741  0.1541 -0.0944
  384BOLB   C2C 9210  22.099  18.694  26.446 -0.0081  0.2807  0.0842
  384BOLB   C3C 9211  22.025  18.598  26.029 -0.2678  0.1105 -0.0322
  384BOLB   C4C 9212  22.272  18.546  25.683  0.0906  0.1586 -0.1721
  384BOLB   C1D 9213  21.749  19.449  26.774 -0.2093  0.1234  0.2124
  384BOLB   C2D 9214  21.625  19.662  26.366 -0.4198  0.2294  0.2324
  384BOLB   C3D 9215  21.697  19.794  25.798  0.3479  0.1976 -0.4250
  384BOLB   C4D 9216  21.657  19.950  25.416  0.1746 -0.2573  0.1335
  385BOLB   NC1 9217  17.007  17.598  24.552 -0.0141  0.3157  0.3589
  385BOLB   PO1 9218  17.368  17.755  24.760 -0.1322  0.1141 -0.0962
  385BOLB   GL1 9219  17.473  17.775  25.140  0.1487 -0.0866  0.1602
  385BOLB   GL2 9220  17.635  17.533  25.205  0.1845  0.2771 -0.1510
  385BOLB   C1A 9221  17.412  17.889  25.594  0.1201  0.4133  0.1758
  385BOLB   C2A 9222  17.067  18.031  25.832 -0.2496 -0.0664 -0.2050
  385BOLB   C3A 9223  17.169  18.141  26.270 -0.4302 -0.0259 -0.3290
  385BOLB   C4A 9224  17.146  18.093  26.793 -0.2915 -0.1200 -0.0523
  385BOLB   C1B 9225  17.784  17.514  25.588 -0.2233  0.2434 -0.2990
  385BOLB   C2B 9226  18.124  17.333  25.795 -0.2505  0.1980 -0.0097
  385BOLB   C3B 9227  18.231  17.461  26.065  0.0131 -0.1714  0.1266
  385BOLB   C4B 9228  18.205  17.774  26.260 -0.1247  0.0773 -0.0005
  385BOLB   NC2 9229  18.637  17.344  29.070 -0.0436 -0.2380  0.2841
  385BOLB   PO2 9230  18.571  17.058  28.664 -0.2510  0.0665 -0.1872
  385BOLB   GL3 9231  18.338  17.351  28.326 -0.1168  0.3385 -0.0793
  385BOLB   GL4 9232  17.954  17.506  28.348  0.1515 -0.1504  0.3478
  385BOLB   C1C 9233  18.230  17.473  27.902  0.1351  0.4860 -0.0978
  385BOLB   C2C 9234  17.913  17.458  27.579 -0.1264 -0.0494  0.1387
  385BOLB   C3C 9235  17.601  17.674  27.281 -0.2222  0.0734  0.3569
  385BOLB   C4C 9236  17.285  17.907  27.176  0.1017 -0.1066 -0.0418
  385BOLB   C1D 9237  17.591  17.409  28.078  0.0786 -0.1544 -0.0346
  385BOLB   C2D 9238  17.485  17.262  27.669  0.1191  0.0480  0.0196
  385BOLB   C3D 9239  17.573  16.983  27.293 -0.2488 -0.0508  0.3066
  385BOLB   C4D 9240  17.991  16.715  27.198  0.0077  0.0400  0.1310
  386BOLB   NC1 9241  11.911  19.128  23.661 -0.3527  0.3509 -0.5301
  386BOLB   PO1 9242  11.936  19.008  24.192 -0.1049 -0.1336  0.1898
  386BOLB   GL1 9243  12.007  19.345  24.366 -0.1349 -0.0401  0.0930
  386BOLB   GL2 9244  12.207  19.599  24.564 -0.0045 -0.3851 -0.0389
  386BOLB   C1A 9245  11.875  19.340  24.787 -0.3827 -0.0378  0.0186
  386BOLB   C2A 9246  11.786  19.489  25.239  0.0724  0.2037 -0.2275
  386BOLB   C3A 9247  11.613  19.416  25.669 -0.0033  0.1410 -0.3134
  386BOLB   C4A 9248  11.453  19.370  26.050  0.1165  0.2165  0.1586
  386BOLB   C1B 9249  12.085  19.810  25.013 -0.2808 -0.1013 -0.1946
  386BOLB   C2B 9250  12.360  19.853  25.328 -0.0060  0.1471 -0.0947
  386BOLB   C3B 9251  12.369  20.054  25.774  0.1765 -0.1581 -0.2964
  386BOLB   C4B 9252  12.125  20.295  26.079 -0.3596 -0.1702 -0.2033
  386BOLB   NC2 9253  11.001  18.723  28.332  0.1040 -0.0315 -0.4663
  386BOLB   PO2 9254  10.797  18.672  27.981  0.2946 -0.1065 -0.0285
  386BOLB   GL3 9255  10.869  18.550  27.562 -0.0195  0.1104  0.1731
  386BOLB   GL4 9256  10.631  18.321  27.575  0.0860 -0.2437  0.0918
  386BOLB   C1C 9257  11.099  18.731  27.236 -0.1889  0.1987  0.0049
  386BOLB   C2C 9258  11.153  18.519  26.871 -0.1844 -0.1707  0.0463
  386BOLB   C3C 9259  11.172  18.606  26.388  0.2445  0.0651 -0.1158
  386BOLB   C4C 9260  11.125  19.023  26.255 -0.1113  0.1182  0.1152
  386BOLB   C1D 9261  10.857  18.210  27.208  0.1317 -0.0363  0.1617
  386BOLB   C2D 9262  11.188  18.062  27.098 -0.0361  0.3668  0.0705
  386BOLB   C3D 9263  11.213  17.554  27.101 -0.2328 -0.0134 -0.1088
  386BOLB   C4D 9264  11.251  17.144  27.061  0.2778  0.1930 -0.2571
  387BOLB   NC1 9265  16.289   9.768  21.411 -0.0902  0.2995  0.0543
  387BOLB   PO1 9266  16.626   9.602  21.740  0.1522  0.0561  0.3214
  387BOLB   GL1 9267  16.514   9.260  22.115 -0.0588 -0.0200  0.3228
  387BOLB   GL2 9268  16.785   9.142  21.903  0.3298 -0.0981  0.0783
  387BOLB   C1A 9269  16.550   8.919  22.441  0.1074  0.1618  0.0925
  387BOLB   C2A 9270  16.732   8.684  22.755 -0.0609  0.0128  0.1104
  387BOLB   C3A 9271  16.940   8.359  22.866 -0.1418 -0.0829 -0.1950
  387BOLB   C4A 9272  17.062   8.150  23.195 -0.1543 -0.2994 -0.2421
  387BOLB   C1B 9273  17.046   9.010  22.199  0.2076  0.0393 -0.1307
  387BOLB   C2B 9274  17.190   8.821  22.509  0.0237 -0.1485  0.0099
  387BOLB   C3B 9275  17.266   8.715  22.966 -0.0306  0.1330 -0.0374
  387BOLB   C4B 9276  17.329   8.800  23.393 -0.3848 -0.1770  0.3389
  387BOLB   NC2 9277  17.703   6.816  24.868  0.3863 -0.1710 -0.2100
  387BOLB   PO2 9278  17.899   7.123  24.973 -0.4301  0.2611  0.3618
  387BOLB   GL3 9279  17.743   7.485  24.792  0.2977 -0.0657  0.0346
  387BOLB   GL4 9280  17.888   7.822  24.858  0.1694 -0.0383 -0.0112
  387BOLB   C1C 9281  17.560   7.605  24.416 -0.0841  0.0618  0.0685
  387BOLB   C2C 9282  17.219   7.825  24.142 -0.0680  0.2114  0.1154
  387BOLB   C3C 9283  17.215   8.113  23.864  0.1994  0.2069 -0.0113
  387BOLB   C4C 9284  17.279   8.316  23.562  0.3286 -0.1203 -0.0620
  387BOLB   C1D 9285  17.865   8.005  24.549  0.0945  0.3487  0.3012
  387BOLB   C2D 9286  17.586   8.209  24.244 -0.2517 -0.3226  0.2587
  387BOLB   C3D 9287  17.578   8.551  24.182 -0.1773  0.2314 -0.0112
  387BOLB   C4D 9288  17.294   8.850  23.938  0.1029 -0.0675  0.0812
  388BOLB   NC1 9289  11.504  10.809  23.159  0.0527  0.0275 -0.1194
  388BOLB   PO1 9290  11.676  10.816  23.533 -0.2763  0.0250 -0.1201
  388BOLB   GL1 9291  11.385  10.664  23.840 -0.0663 -0.1694  0.2428
  388BOLB   GL2 9292  11.390  10.879  24.122 -0.1808 -0.0314 -0.1569
  388BOLB   C1A 9293  11.311  10.341  24.162  0.0097 -0.0122 -0.0729
  388BOLB   C2A 9294  11.195  10.351  24.525  0.1208  0.0708  0.0351
  388BOLB   C3A 9295  11.007  10.421  24.982  0.2238  0.0522 -0.1192
  388BOLB   C4A 9296  10.701  10.213  25.150 -0.3373 -0.0701  0.0006
  388BOLB   C1B 9297  11.352  10.917  24.555 -0.1707  0.0950  0.3012
  388BOLB   C2B 9298  11.650  11.032  24.853  0.2518  0.0411  0.1953
  388BOLB   C3B 9299  11.647  11.164  25.233 -0.0838 -0.6578  0.0419
  388BOLB   C4B 9300  11.610  11.131  25.629  0.2973  0.2865  0.3327
  388BOLB   NC2 9301  10.496   9.498  27.195 -0.1057 -0.2147 -0.2637
  388BOLB   PO2 9302  10.512   9.762  27.524  0.4725 -0.2249  0.1291
  388BOLB   GL3 9303  10.396  10.100  27.140 -0.3279  0.1006  0.3768
  388BOLB   GL4 9304  10.665   9.939  26.884  0.0707 -0.1115 -0.3328
  388BOLB   C1C 9305  10.271   9.913  26.634 -0.0886  0.0272 -0.0029
  388BOLB   C2C 9306  10.519   9.592  26.308 -0.3759  0.0837  0.0799
  388BOLB   C3C 9307  10.515   9.639  25.821 -0.1965  0.0154 -0.1478
  388BOLB   C4C 9308  10.531   9.934  25.472 -0.1138  0.2313 -0.3025
  388BOLB   C1D 9309  10.703  10.384  26.947  0.2207 -0.2167 -0.0933
  388BOLB   C2D 9310  10.770  10.608  26.620  0.1898 -0.2915 -0.0018
  388BOLB   C3D 9311  10.915  10.733  26.192 -0.2017  0.2135  0.1029
  388BOLB   C4D 9312  11.028  10.568  25.792  0.0110  0.2242 -0.0805
  389BOLB   NC1 9313  20.155  23.451  21.392  0.1476 -0.0873 -0.0363
  389BOLB   PO1 9314  20.598  23.301  21.313  0.1126  0.1879 -0.0577
  389BOLB   GL1 9315  20.594  23.420  21.721  0.0875 -0.0833  0.1551
  389BOLB   GL2 9316  20.617  23.221  21.969 -0.1547 -0.3529 -0.0426
  389BOLB   C1A 9317  20.642  23.734  21.997  0.3376  0.0436  0.2280
  389BOLB   C2A 9318  20.703  23.876  22.358 -0.0528 -0.6104 -0.0334
  389BOLB   C3A 9319  20.842  24.050  22.611 -0.0303  0.0119 -0.1121
  389BOLB   C4A 9320  20.970  24.366  22.998 -0.0249 -0.0911  0.1341
  389BOLB   C1B 9321  20.757  23.401  22.365 -0.1916 -0.0012  0.2429
  389BOLB   C2B 9322  20.569  23.501  22.743  0.1898 -0.2692 -0.1956
  389BOLB   C3B 9323  20.342  23.553  23.019 -0.0123 -0.1911 -0.1752
  389BOLB   C4B 9324  20.151  23.871  23.214  0.0364  0.1690  0.3035
  389BOLB   NC2 9325  22.459  25.631  24.419  0.1144  0.0244  0.0183
  389BOLB   PO2 9326  22.475  25.825  24.003  0.2837 -0.3976  0.0244
  389BOLB   GL3 9327  22.028  25.521  24.021 -0.1206 -0.1784  0.0796
  389BOLB   GL4 9328  21.738  25.556  24.112 -0.1124 -0.1741 -0.3088
  389BOLB   C1C 9329  21.909  25.126  23.875 -0.0261  0.2905 -0.1660
  389BOLB   C2C 9330  21.473  25.056  23.738  0.0077  0.0485 -0.1132
  389BOLB   C3C 9331  21.088  24.881  23.594 -0.3365  0.3018 -0.2358
  389BOLB   C4C 9332  20.983  24.726  23.295  0.0760  0.1908 -0.0404
  389BOLB   C1D 9333  21.328  25.428  24.058  0.0817  0.4176 -0.4142
  389BOLB   C2D 9334  21.215  24.967  24.129 -0.0727  0.3088 -0.0306
  389BOLB   C3D 9335  20.799  24.867  24.128 -0.1202  0.0854 -0.2828
  389BOLB   C4D 9336  20.565  24.896  24.469  0.1860 -0.0491 -0.0420
  390BOLB   NC1 9337  20.159  15.624  23.417 -0.0827  0.2629 -0.0961
  390BOLB   PO1 9338  20.266  15.767  23.985  0.1189 -0.1192  0.1521
  390BOLB   GL1 9339  20.153  15.880  24.366  0.0440 -0.3631  0.0576
  390BOLB   GL2 9340  20.280  15.563  24.433  0.4194  0.1087 -0.0382
  390BOLB   C1A 9341  20.401  16.068  24.772  0.1325 -0.0516  0.0663
  390BOLB   C2A 9342  20.380  16.434  25.050  0.0467  0.4975  0.3672
  390BOLB   C3A 9343  20.153  16.489  25.462 -0.1577  0.3132 -0.0876
  390BOLB   C4A 9344  20.249  16.708  25.949  0.1196  0.0090  0.0087
  390BOLB   C1B 9345  20.528  15.411  24.892 -0.2487  0.1456 -0.2109
  390BOLB   C2B 9346  20.693  15.489  25.323  0.0020 -0.3245 -0.0693
  390BOLB   C3B 9347  20.577  15.648  25.741 -0.0776  0.3175  0.0125
  390BOLB   C4B 9348  20.685  16.145  25.952  0.2954  0.0116  0.0491
  390BOLB   NC2 9349  20.267  17.505  28.423  0.1710  0.3413  0.2124
  390BOLB   PO2 9350  20.621  17.180  28.432 -0.0923 -0.1991  0.0485
  390BOLB   GL3 9351  20.433  17.180  28.005 -0.0517 -0.2134  0.2140
  390BOLB   GL4 9352  20.443  17.511  27.807  0.0405 -0.2090  0.1099
  390BOLB   C1C 9353  20.434  16.953  27.576 -0.1798  0.0387  0.2476
  390BOLB   C2C 9354  20.278  16.823  27.124  0.0200 -0.0197  0.1085
  390BOLB   C3C 9355  20.410  16.615  26.705  0.1001 -0.0394 -0.1557
  390BOLB   C4C 9356  20.146  16.640  26.274  0.0662 -0.2588  0.1336
  390BOLB   C1D 9357  20.088  17.326  27.646  0.1025 -0.1652  0.0669
  390BOLB   C2D 9358  19.847  17.096  27.475  0.0065  0.2075 -0.0655
  390BOLB   C3D 9359  19.761  16.726  27.108 -0.0014 -0.0845 -0.1864
  390BOLB   C4D 9360  19.445  16.549  26.906 -0.3858 -0.1601 -0.1789
  391BOLB   NC1 9361  21.979  22.988  21.423 -0.0549 -0.1477  0.0392
  391BOLB   PO1 9362  22.034  22.568  21.546 -0.1933 -0.0909  0.1226
  391BOLB   GL1 9363  22.294  22.564  21.902 -0.0033  0.0362 -0.0760
  391BOLB   GL2 9364  22.553  22.320  22.053 -0.3398 -0.0927  0.0614
  391BOLB   C1A 9365  22.185  22.643  22.314  0.1159  0.0204  0.3018
  391BOLB   C2A 9366  21.935  22.729  22.657 -0.2108 -0.3735 -0.2986
  391BOLB   C3A 9367  22.062  23.191  22.941 -0.0243  0.2066 -0.2251
  391BOLB   C4A 9368  21.920  23.301  23.333 -0.3074 -0.0861  0.1182
  391BOLB   C1B 9369  22.648  22.574  22.407 -0.1334 -0.0434  0.0005
  391BOLB   C2B 9370  22.445  22.939  22.649 -0.1012 -0.0369 -0.2290
  391BOLB   C3B 9371  22.617  23.222  23.010 -0.1196 -0.0919 -0.1650
  391BOLB   C4B 9372  22.461  23.483  23.327 -0.2320 -0.0633  0.1187
  391BOLB   NC2 9373  23.203  24.398  24.851 -0.0006 -0.1718  0.0050
  391BOLB   PO2 9374  22.910  24.732  25.112  0.0753  0.0979 -0.0284
  391BOLB   GL3 9375  22.681  24.565  24.729 -0.0423 -0.1027  0.1665
  391BOLB   GL4 9376  22.591  24.713  24.524  0.3308  0.1302 -0.0820
  391BOLB   C1C 9377  22.236  24.412  24.714 -0.0677 -0.2263  0.0055
  391BOLB   C2C 9378  21.966  24.073  24.429 -0.2564  0.0396 -0.2039
  391BOLB   C3C 9379  21.881  23.645  24.232 -0.3197 -0.0726  0.0021
  391BOLB   C4C 9380  21.971  23.578  23.756  0.1528 -0.1092  0.1302
  391BOLB   C1D 9381  22.587  24.664  24.113 -0.2201  0.1423 -0.0248
  391BOLB   C2D 9382  22.418  24.628  23.652 -0.0818 -0.3261  0.2712
  391BOLB   C3D 9383  21.989  24.740  23.449 -0.0236 -0.0839  0.0145
  391BOLB   C4D 9384  21.544  24.812  23.325  0.1005  0.1636 -0.2898
  392BOLB   NC1 9385  15.112  20.127  23.522 -0.0317  0.0009 -0.0240
  392BOLB   PO1 9386  14.798  20.304  23.928 -0.2474  0.0356 -0.1539
  392BOLB   GL1 9387  14.814  20.523  24.335 -0.1328  0.2452 -0.2187
  392BOLB   GL2 9388  14.651  20.782  24.274 -0.2565  0.1730 -0.1292
  392BOLB   C1A 9389  14.909  20.686  24.739  0.2242 -0.1754  0.0712
  392BOLB   C2A 9390  15.011  20.824  25.210 -0.2362  0.0321 -0.3535
  392BOLB   C3A 9391  15.163  20.921  25.655 -0.1784  0.1161  0.0191
  392BOLB   C4A 9392  15.130  20.836  26.051  0.0961  0.1294  0.2931
  392BOLB   C1B 9393  14.635  21.068  24.568  0.3717 -0.2166 -0.1893
  392BOLB   C2B 9394  14.505  21.385  24.621 -0.1709 -0.1600 -0.2157
  392BOLB   C3B 9395  14.711  21.766  24.884  0.6340  0.3657  0.3407
  392BOLB   C4B 9396  14.787  22.115  25.166  0.0415 -0.2747  0.2038
  392BOLB   NC2 9397  15.107  20.822  28.629 -0.1856 -0.2208  0.2212
  392BOLB   PO2 9398  15.538  20.693  28.595 -0.1598 -0.1612  0.1055
  392BOLB   GL3 9399  15.418  20.360  28.211  0.0023  0.2027 -0.2106
  392BOLB   GL4 9400  15.607  20.107  28.107 -0.1756  0.0233  0.1915
  392BOLB   C1C 9401  15.493  20.440  27.725  0.0691  0.1439 -0.0838
  392BOLB   C2C 9402  15.653  20.567  27.285  0.0688  0.3164 -0.0892
  392BOLB   C3C 9403  15.558  20.494  26.810  0.0201 -0.1686  0.2374
  392BOLB   C4C 9404  15.381  20.599  26.457 -0.1437 -0.4115  0.0033
  392BOLB   C1D 9405  15.615  19.960  27.706  0.1287 -0.1697 -0.1410
  392BOLB   C2D 9406  15.814  19.622  27.594 -0.0469 -0.1141  0.5577
  392BOLB   C3D 9407  16.004  19.334  27.235 -0.3895  0.2376 -0.1407
  392BOLB   C4D 9408  16.045  19.184  26.875  0.0480 -0.2026 -0.0314
  393BOLB   NC1 9409   9.712  27.280  21.184 -0.1274  0.2246  0.1845
  393BOLB   PO1 9410   9.696  27.307  21.600 -0.0810  0.3151  0.3160
  393BOLB   GL1 9411   9.978  27.123  21.649 -0.0780  0.1251  0.0861
  393BOLB   GL2 9412  10.200  27.306  21.736  0.1288 -0.0881  0.0240
  393BOLB   C1A 9413  10.316  26.755  21.722 -0.2693  0.1541 -0.1424
  393BOLB   C2A 9414  10.391  26.378  21.984 -0.0939  0.0270 -0.0246
  393BOLB   C3A 9415  10.391  26.253  22.334 -0.1441  0.1754 -0.1348
  393BOLB   C4A 9416  10.599  26.288  22.738 -0.1374 -0.2410  0.0930
  393BOLB   C1B 9417  10.692  27.269  21.600 -0.3073  0.2328 -0.1603
  393BOLB   C2B 9418  11.006  27.371  21.752 -0.1117 -0.1061  0.2588
  393BOLB   C3B 9419  11.190  27.451  22.111  0.2346  0.3540  0.1561
  393BOLB   C4B 9420  11.025  27.436  22.570  0.1082  0.2678 -0.2097
  393BOLB   NC2 9421  10.440  26.139  25.152  0.1434 -0.1647 -0.0315
  393BOLB   PO2 9422  10.805  26.253  24.859 -0.1143 -0.1878 -0.0475
  393BOLB   GL3 9423  10.997  26.016  24.527 -0.0003 -0.1248 -0.0136
  393BOLB   GL4 9424  11.105  25.755  24.623  0.0063 -0.1239 -0.1789
  393BOLB   C1C 9425  11.113  26.139  24.165  0.2104 -0.2174 -0.1358
  393BOLB   C2C 9426  11.020  26.374  23.886 -0.1078 -0.2511 -0.1823
  393BOLB   C3C 9427  11.056  26.338  23.457  0.0518 -0.1970  0.0171
  393BOLB   C4C 9428  10.994  26.384  23.004  0.0449  0.1326 -0.0011
  393BOLB   C1D 9429  10.900  25.582  24.271  0.1221 -0.3692  0.0223
  393BOLB   C2D 9430  10.628  25.547  23.944 -0.1961 -0.1321 -0.0220
  393BOLB   C3D 9431  10.586  25.614  23.420 -0.3034 -0.0878  0.5058
  393BOLB   C4D 9432  10.797  25.862  22.995 -0.1596  0.0747 -0.0626
  394BOLB   NC1 9433  15.711  11.448  23.332  0.0498 -0.0202  0.0118
  394BOLB   PO1 9434  15.708  11.807  23.501 -0.2261 -0.3135 -0.0573
  394BOLB   GL1 9435  15.701  11.636  23.851 -0.0798  0.0848  0.3168
  394BOLB   GL2 9436  15.522  11.421  23.885  0.1438 -0.0233 -0.0138
  394BOLB   C1A 9437  15.912  11.363  24.265  0.2809 -0.2670  0.1320
  394BOLB   C2A 9438  15.871  11.039  24.645  0.0122  0.1850 -0.1655
  394BOLB   C3A 9439  15.892  10.841  25.112  0.1737 -0.0669  0.1182
  394BOLB   C4A 9440  15.582  10.655  25.384 -0.0561  0.0292  0.1046
  394BOLB   C1B 9441  15.486  11.605  24.324 -0.1195  0.0697  0.1743
  394BOLB   C2B 9442  15.601  11.621  24.707  0.1478  0.0916 -0.2174
  394BOLB   C3B 9443  15.352  11.896  24.971  0.0865  0.2938 -0.2193
  394BOLB   C4B 9444  15.340  11.897  25.332 -0.1322 -0.1932  0.1044
  394BOLB   NC2 9445  16.435   9.420  26.499 -0.2760  0.0175 -0.1585
  394BOLB   PO2 9446  15.984   9.124  26.586 -0.0711  0.2552 -0.1488
  394BOLB   GL3 9447  16.110   9.229  26.183 -0.0002 -0.0681  0.0876
  394BOLB   GL4 9448  16.332   8.977  26.077 -0.1410  0.1750  0.0043
  394BOLB   C1C 9449  15.879   9.433  25.825 -0.1074 -0.1387 -0.0731
  394BOLB   C2C 9450  15.558   9.565  25.740  0.1375 -0.1132  0.1264
  394BOLB   C3C 9451  15.405  10.008  25.646 -0.0946 -0.0945  0.0475
  394BOLB   C4C 9452  15.447  10.379  25.654  0.0875 -0.1394 -0.4705
  394BOLB   C1D 9453  16.248   9.026  25.593 -0.0696 -0.3621  0.2923
  394BOLB   C2D 9454  16.325   9.106  25.234 -0.0219 -0.1059  0.2585
  394BOLB   C3D 9455  16.047   9.236  24.871 -0.0071  0.4679 -0.2100
  394BOLB   C4D 9456  15.595   9.373  24.944  0.2215 -0.0492 -0.0070
  395BOLB   NC1 9457  17.827  11.497  22.645 -0.1937  0.1820  0.0214
  395BOLB   PO1 9458  18.194  11.775  22.824 -0.1776  0.0201  0.1211
  395BOLB   GL1 9459  18.579  11.581  23.141 -0.0666 -0.1217  0.2395
  395BOLB   GL2 9460  18.843  11.393  22.978 -0.0053  0.2354  0.3790
  395BOLB   C1A 9461  18.640  11.471  23.540 -0.2569 -0.3865 -0.0762
  395BOLB   C2A 9462  18.562  11.220  23.843 -0.1784 -0.0964  0.1818
  395BOLB   C3A 9463  18.565  10.832  24.123 -0.3240 -0.1053  0.2942
  395BOLB   C4A 9464  18.561  10.516  24.344  0.2244 -0.4059 -0.1568
  395BOLB   C1B 9465  19.042  11.183  23.304 -0.0714 -0.2464  0.2749
  395BOLB   C2B 9466  19.178  11.134  23.724 -0.0749  0.1846  0.1668
  395BOLB   C3B 9467  19.108  10.996  24.104  0.0476 -0.0994 -0.1119
  395BOLB   C4B 9468  19.041  10.687  24.539 -0.1535 -0.0675  0.0299
  395BOLB   NC2 9469  19.015   9.703  26.375 -0.2016  0.0025  0.3336
  395BOLB   PO2 9470  18.724   9.476  26.472  0.0742 -0.0517 -0.0958
  395BOLB   GL3 9471  18.624   9.550  26.007  0.1888 -0.0710 -0.0731
  395BOLB   GL4 9472  18.525   9.274  25.930 -0.1037 -0.1051 -0.0169
  395BOLB   C1C 9473  18.368   9.620  25.639  0.0063  0.1872 -0.1241
  395BOLB   C2C 9474  18.264   9.960  25.306  0.1944 -0.3089 -0.2046
  395BOLB   C3C 9475  18.511  10.290  25.199 -0.1835 -0.3928  0.2131
  395BOLB   C4C 9476  18.601  10.444  24.768  0.2547 -0.1337 -0.3973
  395BOLB   C1D 9477  18.856   9.482  25.588  0.0168 -0.1774  0.2272
  395BOLB   C2D 9478  18.711   9.769  25.226  0.0038 -0.0631 -0.0794
  395BOLB   C3D 9479  18.516   9.890  24.890  0.1060  0.1125  0.0024
  395BOLB   C4D 9480  18.195   9.699  24.767 -0.3143 -0.1106 -0.0158
  396BOLB   NC1 9481  20.746  10.202  19.190  0.0913 -0.0330 -0.1607
  396BOLB   PO1 9482  20.513   9.980  19.413 -0.0501  0.3451 -0.0428
  396BOLB   GL1 9483  20.917   9.928  19.635 -0.1938  0.3115 -0.0878
  396BOLB   GL2 9484  21.197  10.046  19.553  0.1935  0.1470 -0.0386
  396BOLB   C1A 9485  21.235   9.576  19.802  0.1091  0.1889 -0.1841
  396BOLB   C2A 9486  21.541   9.276  19.606 -0.2893  0.4189 -0.3559
  396BOLB   C3A 9487  21.924   8.967  19.585 -0.2773  0.0276 -0.2025
  396BOLB   C4A 9488  22.243   8.653  19.735  0.0152  0.2635  0.4434
  396BOLB   C1B 9489  21.612   9.839  19.538  0.3847  0.0332  0.0871
  396BOLB   C2B 9490  21.989   9.588  19.576 -0.2180 -0.0219 -0.2177
  396BOLB   C3B 9491  22.276   9.309  19.749  0.1141 -0.0505 -0.0013
  396BOLB   C4B 9492  22.330   9.144  20.118 -0.0408  0.0095  0.0979
  396BOLB   NC2 9493  22.954   6.519  20.784 -0.2080  0.1164 -0.1048
  396BOLB   PO2 9494  23.005   6.731  20.376  0.2251 -0.0777 -0.2031
  396BOLB   GL3 9495  23.082   7.123  20.327 -0.1727 -0.0264  0.1089
  396BOLB   GL4 9496  22.852   7.147  20.605  0.1286 -0.0457 -0.4416
  396BOLB   C1C 9497  23.036   7.602  20.256  0.1006  0.0315  0.1249
  396BOLB   C2C 9498  22.961   8.029  20.215  0.1130  0.0527 -0.1101
  396BOLB   C3C 9499  22.901   8.421  20.250  0.3526  0.1090 -0.0950
  396BOLB   C4C 9500  22.530   8.594  20.095  0.0038  0.2871 -0.0012
  396BOLB   C1D 9501  22.649   7.262  20.237  0.0954 -0.0772 -0.0532
  396BOLB   C2D 9502  22.440   7.459  19.862  0.4416 -0.0043  0.2918
  396BOLB   C3D 9503  22.274   7.804  19.577 -0.0826 -0.0400 -0.0908
  396BOLB   C4D 9504  22.051   8.158  19.473  0.1449 -0.0455  0.2656
  397BOLB   NC1 9505  20.473  18.419  23.600  0.1196 -0.2442 -0.1886
  397BOLB   PO1 9506  20.800  18.133  23.394  0.0399  0.0405  0.0551
  397BOLB   GL1 9507  20.958  18.061  23.791  0.1875  0.0369  0.0005
  397BOLB   GL2 9508  21.221  18.134  23.903 -0.0689 -0.1684 -0.4647
  397BOLB   C1A 9509  20.772  18.050  24.171 -0.3974 -0.1073 -0.5954
  397BOLB   C2A 9510  20.926  17.925  24.531  0.3538  0.0151 -0.1434
  397BOLB   C3A 9511  21.090  17.709  24.904  0.3519 -0.0275 -0.1682
  397BOLB   C4A 9512  20.864  17.714  25.317  0.2072  0.2222  0.0677
  397BOLB   C1B 9513  21.141  18.370  24.293  0.2256  0.1240  0.0075
  397BOLB   C2B 9514  21.199  18.363  24.710  0.0607  0.2636  0.0639
  397BOLB   C3B 9515  21.184  18.180  25.126  0.1522  0.3246  0.1318
  397BOLB   C4B 9516  21.055  18.344  25.509  0.0092 -0.1377 -0.1447
  397BOLB   NC2 9517  20.969  17.265  27.907 -0.2440 -0.0197 -0.0179
  397BOLB   PO2 9518  21.436  16.997  27.684  0.0500 -0.1100 -0.1019
  397BOLB   GL3 9519  21.349  17.036  27.251  0.0227  0.4198 -0.0407
  397BOLB   GL4 9520  21.520  16.843  27.066  0.1579 -0.1153  0.2815
  397BOLB   C1C 9521  21.236  17.146  26.784 -0.1713 -0.5877  0.0318
  397BOLB   C2C 9522  21.048  17.330  26.416  0.3181  0.2789  0.0860
  397BOLB   C3C 9523  20.936  17.573  26.122  0.0569  0.1392  0.0831
  397BOLB   C4C 9524  20.658  17.623  25.763  0.0464  0.0854 -0.1194
  397BOLB   C1D 9525  21.586  16.502  26.838  0.2033  0.0811  0.1734
  397BOLB   C2D 9526  21.401  16.608  26.494  0.3212  0.1086  0.2931
  397BOLB   C3D 9527  21.236  16.762  26.129 -0.2433 -0.0775  0.0321
  397BOLB   C4D 9528  21.071  17.056  25.851 -0.3999 -0.0606  0.0360
  398BOLB   NC1 9529   9.358  15.937  23.139 -0.0651 -0.1472  0.0180
  398BOLB   PO1 9530   9.390  15.502  23.390  0.0727  0.1402 -0.2097
  398BOLB   GL1 9531   9.432  15.362  23.764 -0.0968  0.0461 -0.0546
  398BOLB   GL2 9532   9.315  15.109  23.826 -0.0315 -0.0078 -0.3957
  398BOLB   C1A 9533   9.519  15.385  24.216 -0.2544  0.0065 -0.1526
  398BOLB   C2A 9534   9.495  15.156  24.657  0.2136 -0.1314 -0.0859
  398BOLB   C3A 9535   9.435  14.969  25.000  0.2056  0.0485  0.1543
  398BOLB   C4A 9536   9.462  15.003  25.432 -0.0531  0.2605 -0.0570
  398BOLB   C1B 9537   9.193  14.981  24.295  0.3500  0.6337  0.0016
  398BOLB   C2B 9538   8.983  14.929  24.679  0.2076 -0.1118 -0.5978
  398BOLB   C3B 9539   8.938  14.905  25.091 -0.1319  0.2878  0.3588
  398BOLB   C4B 9540   8.928  14.968  25.507  0.2103  0.0642 -0.1105
  398BOLB   NC2 9541   7.341  15.890  27.326 -0.0166  0.0069  0.0704
  398BOLB   PO2 9542   7.651  15.590  27.275  0.2723  0.0259 -0.1020
  398BOLB   GL3 9543   7.931  15.489  26.867  0.1354  0.1206  0.1371
  398BOLB   GL4 9544   7.635  15.421  26.497  0.1342  0.0575  0.2141
  398BOLB   C1C 9545   8.202  15.551  26.509  0.0964  0.1675  0.0105
  398BOLB   C2C 9546   8.524  15.168  26.324  0.2147 -0.3768 -0.1944
  398BOLB   C3C 9547   8.870  14.902  26.015  0.3357 -0.0517 -0.2226
  398BOLB   C4C 9548   9.307  14.756  25.837  0.0143 -0.2065 -0.2057
  398BOLB   C1D 9549   7.726  15.437  26.059  0.0652 -0.2345 -0.4364
  398BOLB   C2D 9550   8.002  15.502  25.757  0.2872  0.0821 -0.1614
  398BOLB   C3D 9551   8.103  15.406  25.273  0.0925 -0.2359  0.0631
  398BOLB   C4D 9552   8.235  15.654  24.773 -0.0070  0.1779 -0.0753
  399BOLB   NC1 9553  18.879  23.531  21.362 -0.1388  0.1749  0.0919
  399BOLB   PO1 9554  18.946  23.912  20.977 -0.0336 -0.0438 -0.0646
  399BOLB   GL1 9555  19.168  24.230  21.266  0.0227  0.0209 -0.1033
  399BOLB   GL2 9556  19.397  24.493  21.169  0.2921  0.3162  0.0004
  399BOLB   C1A 9557  19.280  24.528  21.704 -0.0511  0.1617  0.1797
  399BOLB   C2A 9558  19.215  24.837  22.021  0.1957  0.0177  0.1473
  399BOLB   C3A 9559  19.276  24.862  22.407 -0.0043 -0.2831 -0.0548
  399BOLB   C4A 9560  19.211  25.273  22.579 -0.1009  0.2405 -0.1860
  399BOLB   C1B 9561  19.531  24.865  21.277 -0.2060  0.1285 -0.1407
  399BOLB   C2B 9562  19.801  25.178  21.349 -0.2120  0.3276  0.0837
  399BOLB   C3B 9563  20.037  25.500  21.597  0.0918 -0.1068 -0.0464
  399BOLB   C4B 9564  20.033  25.933  21.754  0.1296 -0.1087 -0.2904
  399BOLB   NC2 9565  18.405  27.310  23.887 -0.0867 -0.0787 -0.1340
  399BOLB   PO2 9566  18.294  27.144  23.521  0.1091  0.1598  0.2907
  399BOLB   GL3 9567  18.497  26.793  23.330 -0.0883  0.1523 -0.2145
  399BOLB   GL4 9568  18.302  26.610  23.152  0.0125 -0.1283 -0.3585
  399BOLB   C1C 9569  18.720  26.527  23.456  0.1224 -0.1122  0.0235
  399BOLB   C2C 9570  18.843  26.192  23.432  0.2273 -0.1040  0.0065
  399BOLB   C3C 9571  18.980  25.812  23.339  0.0933 -0.1510 -0.0445
  399BOLB   C4C 9572  19.245  25.576  22.896  0.4309 -0.1339 -0.2739
  399BOLB   C1D 9573  18.270  26.204  23.425 -0.1330 -0.0922  0.0328
  399BOLB   C2D 9574  18.168  25.783  23.716  0.0435 -0.0932  0.3216
  399BOLB   C3D 9575  18.166  25.307  23.715  0.3350  0.0073 -0.0686
  399BOLB   C4D 9576  17.820  25.105  23.579 -0.2510 -0.4387 -0.3319
  400BOLB   NC1 9577  11.045  14.902  24.234 -0.0060 -0.0182  0.0084
  400BOLB   PO1 9578  11.274  14.585  24.220 -0.0277 -0.2576  0.0672
  400BOLB   GL1 9579  11.161  14.597  24.651  0.1167 -0.2127 -0.1603
  400BOLB   GL2 9580  11.241  14.344  24.834 -0.1972 -0.3062 -0.0329
  400BOLB   C1A 9581  10.966  14.778  25.056  0.0834 -0.1067  0.0322
  400BOLB   C2A 9582  10.789  14.681  25.437 -0.1760 -0.1812  0.1272
  400BOLB   C3A 9583  10.486  14.594  25.733  0.3568  0.0367 -0.1911
  400BOLB   C4A 9584  10.313  14.353  26.178 -0.0114  0.0807 -0.1110
  400BOLB   C1B 9585  11.310  14.460  25.194  0.0773 -0.3569 -0.1834
  400BOLB   C2B 9586  11.210  14.499  25.710 -0.0594  0.1623 -0.0837
  400BOLB   C3B 9587  11.270  14.613  26.114  0.0353 -0.3335 -0.0198
  400BOLB   C4B 9588  11.187  14.706  26.432  0.3806  0.1813 -0.3665
  400BOLB   NC2 9589   9.941  15.402  28.431  0.2256 -0.2424  0.0372
  400BOLB   PO2 9590   9.751  14.937  28.199 -0.2473  0.1496 -0.2585
  400BOLB   GL3 9591   9.893  15.054  27.751  0.3175 -0.1461  0.1843
  400BOLB   GL4 9592  10.253  15.159  27.674  0.2625 -0.3852 -0.0455
  400BOLB   C1C 9593   9.865  14.919  27.374 -0.3509  0.0494  0.0625
  400BOLB   C2C 9594   9.915  14.453  27.185  0.0962 -0.0137 -0.1431
  400BOLB   C3C 9595  10.162  14.354  26.868  0.0362  0.3134 -0.2685
  400BOLB   C4C 9596  10.126  14.171  26.472 -0.0408  0.2046 -0.0249
  400BOLB   C1D 9597  10.337  15.585  27.619 -0.3607 -0.0791 -0.0652
  400BOLB   C2D 9598  10.191  15.872  27.299  0.2134  0.1823  0.2014
  400BOLB   C3D 9599  10.083  15.757  26.926 -0.3820 -0.2873  0.1573
  400BOLB   C4D 9600  10.304  15.734  26.492  0.2604  0.1087 -0.0930
  401BOLB   NC1 9601  10.568  12.269  23.285  0.2544  0.0939  0.2006
  401BOLB   PO1 9602  10.301  12.359  23.605 -0.1743  0.1145 -0.1491
  401BOLB   GL1 9603  10.042  12.381  23.938 -0.1894  0.1609 -0.0683
  401BOLB   GL2 9604  10.150  12.610  24.012 -0.0614  0.0852 -0.3233
  401BOLB   C1A 9605  10.016  12.248  24.353 -0.1213  0.0498  0.0444
  401BOLB   C2A 9606  10.187  12.100  24.681 -0.0267 -0.2551 -0.2663
  401BOLB   C3A 9607  10.154  12.157  25.155 -0.0259  0.1844  0.4377
  401BOLB   C4A 9608  10.389  12.097  25.508  0.3414  0.2430  0.1963
  401BOLB   C1B 9609  10.239  12.722  24.436 -0.0839  0.0884 -0.1984
  401BOLB   C2B 9610  10.183  12.700  24.840 -0.4294 -0.2400 -0.3376
  401BOLB   C3B 9611  10.081  12.786  25.222 -0.1233  0.1682  0.1710
  401BOLB   C4B 9612  10.041  12.480  25.585  0.1022 -0.2783  0.1364
  401BOLB   NC2 9613   9.829  11.963  27.842 -0.1505 -0.2375 -0.2748
  401BOLB   PO2 9614  10.264  12.011  27.942 -0.1885  0.2779  0.2449
  401BOLB   GL3 9615  10.212  12.200  27.520 -0.2332  0.1309 -0.3078
  401BOLB   GL4 9616   9.893  12.159  27.273  0.2197 -0.1559  0.1385
  401BOLB   C1C 9617  10.335  12.422  27.083 -0.2067  0.3669 -0.2410
  401BOLB   C2C 9618  10.576  12.123  26.794 -0.1641 -0.0964  0.1984
  401BOLB   C3C 9619  10.584  12.099  26.254 -0.0198  0.1814 -0.2813
  401BOLB   C4C 9620  10.461  11.983  25.831 -0.1058 -0.1780 -0.4643
  401BOLB   C1D 9621  10.251  11.822  27.187 -0.0245 -0.0084  0.1886
  401BOLB   C2D 9622  10.729  11.817  27.123  0.1073  0.2231  0.0513
  401BOLB   C3D 9623  11.092  11.859  26.906 -0.0036 -0.2454 -0.0532
  401BOLB   C4D 9624  11.492  12.078  27.016 -0.0835  0.1750  0.0759
  402BOLB   NC1 9625  19.775  18.653  23.253 -0.0517  0.1591  0.1162
  402BOLB   PO1 9626  19.852  18.595  23.584  0.0139 -0.1957  0.0264
  402BOLB   GL1 9627  20.054  18.747  23.960 -0.0196 -0.3317  0.1236
  402BOLB   GL2 9628  20.396  18.861  23.868 -0.0325  0.0480 -0.1507
  402BOLB   C1A 9629  20.350  18.765  24.386 -0.2627 -0.1329 -0.3021
  402BOLB   C2A 9630  20.373  18.893  24.900  0.0082  0.3208  0.2802
  402BOLB   C3A 9631  20.424  18.783  25.257  0.0086 -0.1711 -0.0838
  402BOLB   C4A 9632  20.531  18.629  25.767  0.1551  0.0324 -0.0592
  402BOLB   C1B 9633  20.719  19.083  24.200 -0.2583 -0.2126  0.1376
  402BOLB   C2B 9634  20.996  18.901  24.579 -0.1644 -0.1413  0.1326
  402BOLB   C3B 9635  21.293  19.011  24.963  0.0111  0.1812  0.3010
  402BOLB   C4B 9636  21.183  19.172  25.297  0.3266  0.1850  0.0394
  402BOLB   NC2 9637  21.802  18.864  27.840  0.0229 -0.1800 -0.0781
  402BOLB   PO2 9638  21.887  18.419  27.659  0.0618 -0.1487  0.2659
  402BOLB   GL3 9639  21.895  18.239  27.222  0.1427 -0.1283 -0.0422
  402BOLB   GL4 9640  22.166  18.310  27.000  0.0044  0.4544 -0.0134
  402BOLB   C1C 9641  21.569  18.071  26.922  0.2299 -0.2359 -0.0333
  402BOLB   C2C 9642  21.363  18.276  26.590 -0.3989 -0.1558 -0.0976
  402BOLB   C3C 9643  21.102  18.448  26.389  0.3467 -0.1710 -0.0941
  402BOLB   C4C 9644  20.888  18.617  26.020 -0.0661 -0.0732 -0.2009
  402BOLB   C1D 9645  21.917  18.260  26.617 -0.1872  0.4127  0.1185
  402BOLB   C2D 9646  21.709  18.190  26.226 -0.0683 -0.3015  0.1329
  402BOLB   C3D 9647  21.617  18.316  25.738  0.1640 -0.0208 -0.0993
  402BOLB   C4D 9648  21.665  18.183  25.347 -0.1009  0.1951 -0.3485
  403BOLB   NC1 9649  22.978  16.038  22.972 -0.0260  0.2977  0.1742
  403BOLB   PO1 9650  22.564  16.214  23.088 -0.2847 -0.3018  0.0518
  403BOLB   GL1 9651  22.380  16.410  23.497 -0.1245  0.0297 -0.3750
  403BOLB   GL2 9652  22.483  16.683  23.600 -0.2695  0.1593 -0.0471
  403BOLB   C1A 9653  22.056  16.598  23.872 -0.0026  0.1045 -0.0864
  403BOLB   C2A 9654  22.054  16.790  24.304  0.2716 -0.1478 -0.3742
  403BOLB   C3A 9655  22.137  17.011  24.691 -0.1027 -0.3406  0.3235
  403BOLB   C4A 9656  22.435  17.121  25.060 -0.1787  0.0496  0.2826
  403BOLB   C1B 9657  22.826  16.671  23.786  0.2528 -0.0029 -0.0050
  403BOLB   C2B 9658  23.039  16.612  24.174 -0.0396 -0.2411  0.0664
  403BOLB   C3B 9659  22.976  16.286  24.369 -0.0084  0.0385 -0.1043
  403BOLB   C4B 9660  23.101  16.196  24.785  0.1922 -0.0989  0.1949
  403BOLB   NC2 9661  23.780  17.335  27.108 -0.1271  0.1205  0.0032
  403BOLB   PO2 9662  23.487  16.951  27.193  0.0456  0.1647  0.0821
  403BOLB   GL3 9663  23.626  16.850  26.818 -0.0212  0.0430 -0.0868
  403BOLB   GL4 9664  23.461  16.673  26.713 -0.1525 -0.1624 -0.2612
  403BOLB   C1C 9665  23.532  17.094  26.426 -0.1195  0.3085  0.2408
  403BOLB   C2C 9666  23.204  17.028  26.146  0.3030 -0.3115  0.2908
  403BOLB   C3C 9667  22.956  17.179  25.864 -0.1175  0.2259  0.1165
  403BOLB   C4C 9668  22.824  17.319  25.362 -0.0413 -0.0658  0.1241
  403BOLB   C1D 9669  23.093  16.726  26.541  0.0205 -0.1320 -0.3181
  403BOLB   C2D 9670  23.070  16.547  26.079  0.1496 -0.0453  0.1910
  403BOLB   C3D 9671  22.807  16.664  25.838  0.1508  0.1125  0.1041
  403BOLB   C4D 9672  22.619  16.888  25.509  0.2333 -0.2672 -0.2747
  404BOLB   NC1 9673  15.175  12.389  24.028 -0.2740 -0.2118 -0.0818
  404BOLB   PO1 9674  15.080  12.691  24.261  0.1425  0.1422 -0.1305
  404BOLB   GL1 9675  14.890  12.565  24.501  0.3907  0.0751 -0.0319
  404BOLB   GL2 9676  14.869  12.838  24.753  0.1556  0.1139  0.2109
  404BOLB   C1A 9677  14.782  12.301  24.881  0.0269 -0.1617 -0.0464
  404BOLB   C2A 9678  14.901  12.190  25.266 -0.0033 -0.0302 -0.1162
  404BOLB   C3A 9679  14.857  12.366  25.622 -0.1179  0.0618 -0.0194
  404BOLB   C4A 9680  14.821  12.561  26.051  0.0424  0.2112  0.0734
  404BOLB   C1B 9681  15.127  12.805  25.180  0.2019 -0.0682 -0.5487
  404BOLB   C2B 9682  15.113  12.891  25.685 -0.1335  0.1282  0.2305
  404BOLB   C3B 9683  15.099  13.136  26.035  0.3308  0.0324  0.1223
  404BOLB   C4B 9684  14.808  13.425  26.142 -0.0109  0.0387  0.0689
  404BOLB   NC2 9685  14.965  12.562  28.268  0.1639 -0.3240 -0.3086
  404BOLB   PO2 9686  14.710  12.191  28.245  0.3188  0.2420  0.1597
  404BOLB   GL3 9687  14.737  12.427  27.772  0.0032  0.1652 -0.2981
  404BOLB   GL4 9688  15.050  12.568  27.792  0.3059 -0.3058  0.1807
  404BOLB   C1C 9689  14.735  12.709  27.460  0.1484  0.1227 -0.2721
  404BOLB   C2C 9690  14.975  12.916  27.212  0.1283  0.0237 -0.0244
  404BOLB   C3C 9691  14.974  12.911  26.789  0.3643  0.1155 -0.1627
  404BOLB   C4C 9692  15.090  12.755  26.431 -0.0053  0.1829 -0.3135
  404BOLB   C1D 9693  15.402  12.660  27.428  0.4646  0.0059 -0.2302
  404BOLB   C2D 9694  15.723  12.886  27.115 -0.2533  0.0640  0.0091
  404BOLB   C3D 9695  15.796  13.262  26.867  0.1716  0.0473  0.2222
  404BOLB   C4D 9696  15.618  13.637  27.004  0.2254 -0.0995 -0.0318
  405BOLB   NC1 9697  18.631  15.632  24.142  0.2804  0.1020 -0.1693
  405BOLB   PO1 9698  18.293  15.490  24.482  0.5013  0.0549 -0.2566
  405BOLB   GL1 9699  18.385  15.384  24.894 -0.0513  0.2834 -0.1199
  405BOLB   GL2 9700  18.631  15.125  25.024  0.0519 -0.0822  0.0159
  405BOLB   C1A 9701  18.273  15.438  25.206 -0.1366  0.3370 -0.0526
  405BOLB   C2A 9702  18.286  15.456  25.639  0.1379  0.0969 -0.0190
  405BOLB   C3A 9703  18.384  15.724  25.912 -0.0360  0.2823  0.0981
  405BOLB   C4A 9704  18.288  15.854  26.299 -0.1196 -0.0148  0.1303
  405BOLB   C1B 9705  18.660  15.136  25.432 -0.2525  0.0940  0.1219
  405BOLB   C2B 9706  18.642  15.206  25.889 -0.4284  0.1916  0.2219
  405BOLB   C3B 9707  18.407  15.367  26.266  0.2022 -0.0653 -0.0053
  405BOLB   C4B 9708  18.484  15.470  26.699  0.0137  0.1392 -0.1626
  405BOLB   NC2 9709  20.252  15.868  28.155 -0.2233 -0.0522  0.1645
  405BOLB   PO2 9710  19.785  15.955  28.121  0.0842 -0.2693  0.2496
  405BOLB   GL3 9711  19.475  16.225  27.855  0.0008 -0.1274  0.5743
  405BOLB   GL4 9712  19.143  16.126  27.876  0.2230  0.2095  0.1175
  405BOLB   C1C 9713  19.322  16.471  27.557  0.0261 -0.2824  0.1195
  405BOLB   C2C 9714  19.042  16.246  27.313 -0.4449 -0.1831  0.0164
  405BOLB   C3C 9715  18.826  16.015  27.002  0.0441 -0.1697 -0.2954
  405BOLB   C4C 9716  18.529  15.960  26.703 -0.1522 -0.1583  0.0741
  405BOLB   C1D 9717  18.720  16.458  27.704  0.0258  0.2097  0.1006
  405BOLB   C2D 9718  18.260  16.546  27.690 -0.0625 -0.2135  0.2131
  405BOLB   C3D 9719  17.817  16.665  27.750 -0.1025  0.2091  0.0511
  405BOLB   C4D 9720  17.787  16.949  28.072 -0.4575 -0.2261  0.0302
  406BOLB   NC1 9721  12.683  16.014  24.614  0.0425 -0.0186 -0.1155
  406BOLB   PO1 9722  12.227  16.019  24.520 -0.0135  0.0776  0.3829
  406BOLB   GL1 9723  12.424  15.988  25.010 -0.0131 -0.3039 -0.0703
  406BOLB   GL2 9724  12.787  15.844  25.101 -0.1304 -0.1165 -0.2923
  406BOLB   C1A 9725  12.347  16.221  25.347 -0.0742  0.0858  0.1346
  406BOLB   C2A 9726  12.173  16.438  25.701  0.0894 -0.2239 -0.0035
  406BOLB   C3A 9727  12.329  16.293  26.085 -0.0258 -0.0611 -0.0603
  406BOLB   C4A 9728  12.364  16.196  26.568  0.1588  0.2702  0.1074
  406BOLB   C1B 9729  12.737  15.807  25.534 -0.1055 -0.2175 -0.0157
  406BOLB   C2B 9730  12.765  15.607  25.982 -0.4315  0.2830 -0.0314
  406BOLB   C3B 9731  12.616  15.699  26.379 -0.1047  0.2821  0.0144
  406BOLB   C4B 9732  12.280  15.603  26.726 -0.1841  0.2577  0.2225
  406BOLB   NC2 9733  11.606  15.815  29.020  0.0915 -0.0269 -0.0625
  406BOLB   PO2 9734  11.996  15.669  28.688 -0.2923 -0.0514  0.2981
  406BOLB   GL3 9735  12.221  15.499  28.293 -0.1055 -0.1344 -0.0273
  406BOLB   GL4 9736  12.469  15.334  28.270 -0.0491 -0.0633  0.0224
  406BOLB   C1C 9737  12.366  15.620  27.862  0.3892 -0.3454  0.2525
  406BOLB   C2C 9738  12.368  15.625  27.428  0.1204  0.0759  0.1845
  406BOLB   C3C 9739  12.679  15.752  27.105 -0.1119 -0.0527 -0.0357
  406BOLB   C4C 9740  12.544  16.052  26.855  0.0436 -0.0688 -0.3226
  406BOLB   C1D 9741  12.661  15.149  27.911  0.2924 -0.1316  0.0943
  406BOLB   C2D 9742  12.633  14.812  27.645 -0.0411  0.0416 -0.1041
  406BOLB   C3D 9743  12.584  14.608  27.334 -0.1627  0.0451 -0.1517
  406BOLB   C4D 9744  12.403  14.464  27.004 -0.2067  0.0846 -0.0135
  407BOLB   NC1 9745  20.859  21.666  22.059  0.0409  0.0227  0.0628
  407BOLB   PO1 9746  20.726  21.249  22.347 -0.0069 -0.1212 -0.0653
  407BOLB   GL1 9747  20.953  21.549  22.604 -0.2461 -0.0172  0.4744
  407BOLB   GL2 9748  21.280  21.439  22.583 -0.0471 -0.0035  0.0679
  407BOLB   C1A 9749  21.120  21.694  23.016 -0.0184 -0.0509  0.2671
  407BOLB   C2A 9750  21.257  21.686  23.467  0.0471 -0.0888  0.1055
  407BOLB   C3A 9751  21.673  21.721  23.633 -0.2049 -0.4859  0.0528
  407BOLB   C4A 9752  21.763  21.875  24.027  0.1515  0.0230  0.0727
  407BOLB   C1B 9753  21.609  21.524  23.042  0.2945 -0.4912  0.0030
  407BOLB   C2B 9754  21.761  21.323  23.406 -0.3228  0.0976  0.0408
  407BOLB   C3B 9755  22.014  21.404  23.812  0.1646 -0.0959 -0.2947
  407BOLB   C4B 9756  22.147  21.053  24.136  0.0019 -0.1148 -0.1644
  407BOLB   NC2 9757  21.867  23.938  25.601 -0.0113 -0.4899  0.0799
  407BOLB   PO2 9758  22.098  23.727  25.575 -0.1367  0.1102 -0.0014
  407BOLB   GL3 9759  21.931  23.432  25.315  0.1027  0.0239 -0.0423
  407BOLB   GL4 9760  21.703  23.689  25.142  0.0274 -0.0316  0.2499
  407BOLB   C1C 9761  22.038  23.052  25.082 -0.1340  0.3528  0.1644
  407BOLB   C2C 9762  21.751  22.839  24.803  0.0562  0.3917  0.2146
  407BOLB   C3C 9763  21.713  22.688  24.404  0.5019 -0.0261 -0.3248
  407BOLB   C4C 9764  21.818  22.211  24.279 -0.3543  0.1808  0.2489
  407BOLB   C1D 9765  21.196  23.767  25.047 -0.1120 -0.1720  0.0994
  407BOLB   C2D 9766  20.913  23.562  24.738 -0.1484 -0.0790 -0.0107
  407BOLB   C3D 9767  20.906  23.435  24.319  0.4817 -0.1823 -0.1620
  407BOLB   C4D 9768  20.957  23.470  23.888  0.4648  0.0902  0.1328
  408BOLB   NC1 9769  10.612  28.476  19.786  0.1971  0.1939 -0.4356
  408BOLB   PO1 9770  10.546  28.136  20.148  0.0535 -0.2441 -0.0755
  408BOLB   GL1 9771  10.442  28.001  20.489  0.0283 -0.1104  0.0182
  408BOLB   GL2 9772  10.270  28.140  20.701  0.1484  0.2723 -0.1131
  408BOLB   C1A 9773  10.894  27.742  20.622  0.0079 -0.1306 -0.0835
  408BOLB   C2A 9774  11.268  27.704  20.531 -0.1962  0.1902  0.0082
  408BOLB   C3A 9775  11.767  27.644  20.543  0.3949  0.2064 -0.0364
  408BOLB   C4A 9776  11.975  27.744  20.900 -0.1916 -0.0183  0.0935
  408BOLB   C1B 9777  10.721  28.054  20.931 -0.0042 -0.1099 -0.3385
  408BOLB   C2B 9778  11.074  28.164  20.956  0.2735 -0.2041  0.4528
  408BOLB   C3B 9779  11.354  28.430  21.142 -0.2627  0.2591 -0.2857
  408BOLB   C4B 9780  11.799  28.481  21.144  0.0181 -0.3194  0.0756
  408BOLB   NC2 9781  13.207  30.238  21.236  0.0180 -0.0571  0.0783
  408BOLB   PO2 9782  13.302  29.845  21.477 -0.1948 -0.1242  0.1236
  408BOLB   GL3 9783  13.204  29.337  21.368  0.0416  0.3101 -0.0950
  408BOLB   GL4 9784  13.194  29.163  21.663 -0.3833  0.1005 -0.2343
  408BOLB   C1C 9785  13.048  28.963  21.205  0.0085  0.2364  0.2404
  408BOLB   C2C 9786  12.641  28.806  21.123 -0.0968  0.2237 -0.0319
  408BOLB   C3C 9787  12.535  28.412  20.949  0.2233  0.0800  0.0256
  408BOLB   C4C 9788  12.077  28.174  20.883  0.2044  0.1326 -0.1886
  408BOLB   C1D 9789  13.422  28.818  21.488  0.1352  0.0478 -0.0252
  408BOLB   C2D 9790  13.510  28.299  21.574  0.0398 -0.0133 -0.0635
  408BOLB   C3D 9791  13.383  27.966  21.225  0.2737  0.1454  0.0267
  408BOLB   C4D 9792  13.524  27.650  20.926 -0.0879 -0.2419  0.0028
  409BOLB   NC1 9793  14.061  19.498  24.568 -0.2111  0.1369  0.1987
  409BOLB   PO1 9794  14.166  19.771  24.113 -0.0597  0.0613 -0.1311
  409BOLB   GL1 9795  14.104  20.046  24.523  0.0862  0.1904 -0.1672
  409BOLB   GL2 9796  13.831  19.930  24.638 -0.0021  0.0447 -0.0284
  409BOLB   C1A 9797  14.152  20.201  24.937 -0.0707 -0.2764  0.1031
  409BOLB   C2A 9798  14.059  20.608  25.080  0.1860 -0.3039  0.0515
  409BOLB   C3A 9799  13.863  20.898  25.129  0.4725 -0.0808 -0.1953
  409BOLB   C4A 9800  13.610  21.002  25.367  0.3787  0.0953 -0.0119
  409BOLB   C1B 9801  13.629  19.912  25.053  0.2039  0.2132 -0.0972
  409BOLB   C2B 9802  13.460  20.173  25.351  0.3520 -0.2164 -0.0688
  409BOLB   C3B 9803  13.727  20.526  25.464  0.2050 -0.2568  0.0083
  409BOLB   C4B 9804  14.033  20.887  25.620 -0.0371  0.2011  0.0480
  409BOLB   NC2 9805  14.288  21.532  27.405  0.0075  0.0150 -0.1799
  409BOLB   PO2 9806  13.966  21.535  27.730 -0.0703 -0.0970  0.0856
  409BOLB   GL3 9807  13.736  21.624  27.391 -0.3480  0.4741 -0.0968
  409BOLB   GL4 9808  13.460  21.559  27.481  0.0277 -0.2616 -0.0577
  409BOLB   C1C 9809  13.663  21.611  26.907  0.0250 -0.2414  0.2173
  409BOLB   C2C 9810  13.541  21.630  26.434  0.4368 -0.2668  0.0248
  409BOLB   C3C 9811  13.445  21.599  26.027  0.0527 -0.2918  0.2069
  409BOLB   C4C 9812  13.672  21.370  25.651  0.0461  0.0634  0.1031
  409BOLB   C1D 9813  13.312  21.263  27.156  0.1363 -0.0910  0.1371
  409BOLB   C2D 9814  13.307  21.053  26.688 -0.0149 -0.0270 -0.2614
  409BOLB   C3D 9815  13.436  20.650  26.480 -0.0911  0.0086  0.0904
  409BOLB   C4D 9816  13.601  20.296  26.324 -0.1548  0.1327  0.1242
  410BOLB   NC1 9817  15.455  13.766  24.567 -0.2445  0.1902 -0.1023
  410BOLB   PO1 9818  15.003  13.787  24.827  0.2230 -0.0161 -0.0335
  410BOLB   GL1 9819  15.359  13.878  25.156 -0.1803  0.0929  0.1693
  410BOLB   GL2 9820  15.211  13.874  25.413  0.0969 -0.2921  0.1790
  410BOLB   C1A 9821  15.679  13.842  25.484  0.0108 -0.0389  0.0871
  410BOLB   C2A 9822  15.739  13.765  25.849  0.1502  0.0224  0.1336
  410BOLB   C3A 9823  16.039  13.704  26.115  0.1606 -0.0286 -0.1247
  410BOLB   C4A 9824  16.419  13.833  26.395  0.2798 -0.0468  0.1366
  410BOLB   C1B 9825  15.199  13.704  25.770 -0.1031 -0.1873 -0.1318
  410BOLB   C2B 9826  15.321  13.667  26.129 -0.0260 -0.0060 -0.1493
  410BOLB   C3B 9827  15.716  13.707  26.514 -0.0878  0.1367 -0.3196
  410BOLB   C4B 9828  16.041  13.778  26.712  0.0837  0.0640 -0.1236
  410BOLB   NC2 9829  16.825  14.102  28.848  0.5158 -0.3398  0.3471
  410BOLB   PO2 9830  16.577  13.730  28.721 -0.1420 -0.1343 -0.0377
  410BOLB   GL3 9831  16.443  13.630  28.427  0.0621 -0.0804  0.1207
  410BOLB   GL4 9832  16.468  13.416  28.200  0.0247  0.1772 -0.2320
  410BOLB   C1C 9833  16.286  13.844  28.027 -0.5032  0.1747 -0.0023
  410BOLB   C2C 9834  16.356  13.769  27.643 -0.1103  0.1022  0.3618
  410BOLB   C3C 9835  16.300  13.732  27.198 -0.0540 -0.0854  0.0208
  410BOLB   C4C 9836  16.532  13.782  26.801 -0.0108 -0.0667  0.0152
  410BOLB   C1D 9837  16.769  13.536  27.930  0.1952  0.2846 -0.1164
  410BOLB   C2D 9838  16.804  13.595  27.436 -0.1208  0.1846  0.1169
  410BOLB   C3D 9839  16.742  13.361  27.084  0.0851 -0.1197  0.0676
  410BOLB   C4D 9840  16.710  13.228  26.687  0.3780  0.1284  0.0817
  411BOLB   NC1 9841  22.165  24.415  19.815  0.3025 -0.0430 -0.2378
  411BOLB   PO1 9842  22.128  24.567  20.276 -0.3164  0.1859  0.0952
  411BOLB   GL1 9843  22.082  24.671  20.674  0.2458 -0.0653 -0.2930
  411BOLB   GL2 9844  22.351  24.580  20.805  0.2476  0.0216 -0.7306
  411BOLB   C1A 9845  21.836  24.887  21.086 -0.0889  0.3417  0.0636
  411BOLB   C2A 9846  21.593  25.201  21.286  0.1505 -0.0084 -0.3841
  411BOLB   C3A 9847  21.446  25.294  21.671 -0.0214 -0.0696 -0.0477
  411BOLB   C4A 9848  21.255  25.669  21.852  0.2911 -0.3367 -0.1520
  411BOLB   C1B 9849  22.129  24.541  21.303  0.1057 -0.1632 -0.2629
  411BOLB   C2B 9850  22.132  24.615  21.708 -0.2363 -0.4205 -0.1100
  411BOLB   C3B 9851  21.993  24.735  22.020  0.0626  0.1894  0.1547
  411BOLB   C4B 9852  21.819  25.048  21.902 -0.0083  0.1575 -0.0287
  411BOLB   NC2 9853  22.507  27.999  22.221  0.1293  0.1557  0.3342
  411BOLB   PO2 9854  22.226  27.660  22.313 -0.2433 -0.2319  0.1325
  411BOLB   GL3 9855  21.987  27.377  22.276  0.0867 -0.1403  0.0222
  411BOLB   GL4 9856  21.794  27.382  22.012 -0.0281 -0.1444  0.1351
  411BOLB   C1C 9857  21.694  26.949  22.238 -0.2813  0.1826  0.2063
  411BOLB   C2C 9858  21.229  26.791  22.363 -0.1387 -0.1181 -0.0405
  411BOLB   C3C 9859  21.169  26.373  22.219  0.0126 -0.1927 -0.0709
  411BOLB   C4C 9860  21.365  25.989  22.120 -0.0801  0.2681  0.1439
  411BOLB   C1D 9861  21.840  27.128  21.675 -0.2744  0.0039 -0.0925
  411BOLB   C2D 9862  21.677  26.707  21.609 -0.0768 -0.0166 -0.1329
  411BOLB   C3D 9863  21.427  26.575  21.253 -0.3529  0.1275 -0.2502
  411BOLB   C4D 9864  21.214  26.209  21.278 -0.0528 -0.2198  0.0829
  412BOLB   NC1 9865  13.842  23.990  21.720 -0.2792 -0.2548 -0.5406
  412BOLB   PO1 9866  14.240  23.788  21.846  0.3784 -0.1967  0.0203
  412BOLB   GL1 9867  14.382  24.108  22.164 -0.1145 -0.1721 -0.1513
  412BOLB   GL2 9868  14.359  24.395  22.085 -0.1261  0.1903  0.1389
  412BOLB   C1A 9869  14.445  24.263  22.560 -0.0298  0.0661  0.0012
  412BOLB   C2A 9870  14.657  24.357  22.885  0.3880  0.1923 -0.0739
  412BOLB   C3A 9871  14.873  24.691  22.910  0.1783 -0.1909 -0.3832
  412BOLB   C4A 9872  15.144  25.024  23.072 -0.3575  0.0920  0.3241
  412BOLB   C1B 9873  14.111  24.720  22.383 -0.1008  0.0911  0.0395
  412BOLB   C2B 9874  13.692  24.761  22.497  0.1160  0.1173 -0.3689
  412BOLB   C3B 9875  13.303  24.605  22.456 -0.1726 -0.1290  0.0518
  412BOLB   C4B 9876  12.937  24.288  22.360 -0.1409  0.2699  0.0169
  412BOLB   NC2 9877  16.184  27.243  24.075 -0.3064  0.0531 -0.2613
  412BOLB   PO2 9878  15.910  26.918  24.299  0.0571  0.1346  0.1820
  412BOLB   GL3 9879  15.812  26.561  24.196  0.0426 -0.1605 -0.2018
  412BOLB   GL4 9880  15.913  26.561  23.830 -0.1820 -0.2259  0.2684
  412BOLB   C1C 9881  15.516  26.203  24.164 -0.2463 -0.0932  0.0422
  412BOLB   C2C 9882  15.455  25.780  24.084 -0.1498 -0.0019 -0.1153
  412BOLB   C3C 9883  15.314  25.359  23.858 -0.2783 -0.1781 -0.3214
  412BOLB   C4C 9884  15.373  25.078  23.463 -0.0754 -0.0567  0.2327
  412BOLB   C1D 9885  15.654  26.166  23.703 -0.0380 -0.1593  0.0488
  412BOLB   C2D 9886  15.292  25.898  23.612  0.0991  0.3781 -0.0620
  412BOLB   C3D 9887  15.211  25.570  23.347 -0.2933 -0.4750 -0.4587
  412BOLB   C4D 9888  14.873  25.185  23.431  0.2157 -0.0610 -0.3033
  413BOLB   NC1 9889  18.704  12.922  23.130  0.4160  0.0707  0.0773
  413BOLB   PO1 9890  19.160  13.076  23.493 -0.0800  0.0866 -0.0402
  413BOLB   GL1 9891  19.421  12.889  23.863  0.2164  0.1692  0.1145
  413BOLB   GL2 9892  19.581  13.202  24.079  0.3373  0.3444 -0.3504
  413BOLB   C1A 9893  19.496  12.634  24.145 -0.1224 -0.2353  0.1522
  413BOLB   C2A 9894  19.449  12.306  24.414 -0.2976  0.0513 -0.1413
  413BOLB   C3A 9895  19.371  12.174  24.855  0.1854  0.0184 -0.1538
  413BOLB   C4A 9896  19.427  11.856  25.294  0.2795 -0.0843 -0.3674
  413BOLB   C1B 9897  19.687  13.162  24.460  0.0614  0.4575 -0.0358
  413BOLB   C2B 9898  19.980  13.362  24.800 -0.0805 -0.2271 -0.0277
  413BOLB   C3B 9899  20.000  13.436  25.261 -0.0717  0.0718 -0.2354
  413BOLB   C4B 9900  20.069  13.155  25.593  0.3298  0.1052  0.2089
  413BOLB   NC2 9901  19.180  11.255  27.479  0.0638  0.1307  0.2302
  413BOLB   PO2 9902  18.865  10.966  27.381 -0.0555  0.0513 -0.0428
  413BOLB   GL3 9903  18.946  11.270  27.001 -0.1399  0.0574 -0.0039
  413BOLB   GL4 9904  18.669  11.289  26.767  0.0790 -0.1260 -0.3312
  413BOLB   C1C 9905  19.114  11.221  26.568  0.1609  0.0290  0.2454
  413BOLB   C2C 9906  18.948  11.403  26.185  0.3101 -0.1419  0.0842
  413BOLB   C3C 9907  18.965  11.379  25.762  0.1027  0.1116  0.4177
  413BOLB   C4C 9908  19.151  11.667  25.475 -0.1954 -0.1822 -0.1489
  413BOLB   C1D 9909  18.620  11.736  26.925  0.0159 -0.1177 -0.1623
  413BOLB   C2D 9910  18.390  11.961  27.145 -0.0971 -0.1780  0.1461
  413BOLB   C3D 9911  18.417  12.400  26.932  0.0117 -0.0364 -0.0225
  413BOLB   C4D 9912  18.734  12.786  26.897 -0.0301  0.2635  0.1800
  414BOLB   NC1 9913  18.689  20.387  23.636  0.3036 -0.1038 -0.1973
  414BOLB   PO1 9914  18.281  20.538  23.802 -0.2476  0.1356  0.2273
  414BOLB   GL1 9915  18.480  20.681  24.084  0.0565  0.0853  0.1705
  414BOLB   GL2 9916  18.830  20.712  24.005 -0.0826 -0.0889  0.1409
  414BOLB   C1A 9917  18.446  20.680  24.503 -0.1057  0.3079  0.1446
  414BOLB   C2A 9918  18.619  20.824  24.859  0.1567  0.0053 -0.3494
  414BOLB   C3A 9919  18.891  20.897  25.202 -0.0079 -0.0690  0.1083
  414BOLB   C4A 9920  19.089  20.942  25.589  0.2309 -0.0629 -0.1421
  414BOLB   C1B 9921  18.972  20.575  24.393  0.1614 -0.3805  0.2241
  414BOLB   C2B 9922  19.160  20.598  24.698  0.0381  0.1896 -0.2705
  414BOLB   C3B 9923  19.302  20.421  25.081  0.1168 -0.0647  0.2761
  414BOLB   C4B 9924  19.664  20.476  25.239  0.0098  0.0933  0.4036
  414BOLB   NC2 9925  18.045  20.623  27.812 -0.1423 -0.1540 -0.1632
  414BOLB   PO2 9926  18.472  20.547  27.870 -0.2340 -0.0272  0.0819
  414BOLB   GL3 9927  18.444  20.628  27.413 -0.0586  0.0763 -0.1718
  414BOLB   GL4 9928  18.132  20.476  27.329 -0.0149 -0.1459 -0.2079
  414BOLB   C1C 9929  18.747  20.714  27.094  0.0344  0.0013  0.4124
  414BOLB   C2C 9930  19.061  21.020  26.897 -0.0620 -0.1088  0.2090
  414BOLB   C3C 9931  19.320  20.929  26.472 -0.0331  0.1374 -0.1379
  414BOLB   C4C 9932  19.103  21.055  26.136 -0.0701 -0.0932  0.1221
  414BOLB   C1D 9933  18.029  20.021  27.256  0.0099 -0.1914  0.2021
  414BOLB   C2D 9934  17.989  19.603  27.099  0.2145  0.0993  0.3311
  414BOLB   C3D 9935  17.685  19.365  26.862  0.1192 -0.1645 -0.4011
  414BOLB   C4D 9936  17.587  19.031  26.716  0.1085 -0.0020  0.0551
  415BOLB   NC1 9937  13.276  17.081  24.816 -0.3350  0.2466  0.5131
  415BOLB   PO1 9938  13.658  17.054  24.912 -0.3694 -0.2181 -0.3943
  415BOLB   GL1 9939  13.688  17.263  25.335 -0.0425 -0.3233 -0.0421
  415BOLB   GL2 9940  13.970  17.290  25.624 -0.1509 -0.0898 -0.0387
  415BOLB   C1A 9941  13.425  17.308  25.702  0.3468 -0.2756 -0.0156
  415BOLB   C2A 9942  13.437  17.526  26.106 -0.2604  0.1235 -0.0163
  415BOLB   C3A 9943  13.447  17.579  26.565 -0.1880  0.4011 -0.5424
  415BOLB   C4A 9944  13.513  17.645  27.031 -0.0747 -0.3228  0.1771
  415BOLB   C1B 9945  13.977  17.365  26.133  0.0312 -0.2519  0.1528
  415BOLB   C2B 9946  14.124  17.611  26.495 -0.0258  0.3830  0.0286
  415BOLB   C3B 9947  14.081  17.824  26.877 -0.1120  0.1010  0.0223
  415BOLB   C4B 9948  14.116  18.268  27.115 -0.3772  0.0696 -0.3594
  415BOLB   NC2 9949  14.572  17.966  28.835 -0.0393 -0.0947  0.2034
  415BOLB   PO2 9950  14.398  17.603  29.112 -0.0099 -0.0889 -0.2258
  415BOLB   GL3 9951  14.442  17.452  28.680 -0.1325 -0.0314 -0.2069
  415BOLB   GL4 9952  14.446  17.133  28.577 -0.1437  0.0949 -0.2650
  415BOLB   C1C 9953  14.203  17.470  28.301  0.1473  0.0056 -0.1952
  415BOLB   C2C 9954  13.932  17.225  28.097  0.2720 -0.2030 -0.0804
  415BOLB   C3C 9955  13.838  17.360  27.724 -0.0900  0.2867 -0.2318
  415BOLB   C4C 9956  13.455  17.614  27.477 -0.1648  0.0620 -0.1572
  415BOLB   C1D 9957  14.358  16.975  28.202 -0.2111  0.0016 -0.4389
  415BOLB   C2D 9958  14.335  17.161  27.877 -0.1063 -0.1744 -0.0904
  415BOLB   C3D 9959  14.212  16.991  27.439 -0.1240 -0.1710 -0.0064
  415BOLB   C4D 9960  14.440  16.875  26.967  0.2644  0.2653  0.3438
  416BOLB   NC1 9961  19.927  22.530  21.493 -0.0856  0.1060  0.1164
  416BOLB   PO1 9962  20.184  22.431  21.863  0.0122 -0.3367  0.1558
  416BOLB   GL1 9963  20.283  22.833  22.197 -0.0838 -0.1321  0.0015
  416BOLB   GL2 9964  20.600  22.731  22.346  0.1399  0.0877  0.1656
  416BOLB   C1A 9965  20.296  23.169  22.400 -0.0221 -0.1389 -0.0528
  416BOLB   C2A 9966  20.047  23.407  22.693  0.2143 -0.3101  0.3672
  416BOLB   C3A 9967  19.868  23.872  22.806 -0.0758 -0.2603 -0.1205
  416BOLB   C4A 9968  19.924  24.312  22.967 -0.3640  0.2897  0.1081
  416BOLB   C1B 9969  20.699  22.943  22.622  0.1227 -0.3720 -0.1799
  416BOLB   C2B 9970  20.967  23.200  22.910 -0.0624  0.1408  0.0849
  416BOLB   C3B 9971  21.132  23.252  23.339 -0.0807 -0.1317 -0.2160
  416BOLB   C4B 9972  21.476  23.175  23.596 -0.2915 -0.0117 -0.0084
  416BOLB   NC2 9973  18.859  25.997  25.131 -0.0830  0.0008 -0.1279
  416BOLB   PO2 9974  18.647  25.856  24.705 -0.0313 -0.3589 -0.1850
  416BOLB   GL3 9975  18.756  25.637  24.269  0.1336  0.3563  0.1856
  416BOLB   GL4 9976  18.394  25.466  24.149 -0.0068 -0.0949 -0.1496
  416BOLB   C1C 9977  19.042  25.653  23.883 -0.4283  0.0654 -0.1132
  416BOLB   C2C 9978  19.237  25.430  23.443  0.1296  0.3907 -0.1665
  416BOLB   C3C 9979  19.356  24.958  23.355 -0.0513  0.2949  0.2684
  416BOLB   C4C 9980  19.790  24.677  23.196 -0.0528 -0.0719 -0.0236
  416BOLB   C1D 9981  18.643  25.369  23.788 -0.0596  0.2701  0.2749
  416BOLB   C2D 9982  18.680  25.354  23.367  0.0657 -0.5615 -0.1415
  416BOLB   C3D 9983  18.723  25.496  22.852 -0.0774 -0.1940 -0.1565
  416BOLB   C4D 9984  18.487  25.776  22.549  0.1023  0.1147 -0.0721
  417BOLB   NC1 9985  11.259  16.525  24.237 -0.0593  0.1821 -0.0510
  417BOLB   PO1 9986  10.972  16.853  24.009  0.2720 -0.0423 -0.1262
  417BOLB   GL1 9987  10.932  16.780  24.459  0.0469 -0.0564  0.1518
  417BOLB   GL2 9988  11.106  16.593  24.702 -0.0301  0.1234 -0.0680
  417BOLB   C1A 9989  10.514  16.673  24.705 -0.0213 -0.2375 -0.0283
  417BOLB   C2A 9990  10.382  16.361  25.009  0.1661  0.0331 -0.2161
  417BOLB   C3A 9991  10.327  16.180  25.372 -0.0183  0.2484  0.0585
  417BOLB   C4A 9992  10.080  16.195  25.815 -0.1681  0.2960 -0.0869
  417BOLB   C1B 9993  10.933  16.674  25.073  0.1396 -0.2121  0.0062
  417BOLB   C2B 9994  11.102  16.735  25.591  0.1221  0.2840  0.0211
  417BOLB   C3B 9995  10.896  16.595  25.975 -0.1057 -0.4331  0.4312
  417BOLB   C4B 9996  10.962  16.157  26.181 -0.2412 -0.3228 -0.0227
  417BOLB   NC2 9997   8.716  16.915  27.458  0.0612 -0.1484 -0.1173
  417BOLB   PO2 9998   9.069  16.803  27.768 -0.1132 -0.0998  0.0407
  417BOLB   GL3 9999   9.134  16.596  27.281  0.0593 -0.1576  0.1433
  417BOLB   GL410000   8.990  16.290  27.423 -0.0297  0.1526  0.0164
  417BOLB   C1C10001   9.437  16.251  27.098  0.0122 -0.0577  0.2730
  417BOLB   C2C10002   9.829  16.202  26.915  0.0427  0.0378 -0.0616
  417BOLB   C3C10003  10.022  16.152  26.547 -0.0657  0.4430 -0.0583
  417BOLB   C4C10004   9.995  16.129  26.166 -0.2833  0.1326 -0.0287
  417BOLB   C1D10005   8.720  16.387  27.127 -0.0433 -0.0300  0.0122
  417BOLB   C2D10006   8.903  16.345  26.620 -0.2353 -0.1779 -0.0060
  417BOLB   C3D10007   9.115  16.417  26.237  0.1206  0.0443  0.2937
  417BOLB   C4D10008   9.463  16.360  25.996 -0.0049 -0.1789 -0.0689
  418BOLB   NC110009  21.839  13.821  23.006  0.3882  0.0418 -0.0189
  418BOLB   PO110010  22.053  13.509  23.238 -0.1346 -0.0381 -0.4602
  418BOLB   GL110011  22.229  13.472  23.601  0.2422  0.1733 -0.1951
  418BOLB   GL210012  22.369  13.800  23.612 -0.1028 -0.2382  0.0633
  418BOLB   C1A10013  22.434  13.214  23.883  0.3095  0.2469 -0.0764
  418BOLB   C2A10014  22.685  12.858  23.973  0.3333  0.0161  0.3712
  418BOLB   C3A10015  23.106  12.849  24.057 -0.1062 -0.1435 -0.1113
  418BOLB   C4A10016  23.432  13.040  23.943 -0.0036 -0.1360 -0.1081
  418BOLB   C1B10017  22.554  13.757  24.076 -0.0645  0.0348 -0.2348
  418BOLB   C2B10018  22.406  13.440  24.334  0.1169  0.2283 -0.1236
  418BOLB   C3B10019  22.367  13.042  24.372  0.2340  0.1006 -0.1585
  418BOLB   C4B10020  22.218  12.702  24.710 -0.0502  0.0464 -0.1406
  418BOLB   NC210021  24.701  12.198  26.111  0.0909  0.1792  0.4510
  418BOLB   PO210022  24.366  11.943  25.972 -0.0241  0.2884 -0.0744
  418BOLB   GL310023  24.099  11.951  25.566 -0.1121 -0.0407 -0.4016
  418BOLB   GL410024  24.293  11.834  25.292 -0.3295  0.1256 -0.1514
  418BOLB   C1C10025  23.945  12.203  25.236  0.0445 -0.0801 -0.0179
  418BOLB   C2C10026  23.764  12.342  24.874  0.0388  0.0198  0.1785
  418BOLB   C3C10027  23.828  12.582  24.535  0.1024  0.0657 -0.1947
  418BOLB   C4C10028  23.687  12.868  24.187 -0.1315 -0.1822  0.2031
  418BOLB   C1D10029  24.266  11.707  24.827 -0.0014 -0.3895  0.0351
  418BOLB   C2D10030  23.998  11.664  24.518 -0.3492  0.1822  0.0118
  418BOLB   C3D10031  23.861  11.568  24.141 -0.0696  0.1587 -0.0009
  418BOLB   C4D10032  23.546  11.580  23.912 -0.0553  0.0945  0.0591
  419BOLB   NC110033  12.271  14.783  25.019 -0.3562 -0.0522 -0.2721
  419BOLB   PO110034  12.472  14.359  25.168  0.1544 -0.1025  0.1708
  419BOLB   GL110035  12.227  14.554  25.448  0.2248  0.1519  0.1944
  419BOLB   GL210036  12.436  14.898  25.453  0.0075 -0.2978 -0.1676
  419BOLB   C1A10037  12.186  14.312  25.869  0.1667 -0.0395 -0.0389
  419BOLB   C2A10038  12.276  14.424  26.159 -0.1643 -0.0879 -0.6801
  419BOLB   C3A10039  12.119  14.852  26.419  0.0472  0.0462  0.1693
  419BOLB   C4A10040  12.134  15.065  26.753 -0.2123 -0.1319  0.3685
  419BOLB   C1B10041  12.746  14.621  25.748  0.2110 -0.0012  0.2257
  419BOLB   C2B10042  12.710  14.166  25.983  0.2326 -0.2145  0.0141
  419BOLB   C3B10043  12.377  13.971  26.331 -0.0212 -0.2829 -0.0577
  419BOLB   C4B10044  12.113  14.162  26.582  0.2867  0.1232 -0.0177
  419BOLB   NC210045  11.799  14.565  28.848 -0.0857 -0.0598 -0.1455
  419BOLB   PO210046  11.425  14.526  28.680  0.0893 -0.3395  0.0928
  419BOLB   GL310047  11.491  14.967  28.515  0.1726 -0.1593 -0.0806
  419BOLB   GL410048  11.367  15.052  28.233  0.1912  0.2912  0.0015
  419BOLB   C1C10049  11.835  15.220  28.314  0.0613  0.4222  0.0314
  419BOLB   C2C10050  12.153  15.152  27.892  0.0948  0.0195  0.0833
  419BOLB   C3C10051  12.292  15.138  27.590  0.1750 -0.0953 -0.0007
  419BOLB   C4C10052  12.193  15.283  27.139 -0.0523  0.2892 -0.1859
  419BOLB   C1D10053  11.261  14.835  27.895 -0.4863 -0.2681 -0.1610
  419BOLB   C2D10054  11.173  14.776  27.497 -0.1987  0.0199 -0.3026
  419BOLB   C3D10055  11.015  14.691  27.108  0.2712 -0.1260 -0.1499
  419BOLB   C4D10056  10.850  14.667  26.753  0.0161 -0.1837 -0.2315
  420BOLB   NC110057  13.732   9.224  22.808  0.2534  0.0785 -0.2933
  420BOLB   PO110058  14.132   9.199  22.618 -0.1307 -0.2369  0.1545
  420BOLB   GL110059  14.242   8.883  22.838  0.2895 -0.2068  0.0283
  420BOLB   GL210060  14.073   8.905  23.117  0.3087  0.3697  0.1189
  420BOLB   C1A10061  14.586   8.512  23.022 -0.0465  0.1103 -0.2487
  420BOLB   C2A10062  14.680   8.340  23.454  0.1174  0.4171  0.0838
  420BOLB   C3A10063  14.760   8.203  23.768 -0.2844  0.4282  0.2067
  420BOLB   C4A10064  14.941   8.109  24.208 -0.0914 -0.1314 -0.2641
  420BOLB   C1B10065  14.308   8.716  23.393 -0.3328 -0.2746  0.0256
  420BOLB   C2B10066  14.450   8.663  23.800 -0.3592  0.0870  0.1481
  420BOLB   C3B10067  14.499   8.459  24.143 -0.1333 -0.0844  0.0780
  420BOLB   C4B10068  14.627   8.474  24.579 -0.0904 -0.2220  0.0002
  420BOLB   NC210069  14.603   6.600  25.968  0.6324  0.1819 -0.0404
  420BOLB   PO210070  14.401   7.019  26.068  0.1332 -0.0352 -0.1485
  420BOLB   GL310071  14.325   7.374  25.810  0.1371 -0.0942 -0.0305
  420BOLB   GL410072  14.025   7.493  25.918  0.0168 -0.2516  0.3227
  420BOLB   C1C10073  14.464   7.747  25.711 -0.1098  0.1232  0.0234
  420BOLB   C2C10074  14.731   7.917  25.468  0.1189 -0.0337  0.0656
  420BOLB   C3C10075  14.814   8.184  25.113  0.0657  0.0857  0.1370
  420BOLB   C4C10076  14.965   8.138  24.730 -0.0457 -0.2649  0.0805
  420BOLB   C1D10077  13.761   7.502  25.648  0.0644  0.2473  0.0550
  420BOLB   C2D10078  13.751   7.652  25.257 -0.1416  0.1990  0.1341
  420BOLB   C3D10079  13.951   7.744  24.830 -0.2702 -0.0237  0.1844
  420BOLB   C4D10080  14.042   8.093  24.656 -0.0812  0.0045 -0.0036
  421BOLB   NC110081   9.012  14.809  22.765 -0.1906 -0.1215  0.1108
  421BOLB   PO110082   8.807  14.691  23.106  0.1503  0.1119  0.0963
  421BOLB   GL110083   8.604  14.637  23.392 -0.0252  0.1729  0.1417
  421BOLB   GL210084   8.834  14.676  23.612 -0.0265  0.1268  0.0047
  421BOLB   C1A10085   8.441  14.705  23.811 -0.1097 -0.0913  0.0036
  421BOLB   C2A10086   8.291  14.866  24.330  0.1089  0.0769 -0.1125
  421BOLB   C3A10087   8.026  14.753  24.677 -0.0409  0.0919  0.0872
  421BOLB   C4A10088   7.637  14.813  24.784  0.2086  0.2535  0.0788
  421BOLB   C1B10089   8.780  15.060  23.899 -0.1162 -0.0030 -0.2228
  421BOLB   C2B10090   8.628  15.144  24.263 -0.1704  0.2827 -0.1931
  421BOLB   C3B10091   8.612  15.327  24.665 -0.0369  0.0523 -0.1595
  421BOLB   C4B10092   8.548  15.294  25.011  0.0384  0.1299  0.0816
  421BOLB   NC210093   7.583  15.969  26.845  0.2163 -0.1854  0.1278
  421BOLB   PO210094   7.233  15.731  26.863  0.0746  0.4117  0.0142
  421BOLB   GL310095   7.314  15.820  26.461  0.2822  0.1322  0.3246
  421BOLB   GL410096   7.359  16.099  26.391  0.0101 -0.1153  0.0141
  421BOLB   C1C10097   7.219  15.528  26.111 -0.0228 -0.0077 -0.0865
  421BOLB   C2C10098   7.302  15.410  25.743  0.3496  0.0730  0.1212
  421BOLB   C3C10099   7.102  15.226  25.441  0.1177  0.0266 -0.2432
  421BOLB   C4C10100   7.362  14.983  25.114  0.2212  0.1353  0.2664
  421BOLB   C1D10101   7.550  15.965  26.016 -0.0110  0.1959  0.2661
  421BOLB   C2D10102   7.795  15.910  25.554 -0.2777  0.0110  0.4149
  421BOLB   C3D10103   8.193  15.901  25.330  0.1116  0.1421  0.1915
  421BOLB   C4D10104   8.255  16.140  24.949 -0.0707  0.1494  0.2463
  422BOLB   NC110105  14.422  24.201  21.093  0.2266 -0.0037  0.0179
  422BOLB   PO110106  14.825  24.368  21.284  0.3352 -0.0777  0.1205
  422BOLB   GL110107  15.086  24.640  21.507  0.1433 -0.1887 -0.1442
  422BOLB   GL210108  15.103  25.001  21.396  0.2304  0.0378  0.0593
  422BOLB   C1A10109  15.244  24.942  21.867  0.0666 -0.0705  0.2332
  422BOLB   C2A10110  15.388  25.279  22.209 -0.1261 -0.0040 -0.0950
  422BOLB   C3A10111  15.515  25.730  22.407 -0.2568 -0.2167 -0.0791
  422BOLB   C4A10112  15.223  26.066  22.539  0.2701 -0.0247  0.0748
  422BOLB   C1B10113  15.161  25.395  21.644 -0.0810  0.2106 -0.1556
  422BOLB   C2B10114  15.224  25.823  21.968 -0.1724  0.0902 -0.0648
  422BOLB   C3B10115  15.189  26.291  22.018 -0.0769  0.1323 -0.3283
  422BOLB   C4B10116  15.216  26.600  22.249 -0.1735 -0.4368 -0.0990
  422BOLB   NC210117  14.448  27.521  24.145  0.2865  0.0216 -0.2256
  422BOLB   PO210118  14.652  27.229  24.376  0.1801 -0.2312 -0.1244
  422BOLB   GL310119  14.629  26.960  24.001  0.1327  0.0641  0.2550
  422BOLB   GL410120  14.832  26.789  24.105 -0.0466  0.0738  0.0701
  422BOLB   C1C10121  14.502  26.644  23.730  0.2966  0.3437  0.1314
  422BOLB   C2C10122  14.727  26.412  23.505  0.2193  0.2123 -0.2564
  422BOLB   C3C10123  14.663  26.335  23.115  0.0659 -0.2554  0.2247
  422BOLB   C4C10124  14.878  26.224  22.806  0.3620 -0.1634 -0.4053
  422BOLB   C1D10125  14.688  26.408  24.141  0.2639 -0.0740 -0.4228
  422BOLB   C2D10126  14.271  26.154  24.175  0.1633  0.0184 -0.2456
  422BOLB   C3D10127  13.885  25.909  24.181  0.3428 -0.0099 -0.0665
  422BOLB   C4D10128  13.716  25.651  23.927  0.1281 -0.4259 -0.0979
  423BOLB   NC110129  20.287  21.200  21.717  0.1569 -0.0746 -0.1662
  423BOLB   PO110130  20.278  21.507  22.096 -0.2833 -0.0623 -0.1126
  423BOLB   GL110131  20.511  21.673  22.498  0.0756 -0.3380  0.0500
  423BOLB   GL210132  20.317  21.848  22.634 -0.2078  0.3283 -0.0492
  423BOLB   C1A10133  20.645  21.622  23.020  0.1403 -0.4386 -0.0634
  423BOLB   C2A10134  20.754  21.801  23.290  0.0222  0.0268  0.1980
  423BOLB   C3A10135  20.773  21.849  23.706  0.1979  0.0639 -0.0930
  423BOLB   C4A10136  20.883  21.954  24.172 -0.0968  0.2261  0.0794
  423BOLB   C1B10137  20.403  22.112  23.064  0.1721  0.3862 -0.5762
  423BOLB   C2B10138  20.543  22.230  23.326 -0.0964 -0.3834 -0.2996
  423BOLB   C3B10139  20.787  22.347  23.652 -0.0713 -0.0601 -0.4490
  423BOLB   C4B10140  20.696  22.524  24.044  0.2967  0.0205  0.3709
  423BOLB   NC210141  22.647  23.170  26.177 -0.0064  0.0237 -0.0143
  423BOLB   PO210142  22.341  22.902  26.016  0.0740  0.0094  0.2661
  423BOLB   GL310143  22.158  22.702  25.664  0.0901  0.3854 -0.2105
  423BOLB   GL410144  22.463  22.661  25.437  0.0186 -0.1093  0.3332
  423BOLB   C1C10145  22.089  22.363  25.399 -0.2757  0.0885 -0.2178
  423BOLB   C2C10146  21.764  22.347  25.036 -0.0573 -0.0454 -0.2289
  423BOLB   C3C10147  21.696  22.159  24.714 -0.0473 -0.0046 -0.1156
  423BOLB   C4C10148  21.267  21.998  24.397  0.0009 -0.2460  0.3279
  423BOLB   C1D10149  22.540  22.335  25.185 -0.1110  0.6035  0.0046
  423BOLB   C2D10150  22.708  21.930  25.283 -0.0087 -0.0337  0.1302
  423BOLB   C3D10151  22.860  21.581  25.114  0.1904  0.2159  0.1332
  423BOLB   C4D10152  22.855  21.389  24.762 -0.0558  0.0739  0.0708
  424BOLB   NC110153  11.911  24.090  21.887 -0.0081  0.1639  0.0845
  424BOLB   PO110154  12.442  23.898  22.108 -0.2895 -0.4007 -0.0446
  424BOLB   GL110155  12.572  23.950  22.447  0.1341 -0.0525 -0.1304
  424BOLB   GL210156  12.755  23.700  22.668 -0.1040 -0.0359 -0.0074
  424BOLB   C1A10157  12.774  24.194  22.810 -0.0882 -0.1705 -0.2417
  424BOLB   C2A10158  12.874  24.654  22.858  0.0894  0.0114  0.0068
  424BOLB   C3A10159  13.125  24.960  22.865 -0.0115 -0.0398 -0.2342
  424BOLB   C4A10160  13.120  25.370  23.124  0.2912 -0.0216  0.0892
  424BOLB   C1B10161  12.584  23.662  23.083  0.0832  0.0494  0.0227
  424BOLB   C2B10162  12.677  23.864  23.497 -0.1733 -0.1886 -0.0939
  424BOLB   C3B10163  12.803  24.089  23.795 -0.1298  0.1064 -0.2792
  424BOLB   C4B10164  12.906  24.522  23.910 -0.0180 -0.0203  0.1153
  424BOLB   NC210165  13.578  27.543  24.309  0.0005 -0.3141 -0.2278
  424BOLB   PO210166  13.972  27.361  24.227  0.2044 -0.0932 -0.0534
  424BOLB   GL310167  13.859  26.911  24.171  0.1166 -0.3199  0.2470
  424BOLB   GL410168  14.249  26.737  24.159 -0.2587  0.1291 -0.3448
  424BOLB   C1C10169  13.608  26.775  23.822 -0.2448 -0.0423  0.1711
  424BOLB   C2C10170  13.305  26.461  23.833  0.1971 -0.1031  0.2056
  424BOLB   C3C10171  13.229  26.202  23.350 -0.0967  0.0058  0.4793
  424BOLB   C4C10172  13.098  25.778  23.188  0.4671  0.4059  0.2052
  424BOLB   C1D10173  14.084  26.831  23.752 -0.1107  0.2775  0.2534
  424BOLB   C2D10174  14.007  26.546  23.386 -0.0054  0.3830  0.1974
  424BOLB   C3D10175  14.125  26.462  22.978  0.2564  0.1080  0.0337
  424BOLB   C4D10176  13.944  26.766  22.572  0.0192 -0.0381 -0.0067
  425BOLB   NC110177  14.330  22.087  23.112 -0.2183  0.0153  0.0106
  425BOLB   PO110178  13.959  21.970  23.321 -0.2590 -0.0945 -0.0331
  425BOLB   GL110179  13.839  22.224  23.648 -0.1565 -0.0352  0.1767
  425BOLB   GL210180  13.864  22.591  23.444 -0.2132 -0.1314 -0.0038
  425BOLB   C1A10181  13.873  22.428  24.005  0.0372 -0.0660 -0.2979
  425BOLB   C2A10182  13.899  22.699  24.268  0.1189 -0.3441 -0.0631
  425BOLB   C3A10183  13.883  22.882  24.650  0.1053 -0.1681 -0.2139
  425BOLB   C4A10184  13.985  22.981  25.159  0.0532 -0.1375 -0.0320
  425BOLB   C1B10185  13.782  22.917  23.777  0.2296 -0.0389 -0.1997
  425BOLB   C2B10186  13.822  23.155  24.055 -0.0695  0.2699  0.2095
  425BOLB   C3B10187  13.574  23.252  24.359 -0.0235  0.0052 -0.3096
  425BOLB   C4B10188  13.655  23.506  24.730  0.0541  0.3403  0.0116
  425BOLB   NC210189  14.450  22.588  27.204  0.0507 -0.0716 -0.2196
  425BOLB   PO210190  14.412  22.132  27.316 -0.0433  0.2866 -0.1148
  425BOLB   GL310191  14.085  21.924  27.115  0.1010 -0.0689  0.1931
  425BOLB   GL410192  13.777  22.148  27.072  0.5998  0.0155 -0.1325
  425BOLB   C1C10193  14.089  21.946  26.677  0.2699 -0.0480 -0.0756
  425BOLB   C2C10194  13.942  22.308  26.420 -0.1814 -0.0791  0.2397
  425BOLB   C3C10195  14.074  22.512  25.949 -0.4086  0.2931  0.0834
  425BOLB   C4C10196  14.085  22.643  25.530  0.4059 -0.2214  0.1929
  425BOLB   C1D10197  13.497  22.107  26.640  0.0880  0.3063 -0.2427
  425BOLB   C2D10198  13.190  21.992  26.367 -0.1521  0.1936 -0.1815
  425BOLB   C3D10199  12.936  21.752  26.045  0.0270 -0.0858 -0.3317
  425BOLB   C4D10200  13.050  21.570  25.646 -0.3177  0.0953 -0.0159
  426BOLB   NC110201  11.470  21.577  23.149 -0.1808  0.1577 -0.2239
  426BOLB   PO110202  11.747  21.686  23.426  0.1607 -0.0544  0.2164
  426BOLB   GL110203  11.695  21.925  23.593 -0.1198  0.1822  0.4805
  426BOLB   GL210204  11.430  21.885  23.761  0.2964  0.3363 -0.2741
  426BOLB   C1A10205  11.795  22.222  23.818 -0.2126  0.1422 -0.2059
  426BOLB   C2A10206  11.883  22.448  24.223  0.0372  0.1853  0.1822
  426BOLB   C3A10207  11.861  22.499  24.576 -0.0296 -0.1993 -0.0063
  426BOLB   C4A10208  12.094  22.397  24.899 -0.3825 -0.0014 -0.0939
  426BOLB   C1B10209  11.582  21.857  24.160  0.0593  0.3852 -0.0133
  426BOLB   C2B10210  11.619  21.619  24.545 -0.1172 -0.0446 -0.0380
  426BOLB   C3B10211  11.748  21.789  24.982  0.2944 -0.2837  0.2719
  426BOLB   C4B10212  11.571  21.553  25.406 -0.1262 -0.1314  0.4075
  426BOLB   NC210213  12.168  22.683  27.218 -0.1505 -0.0606 -0.1426
  426BOLB   PO210214  12.035  23.151  27.230 -0.5051 -0.3694 -0.1561
  426BOLB   GL310215  12.110  23.033  26.821  0.1534  0.0188 -0.3065
  426BOLB   GL410216  11.913  22.856  26.802  0.1039 -0.1272 -0.0303
  426BOLB   C1C10217  12.104  23.106  26.366  0.1795  0.0858 -0.1833
  426BOLB   C2C10218  12.245  22.934  26.002 -0.1903 -0.1864  0.0466
  426BOLB   C3C10219  12.150  22.660  25.617  0.0742 -0.1113 -0.1051
  426BOLB   C4C10220  12.175  22.501  25.304  0.2846 -0.2708 -0.2670
  426BOLB   C1D10221  11.825  22.706  26.419  0.2585 -0.1971 -0.1601
  426BOLB   C2D10222  12.055  22.451  26.092 -0.2295 -0.2322 -0.1262
  426BOLB   C3D10223  12.254  22.140  26.055  0.2207  0.2054  0.2325
  426BOLB   C4D10224  12.446  21.798  25.845 -0.0906  0.0655  0.2382
  427BOLB   NC110225  18.707  15.221  24.453 -0.0277  0.0924 -0.1517
  427BOLB   PO110226  18.846  15.546  24.587 -0.2416 -0.0507 -0.1181
  427BOLB   GL110227  18.809  15.640  24.911  0.0788 -0.0851 -0.1107
  427BOLB   GL210228  19.058  15.446  25.100  0.2608  0.2136  0.2235
  427BOLB   C1A10229  18.693  15.668  25.391 -0.3075 -0.0119 -0.4925
  427BOLB   C2A10230  18.898  15.738  25.813  0.3286 -0.0406 -0.0725
  427BOLB   C3A10231  18.883  15.528  26.247 -0.1594 -0.3130  0.3663
  427BOLB   C4A10232  18.837  15.081  26.313  0.1227  0.1059  0.0856
  427BOLB   C1B10233  19.183  15.314  25.507  0.0888 -0.3064 -0.0792
  427BOLB   C2B10234  19.188  15.280  25.922 -0.0913 -0.3139 -0.2972
  427BOLB   C3B10235  19.297  15.261  26.299 -0.0054  0.0061 -0.2545
  427BOLB   C4B10236  19.269  15.127  26.722  0.0202 -0.0633  0.0321
  427BOLB   NC210237  19.532  13.394  28.103 -0.0084  0.3298  0.0778
  427BOLB   PO210238  19.104  13.133  28.060  0.0082  0.3253 -0.0335
  427BOLB   GL310239  19.247  13.370  27.641  0.2295  0.2308 -0.0502
  427BOLB   GL410240  19.500  13.658  27.670  0.1886  0.0591 -0.0687
  427BOLB   C1C10241  19.153  13.697  27.284  0.0626  0.1517 -0.1147
  427BOLB   C2C10242  19.050  13.956  27.014 -0.0851  0.2790 -0.1238
  427BOLB   C3C10243  19.124  14.410  26.833 -0.0289  0.1141 -0.1218
  427BOLB   C4C10244  18.990  14.737  26.663 -0.0050 -0.2051 -0.2014
  427BOLB   C1D10245  19.788  13.708  27.362  0.0087 -0.1604  0.1250
  427BOLB   C2D10246  19.989  13.809  27.006 -0.3660 -0.0840  0.1593
  427BOLB   C3D10247  19.928  14.034  26.591  0.0352 -0.0670  0.0229
  427BOLB   C4D10248  19.723  14.139  26.224 -0.0328 -0.2708  0.1227
  428BOLB   NC110249  11.595  24.137  20.789  0.1526  0.0048 -0.0201
  428BOLB   PO110250  11.511  24.534  21.095 -0.0135  0.0915  0.1291
  428BOLB   GL110251  11.715  24.841  21.393 -0.3341  0.4392  0.1000
  428BOLB   GL210252  11.519  24.896  21.570  0.1611  0.0109  0.2781
  428BOLB   C1A10253  12.015  24.904  21.681 -0.1731 -0.0375 -0.1394
  428BOLB   C2A10254  12.303  25.198  22.073  0.0419 -0.3607 -0.1098
  428BOLB   C3A10255  12.447  25.600  22.303  0.0981 -0.0560  0.4492
  428BOLB   C4A10256  12.580  25.812  22.712 -0.0479 -0.3850 -0.0051
  428BOLB   C1B10257  11.510  24.934  22.000  0.4255  0.0535 -0.1406
  428BOLB   C2B10258  11.752  25.165  22.219 -0.0369  0.0378 -0.1361
  428BOLB   C3B10259  12.050  25.464  22.519  0.0805  0.1866 -0.0246
  428BOLB   C4B10260  12.229  25.510  22.904 -0.3416 -0.1191  0.1891
  428BOLB   NC210261  12.209  27.758  23.930  0.2558 -0.0112 -0.1498
  428BOLB   PO210262  12.115  27.513  24.170  0.2297  0.2866  0.1825
  428BOLB   GL310263  11.966  27.313  23.831 -0.0558  0.6093 -0.0436
  428BOLB   GL410264  11.799  27.491  23.523  0.1276  0.0628 -0.0741
  428BOLB   C1C10265  12.086  27.065  23.603 -0.4498 -0.1604 -0.0453
  428BOLB   C2C10266  12.041  26.669  23.457  0.2096  0.1900  0.0816
  428BOLB   C3C10267  12.359  26.272  23.320 -0.4612 -0.1213 -0.2922
  428BOLB   C4C10268  12.729  26.104  23.047  0.1170 -0.2562 -0.0423
  428BOLB   C1D10269  11.677  27.048  23.319  0.1891 -0.3952 -0.1012
  428BOLB   C2D10270  11.284  26.765  23.099  0.2636 -0.1424 -0.1104
  428BOLB   C3D10271  11.122  26.781  22.670  0.1630  0.1961 -0.3192
  428BOLB   C4D10272  11.080  27.018  22.353  0.0192  0.0935  0.1646
  429BOLB   NC110273  12.235  10.018  23.097 -0.2363  0.4058 -0.6367
  429BOLB   PO110274  12.575   9.790  23.325  0.2019  0.1723  0.0143
  429BOLB   GL110275  12.706   9.743  23.660 -0.2121 -0.0117 -0.5350
  429BOLB   GL210276  12.645  10.022  23.839  0.2751  0.3853 -0.1529
  429BOLB   C1A10277  13.058   9.545  23.961 -0.0648 -0.0214  0.3109
  429BOLB   C2A10278  13.201   9.580  24.472 -0.0698 -0.2642 -0.2750
  429BOLB   C3A10279  13.205   9.788  24.915  0.0134  0.1274  0.2544
  429BOLB   C4A10280  13.419   9.840  25.254  0.3270  0.1019  0.0416
  429BOLB   C1B10281  12.569   9.692  24.212  0.0941  0.0505 -0.2789
  429BOLB   C2B10282  12.525   9.585  24.692  0.0122 -0.2089 -0.1244
  429BOLB   C3B10283  12.700   9.600  25.079  0.2410 -0.0162 -0.1092
  429BOLB   C4B10284  12.763   9.714  25.503  0.2910 -0.2306 -0.0331
  429BOLB   NC210285  12.785   8.770  27.530 -0.0916  0.1533  0.0414
  429BOLB   PO210286  13.027   9.163  27.440  0.5956 -0.0439 -0.2043
  429BOLB   GL310287  13.192   9.532  27.227  0.1175  0.2411  0.0287
  429BOLB   GL410288  13.565   9.575  27.083  0.2030 -0.0261 -0.2545
  429BOLB   C1C10289  13.201   9.865  26.925 -0.5497  0.0018 -0.1146
  429BOLB   C2C10290  13.450   9.869  26.566 -0.0066  0.0729 -0.1908
  429BOLB   C3C10291  13.457   9.933  26.154  0.1519 -0.3819 -0.1049
  429BOLB   C4C10292  13.565  10.034  25.677  0.0265  0.0712 -0.1620
  429BOLB   C1D10293  13.552   9.285  26.804  0.1909  0.0390 -0.0650
  429BOLB   C2D10294  13.384   9.307  26.430 -0.1874  0.1562  0.0140
  429BOLB   C3D10295  13.466   9.388  25.977  0.0231  0.0830 -0.1600
  429BOLB   C4D10296  13.223   9.639  25.705  0.0101 -0.0490  0.1685
  430BOLB   NC110297  20.387  11.015  21.507  0.2167  0.1430 -0.0577
  430BOLB   PO110298  20.147  11.069  21.797  0.2533 -0.1125 -0.4281
  430BOLB   GL110299  20.462  10.752  22.114  0.0256  0.0676 -0.1741
  430BOLB   GL210300  20.621  10.826  22.293  0.1485  0.0546 -0.2696
  430BOLB   C1A10301  20.563  10.227  21.980  0.0690  0.0983  0.2250
  430BOLB   C2A10302  20.476   9.875  22.164 -0.1958 -0.0428  0.1938
  430BOLB   C3A10303  20.464   9.576  22.454  0.1411  0.0991 -0.0289
  430BOLB   C4A10304  20.684   9.379  22.798 -0.2264  0.0058  0.0547
  430BOLB   C1B10305  20.626  10.386  22.445  0.0788  0.3617 -0.3424
  430BOLB   C2B10306  20.844  10.117  22.475  0.0510 -0.3493  0.0448
  430BOLB   C3B10307  21.043   9.695  22.515  0.1569  0.3122 -0.1238
  430BOLB   C4B10308  21.348   9.533  22.337 -0.1748  0.3341 -0.0246
  430BOLB   NC210309  22.264   8.043  24.889 -0.0460  0.0476  0.0019
  430BOLB   PO210310  22.195   8.317  24.563  0.0279  0.0356 -0.1146
  430BOLB   GL310311  21.862   8.533  24.296 -0.0077 -0.0806 -0.0762
  430BOLB   GL410312  21.953   8.616  23.927  0.2380 -0.1928  0.1696
  430BOLB   C1C10313  21.468   8.663  24.245 -0.2961 -0.1770 -0.0836
  430BOLB   C2C10314  21.349   8.686  23.760  0.2420  0.0978  0.2632
  430BOLB   C3C10315  21.007   9.014  23.565  0.1714  0.3520 -0.2370
  430BOLB   C4C10316  20.678   9.209  23.301  0.2396 -0.1109 -0.1256
  430BOLB   C1D10317  21.840   8.985  23.944  0.0903 -0.0003  0.2247
  430BOLB   C2D10318  22.102   9.378  23.801 -0.1571 -0.0546 -0.2302
  430BOLB   C3D10319  22.229   9.531  23.401  0.1025  0.0187  0.0488
  430BOLB   C4D10320  22.128   9.457  23.024 -0.0808 -0.0766 -0.0210
  431BOLB   NC110321  15.426  24.306  21.345  0.0657  0.4329 -0.1302
  431BOLB   PO110322  15.905  24.245  21.304 -0.0010 -0.0255 -0.1151
  431BOLB   GL110323  15.782  24.540  21.553 -0.1307 -0.3135 -0.0338
  431BOLB   GL210324  15.564  24.489  21.775  0.1054  0.0169 -0.2298
  431BOLB   C1A10325  15.642  24.977  21.565  0.0584  0.2658 -0.0402
  431BOLB   C2A10326  15.682  25.320  21.809  0.1253 -0.0458 -0.1681
  431BOLB   C3A10327  15.762  25.688  22.034  0.0782 -0.0195 -0.1917
  431BOLB   C4A10328  16.001  26.015  22.163  0.0889  0.0300  0.1597
  431BOLB   C1B10329  15.724  24.891  22.107  0.0419  0.0524  0.0645
  431BOLB   C2B10330  15.867  25.253  22.353  0.0550 -0.1345  0.2786
  431BOLB   C3B10331  16.033  25.634  22.575  0.0018  0.2216  0.2732
  431BOLB   C4B10332  16.265  26.038  22.703 -0.0768 -0.2805 -0.1265
  431BOLB   NC210333  15.947  27.752  23.947 -0.1647  0.3023 -0.0671
  431BOLB   PO210334  16.344  27.640  23.767  0.1802 -0.2368  0.3830
  431BOLB   GL310335  16.326  27.218  23.539 -0.0497  0.2411 -0.3602
  431BOLB   GL410336  16.063  27.038  23.655 -0.2937  0.1580 -0.1937
  431BOLB   C1C10337  16.529  26.971  23.206  0.4246 -0.1816  0.2204
  431BOLB   C2C10338  16.301  26.958  22.765  0.1572 -0.1217 -0.0525
  431BOLB   C3C10339  16.017  26.686  22.693 -0.1875  0.2724  0.1352
  431BOLB   C4C10340  16.118  26.417  22.275 -0.1903 -0.0540 -0.0074
  431BOLB   C1D10341  16.085  26.731  23.334 -0.2034 -0.2340  0.2269
  431BOLB   C2D10342  16.258  26.430  23.043 -0.0559  0.2182  0.2452
  431BOLB   C3D10343  16.532  26.116  23.116  0.1237 -0.1827 -0.1713
  431BOLB   C4D10344  16.837  26.224  23.403 -0.0684  0.0428  0.0910
  432BOLB   NC110345  15.236  22.353  22.998 -0.0898 -0.1171  0.0185
  432BOLB   PO110346  14.780  22.338  23.126  0.1771  0.0403 -0.2242
  432BOLB   GL110347  15.049  22.334  23.461  0.0547 -0.2026 -0.2650
  432BOLB   GL210348  15.218  22.635  23.402 -0.0553 -0.2298 -0.2175
  432BOLB   C1A10349  15.258  22.365  23.877 -0.0890 -0.0734 -0.1600
  432BOLB   C2A10350  15.523  22.142  24.201  0.0576 -0.2276  0.2968
  432BOLB   C3A10351  15.654  22.176  24.545  0.0786 -0.2084 -0.1068
  432BOLB   C4A10352  15.715  22.482  24.934  0.1232  0.3099  0.3001
  432BOLB   C1B10353  15.260  22.992  23.679  0.1418  0.0486 -0.1356
  432BOLB   C2B10354  15.537  23.119  23.989  0.1690  0.1365 -0.1982
  432BOLB   C3B10355  15.721  23.251  24.315  0.0127 -0.0348  0.1753
  432BOLB   C4B10356  15.959  23.502  24.608  0.1487  0.1531  0.2526
  432BOLB   NC210357  16.273  23.364  27.292 -0.1722  0.0350  0.1266
  432BOLB   PO210358  16.397  23.560  26.884  0.1607  0.1003  0.0361
  432BOLB   GL310359  16.236  23.633  26.438 -0.0865 -0.2856 -0.0323
  432BOLB   GL410360  15.934  23.733  26.471 -0.1432  0.0567  0.0294
  432BOLB   C1C10361  16.066  23.491  26.066  0.0235 -0.0734  0.0111
  432BOLB   C2C10362  15.846  23.248  25.932 -0.0839 -0.3186  0.1757
  432BOLB   C3C10363  15.664  22.959  25.777 -0.0800  0.1474 -0.3551
  432BOLB   C4C10364  15.730  22.679  25.352 -0.0451 -0.0017  0.0399
  432BOLB   C1D10365  15.596  23.572  26.228 -0.1346 -0.2700  0.1349
  432BOLB   C2D10366  15.264  23.804  25.952 -0.0244  0.0402  0.1548
  432BOLB   C3D10367  14.885  23.853  25.755 -0.1580  0.0483  0.2296
  432BOLB   C4D10368  14.851  23.606  25.421 -0.2161  0.1205 -0.0276
  433BOLB   NC110369  19.351  23.769  21.233 -0.1228 -0.0093  0.4294
  433BOLB   PO110370  19.349  23.348  21.439  0.1486 -0.1891 -0.0763
  433BOLB   GL110371  19.142  23.612  21.811 -0.2476 -0.0116  0.2139
  433BOLB   GL210372  19.123  23.452  22.069  0.0432  0.1457  0.2427
  433BOLB   C1A10373  19.136  24.020  21.988 -0.4300  0.1314  0.0354
  433BOLB   C2A10374  19.468  24.339  22.132 -0.0407 -0.0196 -0.0978
  433BOLB   C3A10375  19.763  24.699  22.215 -0.0494  0.2626  0.0520
  433BOLB   C4A10376  19.739  25.060  22.442 -0.0797  0.2973  0.0679
  433BOLB   C1B10377  19.188  23.673  22.437 -0.1983 -0.0761  0.2009
  433BOLB   C2B10378  19.429  24.044  22.679 -0.1782 -0.0258 -0.1402
  433BOLB   C3B10379  19.572  24.535  22.633  0.2114 -0.2184  0.3639
  433BOLB   C4B10380  19.451  24.940  22.866 -0.2778  0.1037 -0.1808
  433BOLB   NC210381  19.188  26.908  24.077 -0.1234 -0.0844 -0.4118
  433BOLB   PO210382  19.085  26.510  23.968 -0.0120  0.3226 -0.4124
  433BOLB   GL310383  19.311  26.213  23.745  0.1067  0.0332  0.0905
  433BOLB   GL410384  19.475  26.287  23.502  0.3700 -0.4339  0.2930
  433BOLB   C1C10385  19.508  25.817  23.691  0.3295 -0.0494 -0.1378
  433BOLB   C2C10386  19.743  25.456  23.468  0.0477 -0.0063  0.0750
  433BOLB   C3C10387  19.669  25.315  23.117  0.0505 -0.2176  0.0036
  433BOLB   C4C10388  19.674  25.368  22.701  0.1197 -0.2539  0.0604
  433BOLB   C1D10389  19.470  25.999  23.215 -0.0603 -0.2740 -0.1344
  433BOLB   C2D10390  19.658  25.781  22.995 -0.0767  0.1203  0.0468
  433BOLB   C3D10391  20.096  25.580  22.943 -0.0988 -0.0330  0.0086
  433BOLB   C4D10392  20.449  25.451  22.904  0.2490  0.0572  0.1955
  434BOLB   NC110393  13.097  21.614  23.669 -0.3109 -0.1834 -0.3500
  434BOLB   PO110394  12.750  21.787  23.408 -0.0563 -0.0975  0.2149
  434BOLB   GL110395  12.611  21.673  23.783  0.0982  0.1333 -0.1987
  434BOLB   GL210396  12.745  21.339  23.945  0.2498  0.1654  0.1925
  434BOLB   C1A10397  12.664  22.066  23.968  0.1310  0.0352  0.1001
  434BOLB   C2A10398  12.863  22.406  24.194  0.2186  0.1353 -0.0090
  434BOLB   C3A10399  12.895  22.828  24.226 -0.1635  0.0099 -0.0176
  434BOLB   C4A10400  12.750  23.061  24.403  0.0573  0.1347 -0.1205
  434BOLB   C1B10401  12.785  21.368  24.440 -0.1374 -0.0160 -0.4017
  434BOLB   C2B10402  12.856  21.502  24.846  0.0285 -0.0332 -0.0944
  434BOLB   C3B10403  12.732  21.500  25.271  0.1918 -0.1675  0.1586
  434BOLB   C4B10404  12.628  21.338  25.574  0.1370  0.1595 -0.1887
  434BOLB   NC210405  12.081  24.425  26.549 -0.0402  0.0496 -0.1289
  434BOLB   PO210406  12.521  24.550  26.502  0.1656 -0.1510  0.0921
  434BOLB   GL310407  12.494  24.306  26.105 -0.1182 -0.0368  0.0964
  434BOLB   GL410408  12.284  24.045  26.096 -0.0871  0.2713  0.2442
  434BOLB   C1C10409  12.683  23.994  25.807  0.1198 -0.1548  0.0432
  434BOLB   C2C10410  12.731  23.676  25.586  0.1622  0.0671 -0.2962
  434BOLB   C3C10411  12.750  23.415  25.194  0.0089 -0.1617 -0.2094
  434BOLB   C4C10412  12.634  23.339  24.765 -0.0049  0.0000 -0.6958
  434BOLB   C1D10413  12.161  23.847  25.784 -0.1981 -0.0710  0.1910
  434BOLB   C2D10414  12.302  23.822  25.478  0.2059 -0.1280 -0.1659
  434BOLB   C3D10415  12.190  23.707  25.141 -0.0214  0.1545 -0.3589
  434BOLB   C4D10416  12.185  23.314  24.936 -0.2100  0.0882 -0.2563
  435BOLB   NC110417  21.894  12.395  21.516 -0.3431  0.0544  0.2556
  435BOLB   PO110418  22.055  12.071  21.867  0.0601  0.3302 -0.2682
  435BOLB   GL110419  22.143  11.798  22.156 -0.2369  0.1052  0.1486
  435BOLB   GL210420  22.065  11.501  21.973 -0.1520  0.1876 -0.4249
  435BOLB   C1A10421  22.481  11.604  22.334  0.2518 -0.0294 -0.0172
  435BOLB   C2A10422  22.682  11.337  22.680  0.2280 -0.1850  0.3837
  435BOLB   C3A10423  23.042  11.199  22.806 -0.1912 -0.2033 -0.1920
  435BOLB   C4A10424  23.240  10.836  23.223 -0.0545  0.1209  0.4348
  435BOLB   C1B10425  22.016  11.077  22.212  0.0722  0.1785 -0.0985
  435BOLB   C2B10426  21.851  10.790  22.523  0.4017 -0.2987  0.1176
  435BOLB   C3B10427  21.808  10.405  22.798  0.0456  0.0506  0.0638
  435BOLB   C4B10428  21.974  10.238  23.191  0.0146 -0.0670  0.2115
  435BOLB   NC210429  23.508   8.622  25.051 -0.0170  0.2240  0.1864
  435BOLB   PO210430  23.398   8.957  24.733 -0.1900  0.2725 -0.0072
  435BOLB   GL310431  23.143   9.303  24.439  0.2348  0.0339 -0.1451
  435BOLB   GL410432  23.046   9.527  24.615  0.1884  0.3404 -0.2179
  435BOLB   C1C10433  22.972   9.450  24.090 -0.2438  0.2211 -0.1201
  435BOLB   C2C10434  23.009   9.778  23.862 -0.0043  0.1834 -0.0295
  435BOLB   C3C10435  23.152  10.182  23.776 -0.3562  0.0569  0.1849
  435BOLB   C4C10436  23.281  10.484  23.466 -0.1919 -0.1040 -0.0789
  435BOLB   C1D10437  22.735   9.768  24.320 -0.0867 -0.0987  0.1226
  435BOLB   C2D10438  22.508   9.839  23.837 -0.1966  0.1951  0.2345
  435BOLB   C3D10439  22.097   9.987  23.631 -0.0106 -0.0664  0.1510
  435BOLB   C4D10440  21.696   9.700  23.755 -0.0201 -0.0837 -0.0542
  436BOLB   NC110441  16.787  22.378  22.399 -0.1020  0.2614  0.2187
  436BOLB   PO110442  16.756  21.982  22.561 -0.3051 -0.1126  0.0193
  436BOLB   GL110443  16.739  22.295  22.910  0.1882  0.1568  0.3558
  436BOLB   GL210444  16.591  22.524  23.003 -0.1435  0.1129 -0.0601
  436BOLB   C1A10445  16.939  22.449  23.345  0.1519 -0.0343 -0.1691
  436BOLB   C2A10446  17.013  22.756  23.626  0.0648  0.0113  0.1302
  436BOLB   C3A10447  17.146  22.932  24.003 -0.3784  0.2326 -0.1291
  436BOLB   C4A10448  17.302  22.896  24.452 -0.1858  0.4323  0.1449
  436BOLB   C1B10449  16.505  22.651  23.458 -0.1680 -0.1525  0.0076
  436BOLB   C2B10450  16.555  22.940  23.847 -0.0251  0.1380 -0.0568
  436BOLB   C3B10451  16.605  23.191  24.263 -0.0701  0.0680 -0.1512
  436BOLB   C4B10452  16.481  23.525  24.587 -0.1889 -0.0220  0.1654
  436BOLB   NC210453  17.696  23.683  26.518 -0.0945  0.1184  0.1802
  436BOLB   PO210454  17.244  23.666  26.487  0.1294  0.2416 -0.1357
  436BOLB   GL310455  17.230  23.442  26.158 -0.0655  0.2256 -0.1115
  436BOLB   GL410456  17.428  23.792  25.989  0.0179 -0.0247 -0.0222
  436BOLB   C1C10457  17.089  23.132  26.060  0.0319 -0.0868  0.0494
  436BOLB   C2C10458  17.076  22.981  25.716 -0.1456  0.1389 -0.1065
  436BOLB   C3C10459  17.095  22.920  25.254 -0.0381 -0.2026 -0.0974
  436BOLB   C4C10460  17.155  22.778  24.864 -0.0981  0.7605 -0.0221
  436BOLB   C1D10461  17.441  23.982  25.592 -0.0756 -0.2101 -0.2528
  436BOLB   C2D10462  17.729  23.839  25.166 -0.1308 -0.2491  0.2082
  436BOLB   C3D10463  17.660  23.485  25.036  0.0710 -0.1777 -0.1636
  436BOLB   C4D10464  17.398  23.214  24.826  0.0482 -0.4509  0.3044
  437BOLB   NC110465  12.455  16.947  24.745  0.3439 -0.0959 -0.0613
  437BOLB   PO110466  12.871  17.133  24.510 -0.1047 -0.0406 -0.2209
  437BOLB   GL110467  12.911  17.404  24.853  0.0075  0.1139  0.0186
  437BOLB   GL210468  12.650  17.333  25.005 -0.0710 -0.4618  0.3224
  437BOLB   C1A10469  12.879  17.737  25.213  0.0582 -0.1914 -0.4253
  437BOLB   C2A10470  12.749  18.157  25.406  0.2072  0.1667 -0.5650
  437BOLB   C3A10471  12.589  18.400  25.711 -0.0660 -0.0478  0.2108
  437BOLB   C4A10472  12.555  18.570  26.112 -0.0815 -0.2983 -0.0304
  437BOLB   C1B10473  12.451  17.369  25.328 -0.1237 -0.2322  0.0671
  437BOLB   C2B10474  12.555  17.158  25.600  0.0269  0.1574 -0.0440
  437BOLB   C3B10475  12.659  17.195  26.039 -0.0957  0.1138 -0.2042
  437BOLB   C4B10476  12.287  17.150  26.233 -0.3064 -0.1279  0.3270
  437BOLB   NC210477  11.634  18.123  28.910  0.1573 -0.4571  0.0670
  437BOLB   PO210478  11.680  18.166  28.396  0.3630 -0.0102 -0.3877
  437BOLB   GL310479  11.808  18.367  28.068  0.1409  0.0459  0.1316
  437BOLB   GL410480  12.154  18.390  28.095  0.0747  0.1056 -0.0816
  437BOLB   C1C10481  11.940  18.291  27.647  0.1343 -0.0077  0.0319
  437BOLB   C2C10482  12.024  18.461  27.285 -0.2012 -0.0775  0.2087
  437BOLB   C3C10483  12.159  18.471  26.842 -0.0234 -0.3237 -0.0815
  437BOLB   C4C10484  12.460  18.547  26.566 -0.3734 -0.0852 -0.1972
  437BOLB   C1D10485  12.187  18.002  27.995  0.1694 -0.0582  0.0544
  437BOLB   C2D10486  12.285  17.874  27.525 -0.0860 -0.0492  0.1042
  437BOLB   C3D10487  12.626  17.818  27.246 -0.0014  0.0248 -0.1329
  437BOLB   C4D10488  13.028  17.868  27.392  0.1957 -0.0678 -0.0113
  438BOLB   NC110489  21.792  20.395  22.531 -0.3932  0.0003 -0.0151
  438BOLB   PO110490  21.927  20.725  22.322  0.3642 -0.3026 -0.0744
  438BOLB   GL110491  22.029  20.995  22.620 -0.1488 -0.1490 -0.1730
  438BOLB   GL210492  22.051  20.817  22.849 -0.0474  0.1768 -0.1396
  438BOLB   C1A10493  22.223  21.279  22.932 -0.0360 -0.0822  0.2891
  438BOLB   C2A10494  22.338  21.402  23.432 -0.0478  0.1867  0.1896
  438BOLB   C3A10495  22.541  21.412  23.886  0.2319 -0.0910  0.0982
  438BOLB   C4A10496  22.408  21.646  24.238  0.1206 -0.1669 -0.0757
  438BOLB   C1B10497  22.193  20.847  23.274 -0.0683  0.1342 -0.1291
  438BOLB   C2B10498  22.356  20.934  23.698 -0.0239 -0.0753  0.1811
  438BOLB   C3B10499  22.608  20.670  24.001  0.1027 -0.1675  0.1066
  438BOLB   C4B10500  22.790  20.338  23.685 -0.0217 -0.1103  0.0887
  438BOLB   NC210501  23.271  20.758  26.289  0.1728  0.0896 -0.1783
  438BOLB   PO210502  22.837  20.947  26.481  0.0908  0.0661 -0.1066
  438BOLB   GL310503  22.514  21.103  26.138  0.0338  0.2533  0.0569
  438BOLB   GL410504  22.228  21.068  25.965  0.1146 -0.1131  0.0675
  438BOLB   C1C10505  22.534  21.417  25.845 -0.0134 -0.2020 -0.3545
  438BOLB   C2C10506  22.542  21.442  25.428  0.0408  0.1147  0.1574
  438BOLB   C3C10507  22.358  21.539  25.107 -0.0810  0.1057 -0.2798
  438BOLB   C4C10508  22.391  21.567  24.698  0.0548  0.2255 -0.0142
  438BOLB   C1D10509  22.097  21.302  25.576  0.0885  0.0011  0.0869
  438BOLB   C2D10510  21.982  21.214  25.129 -0.2229  0.4383  0.0544
  438BOLB   C3D10511  21.911  21.174  24.664 -0.0345 -0.2098  0.0557
  438BOLB   C4D10512  21.689  21.110  24.255  0.1350  0.1544 -0.0021
  439BOLB   NC110513  17.865  15.165  24.696  0.1042  0.2184 -0.1411
  439BOLB   PO110514  18.299  14.983  24.614 -0.4499 -0.3137 -0.0045
  439BOLB   GL110515  18.183  14.906  24.985  0.5639  0.0030  0.0047
  439BOLB   GL210516  17.965  14.993  25.148 -0.1937  0.0481  0.1524
  439BOLB   C1A10517  18.426  14.747  25.274  0.1726  0.1656  0.4664
  439BOLB   C2A10518  18.698  14.537  25.587  0.1666  0.1532 -0.0207
  439BOLB   C3A10519  19.138  14.311  25.795  0.1083 -0.1682 -0.2133
  439BOLB   C4A10520  19.293  13.996  26.080  0.0011  0.0268  0.0363
  439BOLB   C1B10521  17.810  15.132  25.472 -0.1225  0.1273  0.1956
  439BOLB   C2B10522  17.844  15.182  25.874 -0.0525  0.1648 -0.2232
  439BOLB   C3B10523  18.154  14.950  26.257 -0.2083  0.0666 -0.0040
  439BOLB   C4B10524  18.380  14.918  26.652 -0.2679  0.2052  0.1041
  439BOLB   NC210525  19.747  11.988  27.316 -0.1330  0.1345  0.2932
  439BOLB   PO210526  19.954  12.394  27.470  0.2192  0.0115 -0.2029
  439BOLB   GL310527  19.726  12.381  26.958 -0.3270  0.0808 -0.0601
  439BOLB   GL410528  19.465  12.091  26.859 -0.2037  0.0917 -0.0714
  439BOLB   C1C10529  19.619  12.476  26.568  0.2111  0.0962 -0.0268
  439BOLB   C2C10530  19.585  12.761  26.213 -0.0266 -0.1899  0.0237
  439BOLB   C3C10531  19.258  13.094  26.052 -0.2191 -0.2443 -0.1823
  439BOLB   C4C10532  19.185  13.510  26.224 -0.2280 -0.2210 -0.5413
  439BOLB   C1D10533  19.356  12.061  26.502  0.1495  0.0350  0.0690
  439BOLB   C2D10534  19.300  12.311  26.153  0.0296  0.0218 -0.0579
  439BOLB   C3D10535  19.378  12.171  25.742  0.0086 -0.0580 -0.0952
  439BOLB   C4D10536  19.718  11.800  25.830 -0.2137 -0.0067 -0.1078
  440BOLB   NC110537   9.920  20.770  22.580 -0.3242  0.0151 -0.2708
  440BOLB   PO110538   9.577  21.077  22.687  0.0542 -0.0798 -0.1949
  440BOLB   GL110539   9.300  21.091  22.998 -0.1462 -0.4022  0.0859
  440BOLB   GL210540   9.328  21.470  22.990 -0.0371  0.2819  0.2011
  440BOLB   C1A10541   9.253  21.135  23.475  0.0007 -0.2516 -0.1697
  440BOLB   C2A10542   9.357  21.350  23.862 -0.1762  0.4560 -0.2458
  440BOLB   C3A10543   9.262  21.651  24.150  0.1948  0.1374 -0.2505
  440BOLB   C4A10544   9.056  21.604  24.641 -0.0968  0.0120 -0.1010
  440BOLB   C1B10545   8.983  21.437  23.224 -0.2838  0.2704 -0.0896
  440BOLB   C2B10546   8.596  21.577  23.376 -0.0815 -0.1202  0.1205
  440BOLB   C3B10547   8.213  21.726  23.123 -0.1775 -0.1483 -0.3640
  440BOLB   C4B10548   7.898  21.505  23.331 -0.0890 -0.2121  0.1825
  440BOLB   NC210549   6.988  22.272  25.832 -0.1026 -0.2600 -0.1058
  440BOLB   PO210550   7.136  21.866  25.958  0.2678  0.0974  0.2783
  440BOLB   GL310551   7.405  21.652  25.620  0.1301  0.0611  0.0021
  440BOLB   GL410552   7.254  21.271  25.482 -0.3939 -0.2787 -0.0377
  440BOLB   C1C10553   7.760  21.497  25.357  0.1782  0.4370  0.1383
  440BOLB   C2C10554   8.191  21.502  25.507 -0.1758 -0.1362 -0.1247
  440BOLB   C3C10555   8.627  21.610  25.425 -0.0296 -0.0707  0.1648
  440BOLB   C4C10556   8.866  21.774  25.055 -0.0111  0.2858  0.2075
  440BOLB   C1D10557   7.412  21.088  25.206  0.0240  0.0205  0.1108
  440BOLB   C2D10558   7.607  20.946  24.865  0.3474 -0.1493 -0.1695
  440BOLB   C3D10559   7.889  20.809  24.689  0.3126  0.1960 -0.0774
  440BOLB   C4D10560   7.873  20.682  24.204 -0.1843 -0.0571 -0.0604
  441BOLB   NC110561  17.952  14.236  24.038  0.3206  0.2012 -0.0432
  441BOLB   PO110562  17.837  14.084  24.478  0.0662 -0.0368  0.1358
  441BOLB   GL110563  17.650  14.075  24.805  0.2401  0.2294 -0.0752
  441BOLB   GL210564  17.449  13.787  24.951  0.0686 -0.1528  0.0989
  441BOLB   C1A10565  17.727  14.094  25.292 -0.1801  0.0508 -0.1460
  441BOLB   C2A10566  17.841  14.241  25.655  0.0164 -0.0875  0.1830
  441BOLB   C3A10567  18.024  14.454  25.984  0.1288 -0.0736  0.2929
  441BOLB   C4A10568  18.120  14.500  26.495 -0.2887  0.1816  0.1416
  441BOLB   C1B10569  17.607  13.640  25.465  0.0150  0.0163 -0.0857
  441BOLB   C2B10570  17.551  13.817  25.820 -0.1848 -0.3079 -0.0688
  441BOLB   C3B10571  17.492  13.701  26.270  0.0222 -0.1764 -0.0145
  441BOLB   C4B10572  17.489  13.698  26.677 -0.4210 -0.5778 -0.0111
  441BOLB   NC210573  18.509  14.462  28.901 -0.0410 -0.0488 -0.0701
  441BOLB   PO210574  18.458  14.831  28.746  0.1386  0.0566  0.3055
  441BOLB   GL310575  18.312  14.817  28.374 -0.1794  0.0128  0.1250
  441BOLB   GL410576  18.391  15.153  28.220  0.0238  0.1643 -0.1113
  441BOLB   C1C10577  18.362  14.535  28.115  0.1871 -0.0466  0.3322
  441BOLB   C2C10578  18.457  14.206  27.805  0.2503  0.0757  0.3398
  441BOLB   C3C10579  18.260  14.341  27.348  0.3375  0.1940  0.1564
  441BOLB   C4C10580  18.114  14.433  26.875 -0.0716 -0.0730 -0.0786
  441BOLB   C1D10581  18.363  15.246  27.878 -0.4932  0.0442 -0.1157
  441BOLB   C2D10582  18.132  15.251  27.558  0.0467  0.1755 -0.3995
  441BOLB   C3D10583  17.908  15.725  27.443 -0.1499  0.4407 -0.3634
  441BOLB   C4D10584  17.951  16.220  27.252 -0.0246  0.0259 -0.0993
  442BOLB   NC110585   9.223  12.392  23.147  0.0820  0.1369 -0.1615
  442BOLB   PO110586   8.764  12.340  22.949 -0.1559 -0.2264 -0.2833
  442BOLB   GL110587   8.643  12.398  23.380 -0.1963 -0.0318  0.1156
  442BOLB   GL210588   8.883  12.432  23.521 -0.1890  0.1092 -0.3010
  442BOLB   C1A10589   8.426  12.113  23.596 -0.0443 -0.1055 -0.0216
  442BOLB   C2A10590   8.107  12.031  23.825 -0.2730  0.1605  0.2048
  442BOLB   C3A10591   7.798  11.955  24.068  0.0466  0.2572 -0.0966
  442BOLB   C4A10592   7.651  11.731  24.348  0.0428 -0.0941 -0.3694
  442BOLB   C1B10593   8.707  12.318  23.984 -0.0757  0.1422  0.2385
  442BOLB   C2B10594   8.684  12.334  24.396  0.2260  0.0290 -0.1397
  442BOLB   C3B10595   8.792  12.491  24.842 -0.1002  0.2903  0.3254
  442BOLB   C4B10596   8.815  12.297  25.240 -0.2378  0.4037 -0.0007
  442BOLB   NC210597   7.058  11.817  26.671  0.1587  0.3429  0.3329
  442BOLB   PO210598   6.794  11.463  26.757  0.0762 -0.0534 -0.0800
  442BOLB   GL310599   6.805  11.631  26.260 -0.1584  0.1322  0.0019
  442BOLB   GL410600   6.822  11.929  26.158  0.0345 -0.0955  0.0346
  442BOLB   C1C10601   7.085  11.596  25.927 -0.0891 -0.3000 -0.0081
  442BOLB   C2C10602   7.374  11.586  25.603  0.0177 -0.0660 -0.0894
  442BOLB   C3C10603   7.532  11.744  25.159 -0.1835 -0.1809  0.0105
  442BOLB   C4C10604   7.567  11.852  24.683 -0.3839 -0.0307  0.3849
  442BOLB   C1D10605   6.994  12.275  25.765 -0.2340  0.5787 -0.0511
  442BOLB   C2D10606   7.188  12.236  25.459 -0.2172  0.2224 -0.0176
  442BOLB   C3D10607   7.320  12.151  24.985  0.2730 -0.2736 -0.3387
  442BOLB   C4D10608   7.450  12.466  24.717  0.2032 -0.0242 -0.0060
  443BOLB   NC110609  18.219  19.082  24.002 -0.2327 -0.0406 -0.0749
  443BOLB   PO110610  18.272  19.524  23.949  0.2172 -0.1224 -0.0266
  443BOLB   GL110611  18.533  19.651  24.226  0.1486  0.1264 -0.0264
  443BOLB   GL210612  18.908  19.570  24.251 -0.4153  0.0680  0.0301
  443BOLB   C1A10613  18.532  19.739  24.631 -0.1733  0.1537  0.1521
  443BOLB   C2A10614  18.630  19.754  25.095  0.2781  0.0097 -0.2516
  443BOLB   C3A10615  18.897  19.899  25.248  0.1106  0.3890 -0.3367
  443BOLB   C4A10616  18.981  19.996  25.562  0.0175 -0.0030 -0.2104
  443BOLB   C1B10617  19.169  19.384  24.451  0.0703 -0.0979  0.2522
  443BOLB   C2B10618  19.317  19.374  24.880 -0.2036  0.0982  0.0693
  443BOLB   C3B10619  19.590  19.167  25.262 -0.6205  0.0751 -0.1462
  443BOLB   C4B10620  19.631  19.152  25.735 -0.0317  0.0201 -0.1987
  443BOLB   NC210621  18.755  21.207  27.646 -0.0839 -0.3497  0.0406
  443BOLB   PO210622  19.117  20.793  27.806 -0.0492  0.0106 -0.2680
  443BOLB   GL310623  19.244  20.629  27.374  0.1817  0.5561  0.0795
  443BOLB   GL410624  19.533  20.590  27.273 -0.1600 -0.0516  0.0873
  443BOLB   C1C10625  19.103  20.357  26.993 -0.0485 -0.2409  0.2249
  443BOLB   C2C10626  18.748  20.498  26.608  0.2589 -0.0703 -0.1416
  443BOLB   C3C10627  18.964  20.483  26.258 -0.0759 -0.1224  0.1479
  443BOLB   C4C10628  19.060  20.177  25.925  0.1882  0.3742 -0.3924
  443BOLB   C1D10629  19.715  20.535  26.865  0.2198  0.1421  0.1732
  443BOLB   C2D10630  19.440  20.428  26.420 -0.4529 -0.0463 -0.4669
  443BOLB   C3D10631  19.417  20.616  26.088 -0.4041 -0.2124  0.2323
  443BOLB   C4D10632  19.332  20.480  25.652  0.0951  0.4803  0.1376
  444BOLB   NC110633  11.570  19.730  23.766  0.3089 -0.0132 -0.0530
  444BOLB   PO110634  11.607  19.385  23.942 -0.1543 -0.1855 -0.1475
  444BOLB   GL110635  11.528  19.385  24.376  0.1660  0.0103  0.0949
  444BOLB   GL210636  11.573  19.034  24.530 -0.0160  0.1261  0.0672
  444BOLB   C1A10637  11.379  19.407  24.826  0.1879  0.2198  0.2958
  444BOLB   C2A10638  11.288  19.561  25.287 -0.0221  0.4276 -0.0422
  444BOLB   C3A10639  10.856  19.671  25.397 -0.0951 -0.3497  0.0901
  444BOLB   C4A10640  10.644  19.856  25.702  0.0407 -0.4692  0.0322
  444BOLB   C1B10641  11.486  18.973  25.031 -0.3443  0.0411 -0.0724
  444BOLB   C2B10642  11.600  18.849  25.504 -0.1927 -0.0781  0.6740
  444BOLB   C3B10643  11.528  18.390  25.836  0.1520 -0.3965  0.1927
  444BOLB   C4B10644  11.660  18.263  26.231 -0.0278 -0.0798  0.1630
  444BOLB   NC210645   9.971  20.042  27.801 -0.0967 -0.1102 -0.1422
  444BOLB   PO210646   9.964  20.513  27.670  0.0801  0.1220 -0.2713
  444BOLB   GL310647  10.095  20.705  27.264 -0.2514 -0.5428  0.1393
  444BOLB   GL410648   9.799  20.663  27.062  0.1973  0.0773  0.2918
  444BOLB   C1C10649  10.286  20.863  26.841 -0.0190  0.2205  0.1415
  444BOLB   C2C10650  10.339  20.642  26.533  0.1311  0.0449 -0.0298
  444BOLB   C3C10651  10.518  20.324  26.251  0.0356  0.1906  0.2004
  444BOLB   C4C10652  10.626  20.121  26.028  0.0013  0.0941 -0.1659
  444BOLB   C1D10653   9.944  20.332  26.857 -0.0722  0.2750  0.4830
  444BOLB   C2D10654  10.374  20.113  26.709 -0.2055 -0.0741 -0.1307
  444BOLB   C3D10655  10.831  19.955  26.684  0.2149 -0.1449  0.0651
  444BOLB   C4D10656  11.116  19.679  26.594 -0.1919  0.4240 -0.1841
  445BOLB   NC110657  10.242  13.239  23.413  0.1292  0.3069 -0.0787
  445BOLB   PO110658  10.031  13.557  23.579 -0.1521  0.2000  0.1366
  445BOLB   GL110659   9.718  13.594  23.993 -0.0105  0.1007  0.1112
  445BOLB   GL210660   9.469  13.406  23.916 -0.2076 -0.3192  0.0640
  445BOLB   C1A10661   9.563  13.679  24.375 -0.0624 -0.1630  0.1079
  445BOLB   C2A10662   9.301  13.936  24.705  0.1019  0.2724  0.1910
  445BOLB   C3A10663   9.004  14.003  25.064 -0.1598  0.0346  0.0294
  445BOLB   C4A10664   8.978  14.162  25.501 -0.1832  0.2817 -0.0745
  445BOLB   C1B10665   9.326  13.259  24.330 -0.0700 -0.0903  0.3075
  445BOLB   C2B10666   9.290  13.239  24.773  0.2504  0.1658  0.0723
  445BOLB   C3B10667   8.991  13.392  25.124  0.1500  0.0081 -0.1734
  445BOLB   C4B10668   8.922  13.626  25.416 -0.1402  0.1080 -0.3360
  445BOLB   NC210669   7.957  14.037  28.103 -0.0015  0.1848  0.1030
  445BOLB   PO210670   8.173  13.978  27.771 -0.0983  0.0183 -0.0413
  445BOLB   GL310671   8.225  14.318  27.437  0.2286  0.1930 -0.2359
  445BOLB   GL410672   8.040  14.182  27.248 -0.3997 -0.0312 -0.0414
  445BOLB   C1C10673   8.516  14.274  27.078  0.0076 -0.1344 -0.0076
  445BOLB   C2C10674   8.502  14.328  26.687  0.4115 -0.4038 -0.1285
  445BOLB   C3C10675   8.539  14.179  26.195 -0.0582  0.3370 -0.4209
  445BOLB   C4C10676   8.789  14.322  25.845 -0.0485  0.1475 -0.0758
  445BOLB   C1D10677   8.235  13.917  26.894 -0.2972 -0.1733  0.0236
  445BOLB   C2D10678   8.591  13.855  26.653  0.4552  0.2358 -0.0741
  445BOLB   C3D10679   8.779  13.707  26.272 -0.0032  0.2119 -0.0654
  445BOLB   C4D10680   8.975  13.828  25.905  0.2584  0.0418 -0.0981
  446BOLB   NC110681  24.282  24.548  20.580  0.1158 -0.3498  0.0454
  446BOLB   PO110682  23.944  24.268  20.413  0.2680  0.2447  0.0253
  446BOLB   GL110683  23.591  24.250  20.716 -0.2379 -0.3591  0.1699
  446BOLB   GL210684  23.662  24.089  20.847  0.1798 -0.1290  0.1944
  446BOLB   C1A10685  23.373  24.632  20.833  0.0658  0.1450 -0.0126
  446BOLB   C2A10686  23.224  24.694  21.192  0.1779 -0.1454 -0.0387
  446BOLB   C3A10687  23.070  24.545  21.669  0.0935  0.2854 -0.0791
  446BOLB   C4A10688  22.740  24.510  22.053  0.5170 -0.1286  0.4147
  446BOLB   C1B10689  23.658  23.886  21.186  0.0050  0.1996 -0.0502
  446BOLB   C2B10690  23.399  23.718  21.543 -0.0279  0.3095 -0.1705
  446BOLB   C3B10691  23.217  23.672  21.911  0.1533  0.3362  0.0603
  446BOLB   C4B10692  23.127  23.644  22.390 -0.2721 -0.0621 -0.2008
  446BOLB   NC210693  22.666  25.072  24.871 -0.2832 -0.0893 -0.0892
  446BOLB   PO210694  22.832  25.338  24.523  0.1252  0.1884 -0.0675
  446BOLB   GL310695  22.498  25.107  24.158 -0.1360  0.1640 -0.0976
  446BOLB   GL410696  22.263  25.104  24.381 -0.0784 -0.0980 -0.3956
  446BOLB   C1C10697  22.400  25.117  23.660 -0.0227  0.0026  0.0501
  446BOLB   C2C10698  22.387  24.943  23.214 -0.1897  0.4363  0.0287
  446BOLB   C3C10699  22.514  24.817  22.801 -0.0273  0.1491 -0.1935
  446BOLB   C4C10700  22.495  24.622  22.404 -0.2064 -0.5145  0.0658
  446BOLB   C1D10701  22.115  24.713  24.284  0.1501 -0.0205  0.3200
  446BOLB   C2D10702  22.002  24.439  24.064 -0.1362  0.0873  0.0091
  446BOLB   C3D10703  21.959  24.257  23.621 -0.0635 -0.1118 -0.0825
  446BOLB   C4D10704  21.839  24.401  23.166  0.3305  0.1441 -0.1760
  447BOLB   NC110705  16.476  18.829  24.652  0.0190  0.0779 -0.0139
  447BOLB   PO110706  16.173  18.535  24.713  0.3070  0.1724 -0.2066
  447BOLB   GL110707  16.491  18.596  25.092 -0.0250 -0.3292  0.0144
  447BOLB   GL210708  16.751  18.386  25.130  0.4344 -0.0545  0.2801
  447BOLB   C1A10709  16.605  18.912  25.343  0.1912 -0.0583 -0.1814
  447BOLB   C2A10710  16.538  19.027  25.720  0.2360  0.0194 -0.1091
  447BOLB   C3A10711  16.821  19.011  26.184 -0.0239 -0.2014 -0.2161
  447BOLB   C4A10712  17.112  19.012  26.516 -0.5591 -0.1390 -0.1097
  447BOLB   C1B10713  16.900  18.458  25.523 -0.0641  0.0830  0.0100
  447BOLB   C2B10714  16.869  18.470  25.910  0.3926  0.0494  0.1637
  447BOLB   C3B10715  16.699  18.425  26.423 -0.1841 -0.2288  0.0831
  447BOLB   C4B10716  16.898  18.630  26.851  0.1085 -0.0044  0.1955
  447BOLB   NC210717  17.202  18.443  29.018 -0.0768  0.1808 -0.0652
  447BOLB   PO210718  17.046  18.779  28.860  0.0655 -0.0842 -0.1992
  447BOLB   GL310719  17.133  18.790  28.374 -0.0506 -0.0237 -0.1400
  447BOLB   GL410720  16.799  18.814  28.364 -0.2198  0.1340  0.0412
  447BOLB   C1C10721  17.167  18.867  27.897  0.1451  0.0117 -0.2814
  447BOLB   C2C10722  17.177  19.301  27.637  0.0745 -0.0087  0.2146
  447BOLB   C3C10723  17.263  19.315  27.218  0.2191 -0.3028  0.2875
  447BOLB   C4C10724  17.145  19.184  26.890  0.1761  0.2840 -0.0742
  447BOLB   C1D10725  16.750  18.398  28.036  0.1044 -0.1855 -0.2407
  447BOLB   C2D10726  16.477  18.179  27.629  0.1229 -0.0757 -0.2115
  447BOLB   C3D10727  16.354  18.216  27.096  0.0503 -0.0675 -0.0326
  447BOLB   C4D10728  16.229  18.309  26.553 -0.0738  0.0114 -0.0936
  448BOLB   NC110729  15.672  12.322  23.472  0.0033 -0.0226  0.1477
  448BOLB   PO110730  15.540  12.121  23.850  0.0763 -0.1972  0.0798
  448BOLB   GL110731  15.726  11.992  24.195  0.1654 -0.1044  0.0157
  448BOLB   GL210732  15.861  12.238  24.369  0.1068 -0.0557  0.1294
  448BOLB   C1A10733  16.088  11.789  24.330  0.1436 -0.1725  0.0409
  448BOLB   C2A10734  16.157  11.523  24.604  0.0950  0.2932  0.0870
  448BOLB   C3A10735  15.937  11.442  25.024 -0.0807  0.2319 -0.0505
  448BOLB   C4A10736  15.963  11.248  25.422  0.2131  0.1808 -0.1416
  448BOLB   C1B10737  15.938  12.068  24.677 -0.0605  0.1324  0.0081
  448BOLB   C2B10738  15.880  11.936  25.024 -0.0257  0.2801 -0.2407
  448BOLB   C3B10739  15.814  11.740  25.425  0.0138 -0.2337 -0.1576
  448BOLB   C4B10740  15.540  11.713  25.717  0.0091 -0.0448  0.0705
  448BOLB   NC210741  16.229  10.005  27.304  0.0577  0.1266  0.0019
  448BOLB   PO210742  15.869   9.791  27.108  0.3287 -0.2368 -0.3366
  448BOLB   GL310743  15.460   9.987  26.962 -0.1281 -0.1257  0.2257
  448BOLB   GL410744  15.322  10.264  27.005  0.1327 -0.1103 -0.1076
  448BOLB   C1C10745  15.508  10.058  26.553  0.0847 -0.1103  0.0403
  448BOLB   C2C10746  15.505  10.372  26.173 -0.1294  0.0895  0.3036
  448BOLB   C3C10747  15.538  10.794  25.965  0.2640 -0.2009  0.0507
  448BOLB   C4C10748  15.566  11.151  25.641  0.1877 -0.1662 -0.2430
  448BOLB   C1D10749  15.174  10.528  26.719  0.1972  0.1541  0.2402
  448BOLB   C2D10750  15.138  10.755  26.369  0.3006 -0.0178 -0.3909
  448BOLB   C3D10751  15.290  11.211  26.329 -0.0901  0.1125 -0.0194
  448BOLB   C4D10752  15.639  11.336  26.157  0.2964  0.1971  0.5701
  449BOLB   NC110753  15.633  21.675  23.052  0.2863  0.0920 -0.1496
  449BOLB   PO110754  15.744  22.052  23.141  0.1898  0.2056  0.0336
  449BOLB   GL110755  15.658  22.454  23.328 -0.1140 -0.2409 -0.1023
  449BOLB   GL210756  16.013  22.691  23.254 -0.0071  0.0757 -0.1337
  449BOLB   C1A10757  15.689  22.613  23.738 -0.3180  0.3358  0.1974
  449BOLB   C2A10758  15.792  22.712  24.072  0.3317  0.2784 -0.0825
  449BOLB   C3A10759  15.827  22.724  24.528  0.1342  0.3081 -0.1228
  449BOLB   C4A10760  15.952  22.955  24.894  0.0494 -0.2165  0.0317
  449BOLB   C1B10761  16.008  22.978  23.687  0.1014  0.2384 -0.1855
  449BOLB   C2B10762  16.146  23.315  23.969  0.2355  0.1946 -0.4569
  449BOLB   C3B10763  16.067  23.681  24.108 -0.2730 -0.0454 -0.2490
  449BOLB   C4B10764  15.911  24.084  23.957 -0.1934 -0.1144  0.4016
  449BOLB   NC210765  16.702  24.021  26.927  0.2277  0.1743  0.0366
  449BOLB   PO210766  16.538  24.342  26.744 -0.0152 -0.1580 -0.1688
  449BOLB   GL310767  16.544  23.981  26.391 -0.2632 -0.1046  0.0172
  449BOLB   GL410768  16.733  23.713  26.502  0.1934  0.0014  0.1481
  449BOLB   C1C10769  16.361  23.938  26.063  0.2294  0.3694 -0.2515
  449BOLB   C2C10770  16.358  23.671  25.770  0.0803  0.1107 -0.4554
  449BOLB   C3C10771  16.179  23.550  25.442  0.4326  0.0647 -0.0332
  449BOLB   C4C10772  16.190  23.309  25.081  0.1905  0.2208  0.0509
  449BOLB   C1D10773  16.716  23.531  26.168 -0.1490 -0.1623 -0.0383
  449BOLB   C2D10774  16.678  23.202  25.909  0.0355 -0.2053 -0.4941
  449BOLB   C3D10775  16.648  22.987  25.453  0.0654  0.1127 -0.2615
  449BOLB   C4D10776  16.659  22.771  25.030  0.0397  0.1696 -0.2845
  450BOLB   NC110777  10.478  24.596  21.259 -0.1740 -0.0687 -0.1813
  450BOLB   PO110778  10.697  24.367  21.640 -0.0231 -0.1531 -0.1335
  450BOLB   GL110779  10.841  24.412  21.987 -0.2249  0.2742  0.0496
  450BOLB   GL210780  11.129  24.686  21.870  0.0147  0.4387 -0.0725
  450BOLB   C1A10781  11.007  24.286  22.424 -0.0057  0.1379  0.1686
  450BOLB   C2A10782  11.119  24.368  22.858  0.3168  0.0309  0.0488
  450BOLB   C3A10783  11.084  24.592  23.178 -0.0897  0.3955 -0.0267
  450BOLB   C4A10784  11.055  24.838  23.431  0.2152 -0.2596  0.5339
  450BOLB   C1B10785  10.843  24.887  22.230  0.2607 -0.1592 -0.0168
  450BOLB   C2B10786  10.972  24.915  22.688  0.0669 -0.5617 -0.1192
  450BOLB   C3B10787  11.298  25.022  22.921 -0.2378  0.3460 -0.1557
  450BOLB   C4B10788  11.693  25.195  22.931  0.0029 -0.0794  0.4345
  450BOLB   NC210789  11.286  25.623  25.615 -0.2930  0.1237 -0.2642
  450BOLB   PO210790  11.728  25.560  25.506  0.1054 -0.1813  0.0918
  450BOLB   GL310791  11.752  25.466  25.079  0.0777  0.0026  0.2782
  450BOLB   GL410792  12.055  25.521  24.969  0.1770 -0.0184 -0.0274
  450BOLB   C1C10793  11.734  25.533  24.634 -0.2053  0.2815 -0.0703
  450BOLB   C2C10794  11.819  25.294  24.253  0.1882 -0.2106 -0.1936
  450BOLB   C3C10795  11.715  24.938  24.016 -0.3922 -0.0214 -0.2608
  450BOLB   C4C10796  11.399  24.936  23.645 -0.1405  0.1593  0.2267
  450BOLB   C1D10797  12.178  25.336  24.629 -0.1495 -0.0024  0.0510
  450BOLB   C2D10798  12.204  24.926  24.393 -0.2176 -0.2273 -0.1605
  450BOLB   C3D10799  12.522  24.790  24.135  0.0309  0.0507  0.2802
  450BOLB   C4D10800  12.498  24.892  23.709  0.0080  0.2353 -0.1968
  451BOLB   NC110801  17.603  10.143  21.280 -0.2635 -0.1829 -0.3080
  451BOLB   PO110802  18.024  10.033  21.406  0.2358 -0.4403 -0.1752
  451BOLB   GL110803  18.125   9.658  21.663 -0.1978  0.1467 -0.1226
  451BOLB   GL210804  17.949   9.398  21.616 -0.0007 -0.0603  0.4097
  451BOLB   C1A10805  17.995   9.580  22.113  0.0778  0.0741 -0.4395
  451BOLB   C2A10806  17.913   9.264  22.539 -0.0536  0.1657  0.1337
  451BOLB   C3A10807  18.016   9.081  22.889  0.1230 -0.1609  0.2069
  451BOLB   C4A10808  18.118   8.971  23.265  0.1744  0.1279  0.1201
  451BOLB   C1B10809  18.284   9.226  21.799  0.2622 -0.0609  0.1377
  451BOLB   C2B10810  18.542   8.911  22.006 -0.0966 -0.1171 -0.0164
  451BOLB   C3B10811  18.512   8.484  22.005 -0.0957  0.0713  0.1749
  451BOLB   C4B10812  18.636   8.095  21.785 -0.1084 -0.1961 -0.2877
  451BOLB   NC210813  18.352   7.117  24.784  0.1031  0.0692  0.1834
  451BOLB   PO210814  18.883   7.156  24.782 -0.1178 -0.2370  0.1707
  451BOLB   GL310815  18.570   7.492  24.554 -0.3122 -0.1184 -0.1157
  451BOLB   GL410816  18.236   7.593  24.497 -0.3384 -0.0180 -0.2861
  451BOLB   C1C10817  18.627   7.654  24.101 -0.2841  0.2675 -0.0683
  451BOLB   C2C10818  18.656   7.972  23.922 -0.0118 -0.0379  0.2441
  451BOLB   C3C10819  18.372   8.325  23.684 -0.0698 -0.0709  0.0164
  451BOLB   C4C10820  18.301   8.657  23.490  0.3320 -0.2952 -0.2546
  451BOLB   C1D10821  18.021   7.471  24.147 -0.2745 -0.1897  0.0335
  451BOLB   C2D10822  17.659   7.601  23.837 -0.0176 -0.0894 -0.2934
  451BOLB   C3D10823  17.512   7.940  23.484 -0.0185  0.1999  0.2565
  451BOLB   C4D10824  17.605   8.221  23.092  0.0894  0.2339 -0.2560
  452BOLB   NC110825  11.492  15.578  24.452  0.1515  0.1328 -0.1133
  452BOLB   PO110826  11.170  15.424  24.084  0.3414 -0.0415  0.0409
  452BOLB   GL110827  11.004  15.326  24.555  0.0103 -0.1172  0.0853
  452BOLB   GL210828  10.681  15.361  24.547  0.2314  0.2224  0.1405
  452BOLB   C1A10829  10.991  15.327  25.002 -0.2590 -0.3122  0.0278
  452BOLB   C2A10830  10.919  15.209  25.440  0.0420  0.1941 -0.0274
  452BOLB   C3A10831  11.125  15.326  25.794 -0.1937 -0.1252 -0.2705
  452BOLB   C4A10832  11.231  15.247  26.257 -0.2708  0.0623  0.0656
  452BOLB   C1B10833  10.510  15.413  24.976  0.3267  0.1178 -0.1135
  452BOLB   C2B10834  10.452  15.306  25.360  0.2183 -0.0093 -0.0099
  452BOLB   C3B10835  10.514  15.104  25.786 -0.0035  0.0014  0.2045
  452BOLB   C4B10836  10.888  14.904  25.877  0.3745  0.1131  0.1498
  452BOLB   NC210837  10.620  15.511  28.912  0.0601  0.1506 -0.3745
  452BOLB   PO210838  10.739  15.792  28.616 -0.3114 -0.2839 -0.0624
  452BOLB   GL310839  10.925  15.545  28.224  0.0457  0.1496  0.1600
  452BOLB   GL410840  10.655  15.445  28.001 -0.0969 -0.0911  0.0608
  452BOLB   C1C10841  11.126  15.332  27.901  0.0706  0.0271 -0.2162
  452BOLB   C2C10842  11.266  15.411  27.502 -0.0060  0.1304 -0.1214
  452BOLB   C3C10843  11.293  15.498  27.041  0.2742 -0.0995  0.0571
  452BOLB   C4C10844  11.272  15.352  26.636  0.1200 -0.0596  0.2588
  452BOLB   C1D10845  10.808  15.681  27.675 -0.2960 -0.1749 -0.0277
  452BOLB   C2D10846  10.807  15.654  27.348  0.0037  0.0088 -0.0728
  452BOLB   C3D10847  10.654  15.647  26.854  0.2052  0.1038 -0.0545
  452BOLB   C4D10848  10.926  15.815  26.589  0.0291 -0.3347 -0.0592
  453BOLB   NC110849  13.058  21.516  23.109 -0.0760 -0.1105  0.0422
  453BOLB   PO110850  13.136  21.807  23.150  0.0063 -0.0381 -0.1641
  453BOLB   GL110851  13.280  22.079  23.491 -0.0293 -0.0905 -0.0669
  453BOLB   GL210852  13.151  22.085  23.839  0.3693  0.1738  0.1250
  453BOLB   C1A10853  13.460  22.474  23.730 -0.0706  0.1953  0.2351
  453BOLB   C2A10854  13.376  22.778  24.125 -0.1514 -0.1937  0.0363
  453BOLB   C3A10855  13.361  22.721  24.563  0.0542 -0.0312 -0.2772
  453BOLB   C4A10856  13.368  23.022  24.772 -0.2143 -0.1519 -0.3137
  453BOLB   C1B10857  13.453  22.267  24.232  0.2387 -0.3176 -0.0993
  453BOLB   C2B10858  13.465  22.231  24.694 -0.1323  0.0049 -0.2303
  453BOLB   C3B10859  13.250  22.423  24.978  0.1700  0.1218  0.0115
  453BOLB   C4B10860  12.947  22.452  25.330 -0.2613 -0.1557 -0.3490
  453BOLB   NC210861  12.395  25.227  26.189 -0.0514 -0.1072  0.0564
  453BOLB   PO210862  12.786  25.005  26.070  0.1695  0.0393  0.1581
  453BOLB   GL310863  12.713  24.726  25.753 -0.2143  0.2546  0.0625
  453BOLB   GL410864  12.360  24.759  25.581 -0.3103 -0.0528 -0.0543
  453BOLB   C1C10865  13.045  24.396  25.482  0.1284  0.1579 -0.0536
  453BOLB   C2C10866  13.208  24.062  25.344 -0.0302  0.1246 -0.1348
  453BOLB   C3C10867  13.075  23.724  25.039  0.2301 -0.2276  0.0433
  453BOLB   C4C10868  13.147  23.338  24.759 -0.1389  0.0445  0.0285
  453BOLB   C1D10869  12.150  24.332  25.695  0.0923  0.1069 -0.3950
  453BOLB   C2D10870  11.829  24.130  25.515 -0.1832 -0.3832 -0.3854
  453BOLB   C3D10871  11.768  23.994  25.146  0.1359 -0.0171  0.2306
  453BOLB   C4D10872  11.746  24.084  24.705 -0.1863 -0.0147 -0.0562
  454BOLB   NC110873  22.179  13.272  22.805 -0.0393  0.0219 -0.0414
  454BOLB   PO110874  21.724  13.337  22.630  0.3310  0.0215  0.0685
  454BOLB   GL110875  21.857  12.906  22.985 -0.1294 -0.2611  0.0223
  454BOLB   GL210876  22.073  12.986  23.317  0.0185  0.1856 -0.0065
  454BOLB   C1A10877  21.797  12.559  23.233  0.0712 -0.1449  0.0156
  454BOLB   C2A10878  21.851  12.227  23.565  0.0125  0.0005  0.0851
  454BOLB   C3A10879  22.107  11.898  23.866  0.0635  0.0607  0.0286
  454BOLB   C4A10880  22.107  11.650  24.386 -0.2812  0.1091  0.0981
  454BOLB   C1B10881  22.044  12.691  23.702  0.0510  0.1301  0.4083
  454BOLB   C2B10882  22.223  12.695  24.075 -0.2489  0.1046  0.0254
  454BOLB   C3B10883  22.505  12.518  24.327 -0.1091 -0.1726 -0.2330
  454BOLB   C4B10884  22.869  12.635  24.417 -0.1366  0.0932  0.3360
  454BOLB   NC210885  23.004  10.812  26.385  0.0852  0.1962  0.0778
  454BOLB   PO210886  23.054  11.302  26.426  0.1746 -0.1520 -0.3845
  454BOLB   GL310887  23.060  11.220  26.042 -0.0536 -0.0914 -0.0808
  454BOLB   GL410888  23.304  11.441  25.902 -0.1020 -0.0308  0.2073
  454BOLB   C1C10889  22.683  11.100  25.784  0.2027 -0.0879 -0.1584
  454BOLB   C2C10890  22.413  11.285  25.420  0.2058 -0.0447  0.1882
  454BOLB   C3C10891  22.096  11.229  25.056 -0.0562  0.1171  0.0764
  454BOLB   C4C10892  21.933  11.529  24.755  0.1943  0.0365 -0.0891
  454BOLB   C1D10893  23.213  11.794  25.953 -0.0042 -0.0619  0.3712
  454BOLB   C2D10894  23.042  12.256  25.775 -0.2823  0.3202 -0.1014
  454BOLB   C3D10895  22.676  12.413  25.559 -0.0774  0.2118  0.0811
  454BOLB   C4D10896  22.677  12.817  25.288  0.1895 -0.1507 -0.2515
  455BOLB   NC110897  13.346  20.706  23.327  0.1306  0.0282 -0.2018
  455BOLB   PO110898  13.699  20.766  23.702  0.0386 -0.1071  0.2833
  455BOLB   GL110899  13.734  21.196  24.023  0.2629  0.1264  0.0961
  455BOLB   GL210900  13.580  21.491  23.935  0.2090 -0.2044 -0.0044
  455BOLB   C1A10901  13.820  21.330  24.399 -0.0314  0.4014 -0.0770
  455BOLB   C2A10902  13.949  21.484  24.767  0.2551 -0.1009 -0.1438
  455BOLB   C3A10903  13.968  21.391  25.221 -0.3103 -0.1782  0.0775
  455BOLB   C4A10904  14.153  21.422  25.598 -0.1053  0.2877  0.1622
  455BOLB   C1B10905  13.386  21.752  24.213  0.1821  0.0032 -0.1593
  455BOLB   C2B10906  13.027  21.888  24.356  0.0723 -0.2528  0.1060
  455BOLB   C3B10907  12.956  22.143  24.706  0.0722  0.1897  0.2198
  455BOLB   C4B10908  12.598  22.278  25.033 -0.2409 -0.3124  0.1218
  455BOLB   NC210909  12.821  20.897  27.711 -0.0290 -0.1414  0.1598
  455BOLB   PO210910  13.089  21.202  27.849 -0.1037  0.0372 -0.1127
  455BOLB   GL310911  13.285  20.902  27.560 -0.2112 -0.3992 -0.1359
  455BOLB   GL410912  13.059  20.635  27.372  0.2549 -0.1840 -0.2429
  455BOLB   C1C10913  13.520  20.846  27.073 -0.1668 -0.0939 -0.2064
  455BOLB   C2C10914  13.810  21.059  26.841  0.1739  0.1579 -0.2107
  455BOLB   C3C10915  13.790  21.095  26.351  0.1317 -0.2498  0.0438
  455BOLB   C4C10916  14.041  21.222  25.963  0.1050 -0.0724  0.1287
  455BOLB   C1D10917  12.867  20.236  27.173  0.2640  0.1542 -0.1145
  455BOLB   C2D10918  12.703  20.050  26.746  0.3409  0.3563  0.1199
  455BOLB   C3D10919  12.231  19.884  26.780  0.3944 -0.3609  0.0167
  455BOLB   C4D10920  12.250  19.469  26.453  0.0133 -0.2601 -0.1532
  456BOLB   NC110921  16.625  24.084  21.363 -0.2751  0.1603 -0.2045
  456BOLB   PO110922  16.925  24.437  21.230  0.0524 -0.1226 -0.3276
  456BOLB   GL110923  17.175  24.755  21.355 -0.1012 -0.0231 -0.1324
  456BOLB   GL210924  17.406  24.884  21.147 -0.0675 -0.1337 -0.0140
  456BOLB   C1A10925  17.088  25.069  21.637 -0.2622  0.0748 -0.0577
  456BOLB   C2A10926  17.205  25.232  21.996 -0.2247 -0.2887  0.0918
  456BOLB   C3A10927  17.383  25.515  22.311 -0.1256  0.4658  0.1840
  456BOLB   C4A10928  17.451  25.593  22.719 -0.1266  0.0486 -0.1341
  456BOLB   C1B10929  17.437  25.240  21.242  0.0921  0.0707 -0.0106
  456BOLB   C2B10930  17.374  25.603  21.522  0.0378  0.2101 -0.0372
  456BOLB   C3B10931  17.548  25.759  21.918  0.0594 -0.1434  0.0125
  456BOLB   C4B10932  17.819  25.766  22.210 -0.3677 -0.1948  0.1865
  456BOLB   NC210933  17.397  27.879  23.961 -0.1951 -0.0752  0.2174
  456BOLB   PO210934  17.284  27.613  23.542  0.0390 -0.1414 -0.0453
  456BOLB   GL310935  17.184  27.400  23.246 -0.1345 -0.0239  0.2033
  456BOLB   GL410936  17.508  27.360  23.080  0.1670 -0.0836 -0.2545
  456BOLB   C1C10937  17.067  27.034  23.315  0.0205  0.1794 -0.0095
  456BOLB   C2C10938  17.142  26.587  23.225  0.1044  0.1161 -0.1410
  456BOLB   C3C10939  17.360  26.246  23.409  0.4749  0.3874  0.0762
  456BOLB   C4C10940  17.409  25.815  23.185 -0.2528  0.3790 -0.0761
  456BOLB   C1D10941  17.305  27.066  22.813 -0.0665  0.2176 -0.0719
  456BOLB   C2D10942  17.134  26.614  22.716 -0.5831 -0.2165 -0.0961
  456BOLB   C3D10943  17.375  26.269  22.715 -0.0561  0.0026  0.1792
  456BOLB   C4D10944  17.702  25.997  22.661  0.3119  0.0306  0.0002
  457BOLB   NC110945  14.854  20.863  23.437  0.0936 -0.0072 -0.3621
  457BOLB   PO110946  14.603  20.852  23.766 -0.2271 -0.0113 -0.1267
  457BOLB   GL110947  14.827  21.184  23.926 -0.2430 -0.2240 -0.0399
  457BOLB   GL210948  15.129  21.097  24.181  0.4678 -0.0678 -0.1706
  457BOLB   C1A10949  14.770  21.541  24.147 -0.1081 -0.0219 -0.2363
  457BOLB   C2A10950  14.691  21.948  24.346  0.1329 -0.2082 -0.0651
  457BOLB   C3A10951  14.651  22.241  24.711  0.0623 -0.4292 -0.1933
  457BOLB   C4A10952  14.757  22.596  25.072 -0.0341 -0.3678 -0.1263
  457BOLB   C1B10953  15.129  21.123  24.647 -0.2694  0.0530  0.0427
  457BOLB   C2B10954  14.850  21.230  25.000 -0.1476  0.3526  0.1456
  457BOLB   C3B10955  14.881  21.300  25.438 -0.0006  0.2315 -0.2418
  457BOLB   C4B10956  14.570  21.102  25.731  0.2878  0.3852 -0.1805
  457BOLB   NC210957  14.251  23.550  26.963 -0.1471  0.2206  0.2261
  457BOLB   PO210958  14.707  23.504  26.928 -0.0741  0.1048  0.0348
  457BOLB   GL310959  14.650  23.590  26.609 -0.1981  0.1531  0.3089
  457BOLB   GL410960  14.733  23.219  26.480 -0.2610  0.3967 -0.0413
  457BOLB   C1C10961  14.709  23.557  26.128 -0.0302 -0.3924  0.1227
  457BOLB   C2C10962  14.630  23.339  25.773  0.1313 -0.1945 -0.1920
  457BOLB   C3C10963  14.456  22.947  25.757 -0.2789  0.0043 -0.3079
  457BOLB   C4C10964  14.597  22.598  25.505  0.1605 -0.0170 -0.1000
  457BOLB   C1D10965  14.677  22.993  26.208  0.3596  0.0147 -0.2052
  457BOLB   C2D10966  14.953  22.845  25.937 -0.0099 -0.0337 -0.2172
  457BOLB   C3D10967  15.018  22.940  25.549 -0.2813  0.1583  0.1711
  457BOLB   C4D10968  14.776  23.141  25.366 -0.0838  0.2466  0.0818
  458BOLB   NC110969  18.173  15.024  24.101  0.2629  0.2216  0.1269
  458BOLB   PO110970  17.942  14.775  24.297  0.0493 -0.2979 -0.2524
  458BOLB   GL110971  17.909  14.586  24.763  0.0439  0.0925  0.3598
  458BOLB   GL210972  17.700  14.601  24.864 -0.0043 -0.2518  0.1679
  458BOLB   C1A10973  18.108  14.373  25.111 -0.2995  0.0706 -0.0232
  458BOLB   C2A10974  18.286  14.299  25.470 -0.0081 -0.2729  0.1230
  458BOLB   C3A10975  18.425  14.202  25.793 -0.0426 -0.5036  0.0657
  458BOLB   C4A10976  18.391  14.041  26.224  0.0072  0.2711  0.1532
  458BOLB   C1B10977  17.696  14.628  25.295 -0.0957  0.1848 -0.3195
  458BOLB   C2B10978  18.031  14.680  25.496 -0.3825 -0.0619 -0.3043
  458BOLB   C3B10979  18.276  14.894  25.718 -0.1612 -0.1605  0.0410
  458BOLB   C4B10980  18.536  14.746  26.059 -0.0508 -0.2857 -0.3418
  458BOLB   NC210981  19.303  13.894  28.472  0.0012  0.1094 -0.2386
  458BOLB   PO210982  19.640  13.914  28.086  0.0042  0.2220 -0.0159
  458BOLB   GL310983  19.313  14.029  27.902 -0.1913  0.0950  0.1229
  458BOLB   GL410984  19.294  14.393  27.691 -0.0795  0.1037 -0.0879
  458BOLB   C1C10985  18.968  13.964  27.710 -0.0304  0.0717  0.4559
  458BOLB   C2C10986  18.615  14.022  27.378 -0.1573 -0.1338  0.1832
  458BOLB   C3C10987  18.570  14.048  26.911  0.4029  0.1656 -0.4574
  458BOLB   C4C10988  18.386  14.060  26.558 -0.0619 -0.3389  0.2667
  458BOLB   C1D10989  19.381  14.158  27.279 -0.1918 -0.0191 -0.0453
  458BOLB   C2D10990  19.625  14.121  26.979 -0.0880 -0.0453 -0.0451
  458BOLB   C3D10991  19.951  14.500  26.799 -0.2064 -0.3488 -0.2198
  458BOLB   C4D10992  20.188  14.860  26.633  0.0380  0.0988  0.2645
  459BOLB   NC110993   9.098  18.523  23.049  0.1136  0.2163  0.0134
  459BOLB   PO110994   9.150  18.909  22.905 -0.0086 -0.2512  0.4056
  459BOLB   GL110995   9.076  18.916  23.361  0.2606 -0.3689  0.1831
  459BOLB   GL210996   8.855  19.106  23.486  0.1764  0.1383  0.0665
  459BOLB   C1A10997   9.177  18.851  23.781 -0.6434 -0.1443  0.2410
  459BOLB   C2A10998   9.404  18.936  24.114 -0.1196 -0.1716 -0.0727
  459BOLB   C3A10999   9.270  19.026  24.534  0.2830  0.1833 -0.0153
  459BOLB   C4A11000   9.154  18.942  24.957  0.0506 -0.3663  0.0691
  459BOLB   C1B11001   8.618  18.869  23.731 -0.3248 -0.0800 -0.0660
  459BOLB   C2B11002   8.088  18.850  23.712 -0.2958 -0.0921 -0.2737
  459BOLB   C3B11003   7.755  19.051  24.035 -0.2602  0.4068  0.0355
  459BOLB   C4B11004   7.299  19.187  24.241 -0.2449  0.0092 -0.4380
  459BOLB   NC211005   8.162  19.682  26.985 -0.0434  0.0973  0.2416
  459BOLB   PO211006   8.257  19.222  27.093 -0.3076  0.3780 -0.1996
  459BOLB   GL311007   8.468  19.234  26.744  0.1030  0.0984 -0.0715
  459BOLB   GL411008   8.676  19.493  26.639 -0.1108 -0.0281 -0.2717
  459BOLB   C1C11009   8.657  18.936  26.529  0.0415 -0.1636 -0.2805
  459BOLB   C2C11010   8.868  18.873  26.195 -0.2364  0.1197 -0.0120
  459BOLB   C3C11011   9.093  18.877  25.865  0.0548  0.1575 -0.0050
  459BOLB   C4C11012   9.066  18.799  25.402 -0.1103 -0.0302 -0.4029
  459BOLB   C1D11013   8.645  19.405  26.263  0.1215 -0.0333  0.2528
  459BOLB   C2D11014   8.218  18.975  26.272  0.2094 -0.0083  0.1784
  459BOLB   C3D11015   8.286  18.747  26.057  0.2111 -0.0940  0.0240
  459BOLB   C4D11016   8.400  18.391  25.778 -0.3375  0.0107  0.0308
  460BOLB   NC111017  10.003  20.293  23.265 -0.1252  0.0694 -0.1173
  460BOLB   PO111018  10.066  19.897  23.107  0.0654 -0.5058 -0.3960
  460BOLB   GL111019   9.802  19.818  23.451 -0.1413 -0.0248 -0.0522
  460BOLB   GL211020   9.982  19.853  23.676  0.2013  0.1450 -0.1991
  460BOLB   C1A11021   9.442  19.835  23.772  0.3165  0.0075  0.5133
  460BOLB   C2A11022   8.981  19.827  23.916  0.2651  0.1406 -0.0522
  460BOLB   C3A11023   8.884  20.023  24.184 -0.1149  0.0332  0.1540
  460BOLB   C4A11024   8.498  19.943  24.426  0.0444  0.1247 -0.0714
  460BOLB   C1B11025   9.738  20.019  24.034  0.0920 -0.0919 -0.1105
  460BOLB   C2B11026   9.375  19.997  24.304  0.1055 -0.2094 -0.3985
  460BOLB   C3B11027   9.166  19.899  24.686 -0.0934 -0.0254  0.0646
  460BOLB   C4B11028   9.017  19.959  25.112 -0.1192 -0.1970  0.0085
  460BOLB   NC211029   7.835  20.286  26.698  0.0294 -0.2711 -0.1017
  460BOLB   PO211030   7.900  19.910  26.545  0.1687 -0.1044  0.1021
  460BOLB   GL311031   8.056  20.196  26.146 -0.5107 -0.1625  0.0467
  460BOLB   GL411032   8.127  20.499  26.059 -0.0434  0.2146 -0.0003
  460BOLB   C1C11033   7.936  20.095  25.770 -0.1953 -0.2291 -0.4463
  460BOLB   C2C11034   8.205  19.962  25.526  0.0511  0.1282 -0.0608
  460BOLB   C3C11035   8.188  19.842  25.135 -0.0622  0.0683 -0.6000
  460BOLB   C4C11036   8.209  19.871  24.722  0.1080  0.2429 -0.1582
  460BOLB   C1D11037   8.427  20.374  25.739 -0.1459  0.1658 -0.2139
  460BOLB   C2D11038   8.539  20.400  25.225  0.1785  0.1235 -0.0681
  460BOLB   C3D11039   8.689  20.372  24.875  0.2675 -0.1118 -0.5232
  460BOLB   C4D11040   8.620  20.402  24.439 -0.1385  0.0995 -0.0937
  461BOLB   NC111041  11.599  16.285  23.985  0.0157  0.1016  0.1435
  461BOLB   PO111042  11.720  16.347  24.364  0.1874 -0.2781 -0.1851
  461BOLB   GL111043  11.773  16.278  24.714  0.1902  0.0149 -0.1701
  461BOLB   GL211044  11.757  15.919  24.760 -0.1608  0.0297 -0.0329
  461BOLB   C1A11045  11.846  16.184  25.200  0.0525 -0.0876  0.0074
  461BOLB   C2A11046  11.814  16.093  25.629  0.2080  0.0714  0.3742
  461BOLB   C3A11047  11.740  16.122  26.035 -0.0622  0.2284  0.0998
  461BOLB   C4A11048  11.836  16.180  26.476  0.0045 -0.2449 -0.3852
  461BOLB   C1B11049  11.991  15.767  25.067  0.0698  0.1654 -0.1575
  461BOLB   C2B11050  12.232  15.746  25.390  0.1929 -0.3450  0.1290
  461BOLB   C3B11051  12.364  15.844  25.804  0.2151 -0.2495 -0.1766
  461BOLB   C4B11052  12.130  15.823  26.275  0.0702  0.3476  0.0410
  461BOLB   NC211053  11.400  16.821  28.857  0.1809 -0.0057 -0.1009
  461BOLB   PO211054  11.448  16.407  28.757 -0.0786 -0.1049  0.0859
  461BOLB   GL311055  11.554  15.994  28.517 -0.2012 -0.1011 -0.0351
  461BOLB   GL411056  11.244  15.809  28.525 -0.1673  0.1127 -0.1642
  461BOLB   C1C11057  11.756  15.877  28.075  0.0648  0.0718  0.0137
  461BOLB   C2C11058  11.904  15.892  27.671 -0.2049  0.0675 -0.1441
  461BOLB   C3C11059  12.158  16.155  27.303  0.0443 -0.0773  0.0837
  461BOLB   C4C11060  12.058  16.260  26.964 -0.2592  0.1390  0.0487
  461BOLB   C1D11061  11.424  15.542  28.235 -0.1374 -0.0276 -0.1811
  461BOLB   C2D11062  11.734  15.405  27.897  0.1205 -0.0734 -0.3004
  461BOLB   C3D11063  11.758  15.465  27.422 -0.1863 -0.4008  0.0039
  461BOLB   C4D11064  11.772  15.690  26.990  0.1783 -0.2993 -0.0140
  462BOLB   NC111065   8.903  14.233  23.377 -0.0558 -0.0619 -0.1849
  462BOLB   PO111066   9.075  13.830  23.297  0.2823  0.0891 -0.2903
  462BOLB   GL111067   9.089  13.901  23.741 -0.1180  0.2701  0.0993
  462BOLB   GL211068   8.820  14.074  23.824 -0.0581 -0.1589 -0.1740
  462BOLB   C1A11069   9.124  13.715  24.095  0.0249  0.0302  0.0079
  462BOLB   C2A11070   8.995  13.604  24.505  0.0811  0.2761 -0.0159
  462BOLB   C3A11071   8.684  13.566  24.782 -0.2298  0.0088 -0.0569
  462BOLB   C4A11072   8.498  13.400  25.205  0.1893  0.0354 -0.5208
  462BOLB   C1B11073   8.900  14.161  24.285  0.0698 -0.1014 -0.0686
  462BOLB   C2B11074   8.684  14.055  24.626 -0.2945 -0.1176  0.1025
  462BOLB   C3B11075   8.659  14.305  25.002 -0.0285 -0.3550  0.0414
  462BOLB   C4B11076   8.674  14.494  25.330  0.1006 -0.1054  0.0919
  462BOLB   NC211077   7.945  13.674  27.427 -0.0458  0.2978  0.0380
  462BOLB   PO211078   7.519  13.643  27.303 -0.2180  0.0259  0.0192
  462BOLB   GL311079   7.760  13.656  26.902 -0.2678 -0.0910 -0.1997
  462BOLB   GL411080   8.068  13.462  27.018 -0.2742 -0.0063  0.1603
  462BOLB   C1C11081   7.933  13.730  26.502 -0.0394  0.1864  0.1469
  462BOLB   C2C11082   8.104  13.754  26.186  0.0632  0.0113  0.0247
  462BOLB   C3C11083   8.393  13.775  25.930  0.3987 -0.1043  0.3562
  462BOLB   C4C11084   8.498  13.497  25.703  0.0816  0.0846 -0.0288
  462BOLB   C1D11085   8.320  13.431  26.591 -0.2865  0.1571  0.0636
  462BOLB   C2D11086   8.421  13.384  26.216 -0.2822 -0.1025  0.0238
  462BOLB   C3D11087   8.723  13.142  26.031  0.2357 -0.0486  0.3367
  462BOLB   C4D11088   9.077  13.109  25.734  0.1760  0.0810  0.0474
  463BOLB   NC111089  11.770  15.332  24.090 -0.0658 -0.1189  0.0048
  463BOLB   PO111090  11.935  15.353  24.554 -0.2232 -0.1617 -0.2251
  463BOLB   GL111091  11.699  15.380  24.843 -0.0674  0.1819 -0.0918
  463BOLB   GL211092  11.420  15.588  25.021  0.0501  0.0988  0.3953
  463BOLB   C1A11093  11.762  15.385  25.314  0.1813 -0.1173 -0.0720
  463BOLB   C2A11094  11.910  15.381  25.742  0.1333  0.4282 -0.0606
  463BOLB   C3A11095  12.017  15.328  26.244 -0.0920 -0.1274  0.3374
  463BOLB   C4A11096  11.811  15.457  26.522  0.3915 -0.2118 -0.3373
  463BOLB   C1B11097  11.371  15.670  25.479 -0.1054 -0.1578  0.2031
  463BOLB   C2B11098  11.521  15.706  25.855  0.2591 -0.1456 -0.3841
  463BOLB   C3B11099  11.367  15.752  26.302  0.0342 -0.1238 -0.1123
  463BOLB   C4B11100  11.423  15.907  26.664 -0.1589 -0.1131  0.1293
  463BOLB   NC211101  12.244  14.383  28.922 -0.2623  0.2319  0.1015
  463BOLB   PO211102  12.288  14.839  28.861 -0.1542 -0.2230 -0.1870
  463BOLB   GL311103  12.099  14.771  28.495  0.2272 -0.1699 -0.1663
  463BOLB   GL411104  12.088  14.458  28.341 -0.1951  0.2774 -0.3383
  463BOLB   C1C11105  11.877  14.797  28.095 -0.0884  0.0435 -0.1011
  463BOLB   C2C11106  11.716  14.969  27.711  0.2825  0.0084  0.2449
  463BOLB   C3C11107  11.541  15.033  27.342  0.2509  0.1654 -0.1687
  463BOLB   C4C11108  11.692  15.211  27.007 -0.2413  0.0401  0.1152
  463BOLB   C1D11109  12.129  14.152  28.054 -0.2432  0.0714  0.2187
  463BOLB   C2D11110  12.137  14.034  27.695  0.0406  0.1775 -0.1135
  463BOLB   C3D11111  11.903  13.724  27.360 -0.0303  0.0438  0.0369
  463BOLB   C4D11112  11.528  13.578  27.098  0.1493  0.0925  0.1573
  464BOLB   NC111113  15.482  17.156  24.477 -0.0163  0.0267 -0.0312
  464BOLB   PO111114  15.472  17.432  24.806  0.0881  0.2222  0.0765
  464BOLB   GL111115  15.601  17.405  25.235 -0.0157  0.0873 -0.6622
  464BOLB   GL211116  15.849  17.268  25.335 -0.1047  0.1641 -0.0023
  464BOLB   C1A11117  15.441  17.295  25.642 -0.2300  0.0545  0.3669
  464BOLB   C2A11118  15.476  17.285  26.039  0.0291 -0.1554  0.2522
  464BOLB   C3A11119  15.605  17.004  26.311  0.1421 -0.0421  0.2821
  464BOLB   C4A11120  15.747  16.929  26.716  0.2113  0.4179 -0.1966
  464BOLB   C1B11121  15.912  17.378  25.717  0.2143  0.3066 -0.0431
  464BOLB   C2B11122  16.014  17.454  26.124  0.0236 -0.1400 -0.0477
  464BOLB   C3B11123  15.907  17.372  26.472 -0.0670  0.0585  0.3830
  464BOLB   C4B11124  15.763  17.405  26.852 -0.0928 -0.4084  0.0266
  464BOLB   NC211125  16.965  16.673  28.961  0.2713  0.2523 -0.0034
  464BOLB   PO211126  16.872  17.123  28.926  0.2341  0.1501  0.1364
  464BOLB   GL311127  16.773  16.970  28.520  0.1817  0.0676 -0.0940
  464BOLB   GL411128  16.691  16.620  28.492 -0.0464 -0.1118  0.0073
  464BOLB   C1C11129  16.381  17.009  28.268  0.1799 -0.4549  0.1353
  464BOLB   C2C11130  16.108  17.050  27.881 -0.0195 -0.0348 -0.3745
  464BOLB   C3C11131  15.837  16.856  27.566 -0.2380 -0.1323  0.3705
  464BOLB   C4C11132  15.633  16.906  27.171  0.2045 -0.2554  0.1772
  464BOLB   C1D11133  16.848  16.273  28.183 -0.0079 -0.0098 -0.0322
  464BOLB   C2D11134  16.878  16.331  27.674 -0.1609  0.0456 -0.2514
  464BOLB   C3D11135  17.172  16.564  27.361 -0.2260  0.2014  0.0650
  464BOLB   C4D11136  17.534  16.428  27.232 -0.2478 -0.0313 -0.1634
  465BOLB   NC111137  19.857  10.870  21.277  0.1968  0.1093 -0.0813
  465BOLB   PO111138  19.609  10.587  21.207  0.1323  0.2694  0.0652
  465BOLB   GL111139  19.805  10.316  21.469 -0.3518  0.0841  0.0296
  465BOLB   GL211140  19.765  10.024  21.398  0.1024 -0.0311  0.1644
  465BOLB   C1A11141  20.029  10.016  21.869  0.0107 -0.3265 -0.0327
  465BOLB   C2A11142  19.984   9.612  21.988 -0.3091  0.1025 -0.3237
  465BOLB   C3A11143  20.313   9.289  22.063  0.3647  0.0340  0.2160
  465BOLB   C4A11144  20.530   8.958  22.027  0.0861  0.3075  0.0127
  465BOLB   C1B11145  19.634   9.677  21.635 -0.1058 -0.3540 -0.2471
  465BOLB   C2B11146  19.791   9.292  21.602  0.1328 -0.1121  0.1971
  465BOLB   C3B11147  20.021   8.951  21.722 -0.0743 -0.0538 -0.2532
  465BOLB   C4B11148  20.397   8.674  21.623  0.0108 -0.1319  0.0805
  465BOLB   NC211149  20.241   6.241  22.367 -0.2114  0.0592 -0.0631
  465BOLB   PO211150  19.937   6.280  22.600 -0.1790  0.1491 -0.2309
  465BOLB   GL311151  20.118   6.748  22.693 -0.0198  0.1981  0.1901
  465BOLB   GL411152  19.986   6.976  22.830 -0.0380  0.1178  0.1807
  465BOLB   C1C11153  20.312   7.205  22.487  0.2911 -0.1769  0.3419
  465BOLB   C2C11154  20.637   7.511  22.205  0.0060  0.3055  0.3670
  465BOLB   C3C11155  20.731   8.006  22.159  0.0105  0.0164  0.0927
  465BOLB   C4C11156  20.625   8.421  21.898 -0.0308  0.0504  0.0588
  465BOLB   C1D11157  19.477   7.001  22.764  0.0137  0.0410 -0.1940
  465BOLB   C2D11158  19.283   7.150  22.433  0.0762  0.1559 -0.1134
  465BOLB   C3D11159  19.284   7.095  22.052 -0.2921  0.0293 -0.1515
  465BOLB   C4D11160  19.242   7.079  21.658  0.1508 -0.1498  0.0672
  466BOLB   NC111161  16.443  14.393  24.297 -0.2072 -0.1655  0.1889
  466BOLB   PO111162  16.595  14.329  24.677 -0.1445 -0.3300 -0.2042
  466BOLB   GL111163  16.668  14.174  24.995  0.0607 -0.2507  0.0719
  466BOLB   GL211164  16.319  14.065  25.039  0.0752  0.3915  0.0090
  466BOLB   C1A11165  16.681  14.059  25.396 -0.3063  0.2090  0.0430
  466BOLB   C2A11166  16.917  14.079  25.773  0.0869 -0.0830  0.0005
  466BOLB   C3A11167  17.082  13.943  26.226 -0.0671  0.1660 -0.2219
  466BOLB   C4A11168  16.912  13.695  26.471 -0.1344  0.2205  0.0770
  466BOLB   C1B11169  16.143  13.716  25.109 -0.0279 -0.2883 -0.0963
  466BOLB   C2B11170  16.024  13.412  25.553  0.0003 -0.0334  0.0045
  466BOLB   C3B11171  16.171  13.186  25.877 -0.0772  0.1003  0.0067
  466BOLB   C4B11172  16.161  12.912  26.320  0.0228  0.0687 -0.0858
  466BOLB   NC211173  17.628  14.475  28.788  0.0739 -0.2445  0.0848
  466BOLB   PO211174  17.719  14.118  28.556 -0.0383  0.1296 -0.0857
  466BOLB   GL311175  17.470  14.179  28.238  0.1567 -0.5187 -0.1166
  466BOLB   GL411176  17.392  13.877  28.126  0.2097 -0.2545 -0.1092
  466BOLB   C1C11177  17.131  14.268  27.988 -0.1846 -0.0735 -0.0163
  466BOLB   C2C11178  17.122  14.033  27.663  0.1324 -0.1923  0.2597
  466BOLB   C3C11179  17.261  13.918  27.243 -0.3033  0.1344 -0.1006
  466BOLB   C4C11180  17.047  13.714  26.925 -0.0733  0.1579  0.0414
  466BOLB   C1D11181  17.565  14.164  27.790 -0.0374 -0.0574  0.1547
  466BOLB   C2D11182  17.392  14.394  27.403  0.1678  0.1683  0.0386
  466BOLB   C3D11183  17.347  14.695  27.038 -0.0721  0.2173 -0.2829
  466BOLB   C4D11184  17.060  15.100  27.036 -0.1864 -0.0979 -0.0218
  467BOLB   NC111185  21.387  18.766  22.637 -0.1976 -0.2987  0.2244
  467BOLB   PO111186  21.698  19.134  22.848 -0.1017 -0.1321 -0.4700
  467BOLB   GL111187  21.900  19.397  23.101  0.3510 -0.0433  0.2187
  467BOLB   GL211188  21.687  19.341  23.393 -0.0410 -0.3106 -0.0720
  467BOLB   C1A11189  22.199  19.677  23.083 -0.2964 -0.2794 -0.2004
  467BOLB   C2A11190  22.562  19.863  23.217 -0.3051 -0.1554  0.2198
  467BOLB   C3A11191  22.883  19.886  23.478 -0.3071  0.3868  0.1403
  467BOLB   C4A11192  23.204  19.871  23.784 -0.2845  0.3131  0.1595
  467BOLB   C1B11193  21.531  19.441  23.823  0.0922 -0.1302 -0.0234
  467BOLB   C2B11194  21.609  19.708  24.213  0.0146  0.0066 -0.2506
  467BOLB   C3B11195  21.773  19.777  24.598 -0.2504  0.2075 -0.1117
  467BOLB   C4B11196  21.937  19.806  25.038  0.4196 -0.0407  0.1071
  467BOLB   NC211197  23.137  21.347  26.285  0.0591 -0.4024 -0.2819
  467BOLB   PO211198  23.514  21.120  26.120 -0.1033  0.1878 -0.2264
  467BOLB   GL311199  23.218  21.022  25.716 -0.0728  0.0479 -0.2415
  467BOLB   GL411200  23.025  21.077  25.922  0.0789 -0.0264  0.1955
  467BOLB   C1C11201  23.338  20.828  25.250  0.0450  0.0997  0.2140
  467BOLB   C2C11202  23.383  20.692  24.804 -0.0393  0.2189  0.2330
  467BOLB   C3C11203  23.374  20.423  24.420  0.1454  0.0053  0.2048
  467BOLB   C4C11204  23.403  20.096  24.062 -0.0280 -0.2232 -0.3278
  467BOLB   C1D11205  22.647  20.909  25.690  0.1422 -0.0376  0.0285
  467BOLB   C2D11206  22.432  20.895  25.345 -0.0796 -0.3456  0.0577
  467BOLB   C3D11207  22.443  21.117  24.910 -0.4966  0.2115 -0.4438
  467BOLB   C4D11208  22.509  21.183  24.425  0.1526  0.0401  0.0329
  468BOLB   NC111209  18.807  16.026  24.624  0.2570 -0.1279 -0.0858
  468BOLB   PO111210  19.086  16.321  24.586  0.1248 -0.2062  0.1118
  468BOLB   GL111211  18.885  16.351  24.994 -0.0986 -0.1122  0.2613
  468BOLB   GL211212  18.608  16.134  25.067 -0.3930 -0.0327 -0.0439
  468BOLB   C1A11213  18.653  16.559  25.300  0.1344 -0.1336  0.0142
  468BOLB   C2A11214  18.702  16.629  25.723  0.2526 -0.3184 -0.0257
  468BOLB   C3A11215  18.768  16.616  26.137  0.1504 -0.2388  0.0949
  468BOLB   C4A11216  18.975  16.721  26.501 -0.1267  0.0084 -0.1003
  468BOLB   C1B11217  18.908  16.153  25.439  0.4067  0.0118 -0.1277
  468BOLB   C2B11218  19.193  16.207  25.829 -0.0224 -0.1328  0.1134
  468BOLB   C3B11219  19.359  16.339  26.155  0.0151 -0.1559  0.0006
  468BOLB   C4B11220  19.637  16.297  26.454 -0.1750 -0.0142  0.2547
  468BOLB   NC211221  18.979  15.986  28.350  0.2894  0.2412  0.0827
  468BOLB   PO211222  19.393  16.195  28.357  0.2114 -0.1449 -0.0873
  468BOLB   GL311223  19.148  16.529  28.111 -0.0550  0.1345 -0.3280
  468BOLB   GL411224  18.813  16.467  28.213  0.3585 -0.0403 -0.2077
  468BOLB   C1C11225  19.090  16.863  27.842 -0.0433 -0.2292  0.0782
  468BOLB   C2C11226  18.893  16.965  27.543  0.2116 -0.1747  0.1120
  468BOLB   C3C11227  18.923  17.143  27.173  0.2513  0.2347 -0.0949
  468BOLB   C4C11228  18.997  17.119  26.781 -0.0045 -0.1098  0.0536
  468BOLB   C1D11229  18.646  16.913  28.006 -0.0202 -0.1662 -0.0492
  468BOLB   C2D11230  18.327  17.059  27.587  0.3408  0.2194 -0.1008
  468BOLB   C3D11231  18.159  17.178  27.113  0.1167 -0.2165  0.0572
  468BOLB   C4D11232  17.734  17.303  26.987 -0.2663 -0.0828 -0.1140
  469BOLB   NC111233  20.669  23.420  20.338  0.1655 -0.1969 -0.0156
  469BOLB   PO111234  20.804  23.667  20.750 -0.0656 -0.2859 -0.1094
  469BOLB   GL111235  21.034  23.822  21.077  0.2804 -0.2999 -0.4033
  469BOLB   GL211236  20.759  23.777  21.297 -0.0615 -0.1366  0.2173
  469BOLB   C1A11237  21.338  24.032  21.477 -0.0108 -0.1395  0.2677
  469BOLB   C2A11238  21.530  24.363  21.381 -0.0576  0.4391  0.2145
  469BOLB   C3A11239  21.642  24.701  21.638 -0.3442 -0.1588 -0.0810
  469BOLB   C4A11240  21.358  24.889  21.972  0.1132  0.1324  0.1736
  469BOLB   C1B11241  20.818  24.122  21.672 -0.4358  0.2680  0.0917
  469BOLB   C2B11242  20.893  24.433  22.096  0.0797  0.1053  0.1366
  469BOLB   C3B11243  20.968  24.704  22.424  0.2341  0.0959 -0.0631
  469BOLB   C4B11244  20.944  25.051  22.784  0.0680 -0.1260 -0.1315
  469BOLB   NC211245  21.016  26.465  24.006 -0.1236 -0.1162 -0.1410
  469BOLB   PO211246  21.117  26.137  24.181  0.1108  0.2277 -0.0320
  469BOLB   GL311247  21.065  25.835  23.919 -0.0324  0.0280  0.0359
  469BOLB   GL411248  20.881  25.651  24.108 -0.1521 -0.0391  0.0584
  469BOLB   C1C11249  21.131  25.447  23.593 -0.1273  0.1385  0.0167
  469BOLB   C2C11250  21.335  25.319  23.319 -0.2866 -0.4165  0.0829
  469BOLB   C3C11251  21.411  25.110  22.816 -0.2036  0.1261 -0.2569
  469BOLB   C4C11252  21.375  25.014  22.402  0.0282  0.1377 -0.2638
  469BOLB   C1D11253  20.670  25.363  23.890 -0.1198  0.2267 -0.2300
  469BOLB   C2D11254  20.596  24.940  23.663  0.0804 -0.1615 -0.0832
  469BOLB   C3D11255  20.495  24.592  23.419  0.1929  0.2338 -0.1924
  469BOLB   C4D11256  20.163  24.302  23.454 -0.3492 -0.0506  0.0323
  470BOLB   NC111257  21.737  16.085  23.544  0.2687 -0.3228 -0.3983
  470BOLB   PO111258  21.736  15.699  23.601  0.0010  0.1598 -0.1168
  470BOLB   GL111259  21.872  15.539  23.981  0.0029 -0.0644  0.2991
  470BOLB   GL211260  21.538  15.422  24.010 -0.0510 -0.3100 -0.3298
  470BOLB   C1A11261  21.805  15.646  24.408 -0.2984 -0.2607  0.0893
  470BOLB   C2A11262  21.981  15.537  24.792 -0.2149 -0.1852 -0.0810
  470BOLB   C3A11263  22.286  15.569  25.090 -0.0081  0.0466  0.2237
  470BOLB   C4A11264  22.359  15.387  25.537 -0.0161  0.1674  0.1080
  470BOLB   C1B11265  21.672  15.171  24.336  0.1139 -0.0808  0.2952
  470BOLB   C2B11266  21.858  14.938  24.609 -0.2101  0.1660 -0.4847
  470BOLB   C3B11267  21.935  14.656  25.063  0.0484 -0.0529  0.1164
  470BOLB   C4B11268  22.327  14.505  25.314  0.1156 -0.0643  0.1305
  470BOLB   NC211269  22.711  14.739  27.605  0.0605  0.3727  0.3316
  470BOLB   PO211270  22.383  14.836  27.864 -0.4566  0.1504 -0.1132
  470BOLB   GL311271  22.244  15.001  27.471 -0.0381  0.0377 -0.1692
  470BOLB   GL411272  22.043  15.173  27.501  0.2782  0.2017  0.0139
  470BOLB   C1C11273  22.381  15.097  27.051 -0.2350 -0.2229 -0.1086
  470BOLB   C2C11274  22.208  15.061  26.652  0.2225  0.0618  0.1078
  470BOLB   C3C11275  22.076  15.067  26.275 -0.1228  0.0238  0.2588
  470BOLB   C4C11276  22.243  15.287  25.924 -0.2049  0.1039  0.2165
  470BOLB   C1D11277  21.900  15.108  27.045  0.2188 -0.0344  0.1788
  470BOLB   C2D11278  21.623  15.009  26.714 -0.0987  0.1266 -0.0066
  470BOLB   C3D11279  21.570  14.950  26.251  0.3192  0.5137 -0.0459
  470BOLB   C4D11280  21.707  15.143  25.888  0.1790 -0.0280 -0.0161
  471BOLB   NC111281  21.157  11.367  22.052 -0.0198 -0.2394 -0.2999
  471BOLB   PO111282  20.918  11.006  21.994 -0.2155  0.0378  0.1323
  471BOLB   GL111283  21.164  10.732  22.125 -0.2261  0.0075  0.0478
  471BOLB   GL211284  21.093  10.654  22.424  0.3277 -0.0162 -0.0614
  471BOLB   C1A11285  21.475  10.416  22.382 -0.0426 -0.0435  0.0155
  471BOLB   C2A11286  21.350  10.218  22.707  0.1019 -0.2306 -0.2950
  471BOLB   C3A11287  20.997   9.994  22.918 -0.1705 -0.0504 -0.2016
  471BOLB   C4A11288  21.074   9.495  23.122  0.0223  0.2311  0.2363
  471BOLB   C1B11289  20.901  10.514  22.826 -0.0913 -0.0611  0.1132
  471BOLB   C2B11290  21.161  10.495  23.159  0.0322 -0.1767 -0.0194
  471BOLB   C3B11291  21.489  10.194  23.185  0.0991  0.0421 -0.0060
  471BOLB   C4B11292  21.731   9.855  23.242 -0.0978 -0.0971 -0.2873
  471BOLB   NC211293  22.906   8.785  24.308 -0.0778  0.2170 -0.3116
  471BOLB   PO211294  22.902   8.480  24.043  0.1676 -0.0489  0.0170
  471BOLB   GL311295  22.713   8.768  23.809  0.1326  0.2586  0.2325
  471BOLB   GL411296  23.054   9.016  23.890  0.1005 -0.1628  0.3106
  471BOLB   C1C11297  22.368   8.925  23.594  0.1267 -0.2669 -0.1152
  471BOLB   C2C11298  21.998   8.918  23.390 -0.3723  0.3070  0.3308
  471BOLB   C3C11299  21.559   8.789  23.257 -0.2529  0.2270 -0.1940
  471BOLB   C4C11300  21.199   9.010  23.143  0.0464 -0.2018  0.1991
  471BOLB   C1D11301  23.388   9.275  23.635 -0.0462  0.3797  0.0008
  471BOLB   C2D11302  23.084   9.538  23.450  0.0061  0.0403 -0.5522
  471BOLB   C3D11303  22.827   9.933  23.419  0.0920 -0.1192  0.0177
  471BOLB   C4D11304  22.794  10.360  23.201 -0.0526  0.0588  0.1183
  472BOLB   NC111305  20.510  19.933  22.331  0.4237 -0.2009  0.0686
  472BOLB   PO111306  20.658  19.929  22.775  0.2139 -0.1089  0.2097
  472BOLB   GL111307  20.718  20.035  23.196 -0.0896  0.0715  0.0450
  472BOLB   GL211308  20.944  20.209  23.312  0.2127 -0.1760 -0.0891
  472BOLB   C1A11309  20.784  19.886  23.678 -0.1200  0.2925 -0.6058
  472BOLB   C2A11310  20.753  20.064  24.059  0.1625 -0.0043 -0.1999
  472BOLB   C3A11311  20.642  20.100  24.361 -0.4854  0.2378 -0.2745
  472BOLB   C4A11312  20.751  19.849  24.728 -0.1490 -0.1394 -0.2546
  472BOLB   C1B11313  20.927  20.390  23.730  0.0860 -0.1389  0.1463
  472BOLB   C2B11314  21.032  20.566  24.178  0.0451 -0.1371 -0.2770
  472BOLB   C3B11315  21.159  20.740  24.624 -0.2902  0.0255  0.0153
  472BOLB   C4B11316  20.939  20.726  25.030 -0.0905 -0.0108 -0.1411
  472BOLB   NC211317  22.497  21.341  26.613  0.0175 -0.1605  0.1905
  472BOLB   PO211318  22.145  21.119  26.443 -0.2070  0.2201 -0.0883
  472BOLB   GL311319  21.890  20.686  26.225 -0.1332 -0.4396  0.0378
  472BOLB   GL411320  22.142  20.546  26.073 -0.2057 -0.4385  0.3258
  472BOLB   C1C11321  21.476  20.650  25.951 -0.1295  0.1314  0.2339
  472BOLB   C2C11322  21.284  20.169  25.729 -0.0006 -0.2298 -0.1443
  472BOLB   C3C11323  20.974  19.979  25.489 -0.1104  0.2211 -0.2583
  472BOLB   C4C11324  20.799  19.777  25.076 -0.1764  0.0889 -0.3797
  472BOLB   C1D11325  22.112  20.727  25.673 -0.0520 -0.4074 -0.2777
  472BOLB   C2D11326  21.788  20.750  25.409  0.0962 -0.0651  0.2560
  472BOLB   C3D11327  21.460  20.424  25.226  0.3428  0.1932 -0.2402
  472BOLB   C4D11328  21.546  20.241  24.873 -0.0895 -0.1321  0.2973
  473BOLB   NC111329  15.290  16.079  25.035 -0.1364  0.1093  0.0206
  473BOLB   PO111330  15.600  15.802  25.187  0.1906  0.3003  0.1052
  473BOLB   GL111331  15.422  15.462  25.505 -0.1216 -0.1216  0.0530
  473BOLB   GL211332  15.321  15.129  25.352  0.2439 -0.0680  0.1024
  473BOLB   C1A11333  15.405  15.194  25.816  0.1025  0.0415  0.2908
  473BOLB   C2A11334  15.312  15.264  26.238 -0.2764 -0.2215  0.4708
  473BOLB   C3A11335  15.286  15.098  26.641 -0.1311  0.4074  0.3090
  473BOLB   C4A11336  15.199  14.870  26.903 -0.2294 -0.1279  0.2153
  473BOLB   C1B11337  15.718  14.943  25.326 -0.1718  0.0358 -0.0815
  473BOLB   C2B11338  15.810  14.729  25.726 -0.2155 -0.3390 -0.0831
  473BOLB   C3B11339  15.919  14.382  25.915  0.2565  0.2360  0.1324
  473BOLB   C4B11340  16.057  14.215  26.295 -0.3495  0.0953 -0.4995
  473BOLB   NC211341  15.112  13.922  28.914  0.3487 -0.6646 -0.2051
  473BOLB   PO211342  14.712  13.810  28.790 -0.1102 -0.1446 -0.2039
  473BOLB   GL311343  14.770  13.698  28.356  0.1406  0.1744 -0.2971
  473BOLB   GL411344  15.005  13.529  28.155 -0.0010  0.1003  0.3041
  473BOLB   C1C11345  14.780  14.017  28.050 -0.3187  0.0873  0.2558
  473BOLB   C2C11346  14.940  14.425  28.062 -0.1865 -0.0332 -0.4285
  473BOLB   C3C11347  14.939  14.493  27.660  0.0740 -0.1877  0.2759
  473BOLB   C4C11348  15.060  14.517  27.215  0.0042 -0.1025 -0.3342
  473BOLB   C1D11349  14.930  13.560  27.639  0.4326  0.1906 -0.0170
  473BOLB   C2D11350  15.110  13.597  27.232 -0.1488  0.0200 -0.0900
  473BOLB   C3D11351  14.868  13.364  26.824  0.0790  0.2305  0.1802
  473BOLB   C4D11352  14.491  13.360  26.546 -0.1179 -0.3645 -0.0443
  474BOLB   NC111353  13.626  10.478  23.107  0.2166  0.1410  0.1556
  474BOLB   PO111354  13.880  10.820  23.173  0.1887  0.0748  0.1568
  474BOLB   GL111355  14.037  10.581  23.470 -0.1746 -0.3242 -0.2082
  474BOLB   GL211356  14.130  10.292  23.201 -0.1960  0.3289 -0.0698
  474BOLB   C1A11357  14.381  10.659  23.665  0.0855 -0.1511 -0.1576
  474BOLB   C2A11358  14.550  10.619  24.110  0.1662  0.0102  0.3464
  474BOLB   C3A11359  14.695  10.583  24.510 -0.2055  0.2041  0.0087
  474BOLB   C4A11360  14.643  10.375  24.995  0.0382  0.1639  0.2741
  474BOLB   C1B11361  14.351  10.179  23.571 -0.2558  0.1880  0.1071
  474BOLB   C2B11362  14.427  10.115  23.974  0.0978 -0.2683 -0.0322
  474BOLB   C3B11363  14.838  10.080  24.189  0.0997  0.1240 -0.1713
  474BOLB   C4B11364  15.180  10.108  23.990  0.2409 -0.1012  0.1562
  474BOLB   NC211365  15.062   9.003  26.996  0.1317 -0.0496 -0.1384
  474BOLB   PO211366  14.779   8.677  27.144  0.3464  0.1219  0.0596
  474BOLB   GL311367  14.640   8.803  26.705 -0.2076  0.0543  0.2114
  474BOLB   GL411368  14.382   8.534  26.547  0.0053 -0.0075 -0.2607
  474BOLB   C1C11369  14.571   9.183  26.351 -0.0833 -0.0452 -0.0102
  474BOLB   C2C11370  14.489   9.378  25.975  0.1561 -0.0841  0.0730
  474BOLB   C3C11371  14.338   9.699  25.689  0.1968 -0.2443 -0.0741
  474BOLB   C4C11372  14.474   9.991  25.280  0.0045  0.0885  0.1209
  474BOLB   C1D11373  14.159   8.898  26.288  0.0186  0.0686  0.2077
  474BOLB   C2D11374  14.187   8.923  25.827  0.0538 -0.2620 -0.2372
  474BOLB   C3D11375  14.242   9.251  25.460 -0.2064 -0.3912 -0.4107
  474BOLB   C4D11376  14.172   9.379  25.097  0.2784  0.2088  0.1706
  475BOLB   NC111377  15.037  13.603  24.338 -0.0401 -0.1375 -0.1850
  475BOLB   PO111378  15.138  13.212  24.477  0.0204  0.2519 -0.0671
  475BOLB   GL111379  15.257  13.330  24.883 -0.1388 -0.0898  0.1265
  475BOLB   GL211380  14.907  13.293  25.051 -0.2113 -0.1605 -0.0650
  475BOLB   C1A11381  15.285  13.403  25.369 -0.2099 -0.0521 -0.2576
  475BOLB   C2A11382  15.497  13.326  25.801  0.0450  0.0943  0.1031
  475BOLB   C3A11383  15.686  13.271  26.148 -0.4279 -0.1543 -0.0740
  475BOLB   C4A11384  15.572  12.905  26.402  0.0406  0.1767 -0.0616
  475BOLB   C1B11385  14.785  13.433  25.428  0.2697 -0.0569  0.2174
  475BOLB   C2B11386  14.462  13.579  25.609  0.0914  0.2256 -0.0051
  475BOLB   C3B11387  14.231  13.497  25.963  0.3193  0.0403  0.0609
  475BOLB   C4B11388  13.995  13.461  26.412  0.0657 -0.3324  0.0400
  475BOLB   NC211389  15.066  12.053  29.000 -0.0003  0.1372  0.0949
  475BOLB   PO211390  15.187  12.253  28.621  0.2063  0.5793  0.1406
  475BOLB   GL311391  15.223  12.100  28.124 -0.0509  0.0366 -0.2472
  475BOLB   GL411392  15.535  12.079  27.904  0.1585  0.0254 -0.0143
  475BOLB   C1C11393  15.051  11.944  27.708  0.1686 -0.1449  0.2988
  475BOLB   C2C11394  15.140  12.107  27.337 -0.0426 -0.0547 -0.0519
  475BOLB   C3C11395  15.187  12.409  27.079 -0.3362  0.1287  0.2995
  475BOLB   C4C11396  15.413  12.677  26.814 -0.1486 -0.4267  0.0897
  475BOLB   C1D11397  15.614  12.097  27.449 -0.1716  0.2162 -0.2723
  475BOLB   C2D11398  15.700  12.317  27.044  0.0586  0.2080 -0.1691
  475BOLB   C3D11399  15.660  12.211  26.617 -0.1496  0.3023  0.0193
  475BOLB   C4D11400  15.707  12.005  26.167 -0.0551 -0.1063  0.3219
  476BOLB   NC111401  17.405  15.801  25.064  0.2987  0.2156  0.0420
  476BOLB   PO111402  17.450  16.291  24.911  0.2079 -0.0610 -0.5221
  476BOLB   GL111403  17.664  16.271  25.275 -0.0081 -0.0347  0.3910
  476BOLB   GL211404  17.707  16.568  25.362 -0.0925  0.1888 -0.1499
  476BOLB   C1A11405  17.863  16.129  25.631 -0.0367 -0.0955  0.1766
  476BOLB   C2A11406  17.916  16.095  26.039 -0.0688  0.0175  0.3040
  476BOLB   C3A11407  17.808  16.076  26.364 -0.3486  0.3379  0.2727
  476BOLB   C4A11408  17.958  15.932  26.686 -0.0372 -0.1080 -0.2410
  476BOLB   C1B11409  17.298  16.773  25.577 -0.0947  0.0324  0.0712
  476BOLB   C2B11410  17.116  16.668  26.028 -0.3051 -0.0758 -0.0281
  476BOLB   C3B11411  17.358  16.338  26.275  0.1716  0.1344  0.1621
  476BOLB   C4B11412  17.622  16.295  26.723 -0.2080 -0.3041  0.3388
  476BOLB   NC211413  19.693  15.884  28.632 -0.2007  0.1458  0.0840
  476BOLB   PO211414  19.327  15.696  28.474  0.2785 -0.4661 -0.1027
  476BOLB   GL311415  19.091  15.640  28.027 -0.0517  0.1478  0.0326
  476BOLB   GL411416  19.437  15.686  27.885  0.0658  0.1299 -0.1312
  476BOLB   C1C11417  18.852  15.305  27.789 -0.2451 -0.0561 -0.0830
  476BOLB   C2C11418  18.598  15.303  27.444 -0.3337 -0.0622  0.2009
  476BOLB   C3C11419  18.581  15.616  27.221  0.0463 -0.1487  0.0417
  476BOLB   C4C11420  18.187  15.740  27.033  0.2022  0.3054 -0.1592
  476BOLB   C1D11421  19.494  15.364  27.601 -0.0155  0.1978  0.1077
  476BOLB   C2D11422  19.552  15.102  27.315  0.0609 -0.1741 -0.0690
  476BOLB   C3D11423  19.825  14.636  27.332 -0.1622 -0.1805 -0.2645
  476BOLB   C4D11424  20.166  14.207  27.275  0.1636 -0.3060 -0.2912
  477BOLB   NC111425  13.097  22.744  22.618 -0.1428  0.0680  0.0412
  477BOLB   PO111426  13.109  23.210  22.479 -0.1469  0.0917  0.3220
  477BOLB   GL111427  13.201  23.426  22.819  0.0124  0.2283  0.2242
  477BOLB   GL211428  13.066  23.437  23.048  0.1939  0.1473 -0.0259
  477BOLB   C1A11429  13.588  23.448  23.040  0.2832  0.0627 -0.1878
  477BOLB   C2A11430  13.812  23.533  23.413  0.2691 -0.0504  0.6989
  477BOLB   C3A11431  14.102  23.769  23.648  0.2005  0.2503 -0.3456
  477BOLB   C4A11432  14.202  23.945  24.016 -0.2000 -0.1343 -0.1513
  477BOLB   C1B11433  13.145  23.731  23.235  0.0861  0.0534 -0.4340
  477BOLB   C2B11434  13.399  23.942  23.642 -0.2130 -0.0858  0.2355
  477BOLB   C3B11435  13.325  24.334  23.780 -0.0512 -0.1032 -0.3028
  477BOLB   C4B11436  13.390  24.512  24.177 -0.1569  0.1719 -0.0958
  477BOLB   NC211437  15.230  25.743  25.976  0.1977  0.2888 -0.2099
  477BOLB   PO211438  15.135  25.540  25.650 -0.0555 -0.2520  0.0980
  477BOLB   GL311439  14.934  25.397  25.320  0.0908  0.0038 -0.0937
  477BOLB   GL411440  15.064  25.490  25.114  0.2636 -0.1460  0.0108
  477BOLB   C1C11441  14.565  25.256  25.141 -0.3850  0.0663 -0.2936
  477BOLB   C2C11442  14.476  24.848  24.984  0.1084 -0.3844  0.3181
  477BOLB   C3C11443  14.359  24.601  24.644  0.0523  0.0062  0.1181
  477BOLB   C4C11444  14.154  24.125  24.432  0.2549  0.3804 -0.1493
  477BOLB   C1D11445  14.994  25.467  24.683  0.2623  0.1075 -0.1360
  477BOLB   C2D11446  14.872  25.311  24.305 -0.0922  0.1338 -0.0802
  477BOLB   C3D11447  14.924  25.056  23.905 -0.0855  0.0479 -0.1932
  477BOLB   C4D11448  14.767  24.659  23.588  0.1328  0.1178  0.2815
  478BOLB   NC111449  17.442  12.817  23.944  0.2702 -0.0218  0.0655
  478BOLB   PO111450  17.430  13.319  23.912  0.1703 -0.2018 -0.0229
  478BOLB   GL111451  17.440  13.246  24.405  0.1664 -0.0496  0.0616
  478BOLB   GL211452  17.513  12.987  24.447  0.0681  0.0743  0.0247
  478BOLB   C1A11453  17.359  13.222  24.800  0.1030 -0.0807 -0.2415
  478BOLB   C2A11454  17.599  13.112  25.249  0.0035  0.2596  0.0129
  478BOLB   C3A11455  17.772  12.935  25.688  0.2368 -0.5452 -0.0585
  478BOLB   C4A11456  17.986  12.727  26.015 -0.1131 -0.2464  0.2419
  478BOLB   C1B11457  17.587  12.816  24.802  0.0010  0.0275 -0.0791
  478BOLB   C2B11458  17.808  12.703  25.206 -0.1337 -0.4300 -0.0138
  478BOLB   C3B11459  17.446  12.541  25.481  0.1070 -0.3135  0.1205
  478BOLB   C4B11460  17.565  12.411  25.810 -0.0173 -0.0586 -0.0594
  478BOLB   NC211461  17.342  11.150  27.694 -0.0722 -0.1549  0.1601
  478BOLB   PO211462  17.056  11.028  27.412 -0.1815 -0.0398 -0.2445
  478BOLB   GL311463  17.278  11.385  27.286  0.2978  0.0264  0.1291
  478BOLB   GL411464  17.202  11.357  27.065 -0.2102 -0.1676  0.0649
  478BOLB   C1C11465  17.447  11.709  26.937  0.1458  0.0901 -0.2945
  478BOLB   C2C11466  17.513  11.911  26.656  0.2000 -0.1240  0.2967
  478BOLB   C3C11467  17.683  12.133  26.340 -0.1275  0.0332 -0.0409
  478BOLB   C4C11468  18.021  12.428  26.261  0.0888 -0.0759 -0.0746
  478BOLB   C1D11469  17.052  11.366  26.763  0.0502  0.0074  0.4553
  478BOLB   C2D11470  16.713  11.216  26.455  0.1660 -0.0681  0.2680
  478BOLB   C3D11471  16.466  11.145  26.155 -0.0202 -0.1169 -0.0341
  478BOLB   C4D11472  16.528  10.732  25.876  0.1343  0.0357  0.0994
  479BOLB   NC111473  20.385  21.964  22.010 -0.4287 -0.0923  0.0913
  479BOLB   PO111474  20.321  22.242  22.312 -0.0139 -0.1902 -0.0465
  479BOLB   GL111475  20.408  22.364  22.683  0.0116  0.3502  0.0979
  479BOLB   GL211476  20.209  22.699  22.670 -0.1663 -0.1018 -0.3096
  479BOLB   C1A11477  20.594  22.624  22.949  0.0932  0.2873  0.0212
  479BOLB   C2A11478  20.288  22.656  23.366 -0.1174 -0.0373  0.0666
  479BOLB   C3A11479  20.348  22.681  23.745  0.0209  0.2536  0.0085
  479BOLB   C4A11480  20.230  22.684  24.202 -0.2213 -0.2452  0.0812
  479BOLB   C1B11481  20.309  23.041  22.921  0.1627 -0.1872 -0.2647
  479BOLB   C2B11482  20.530  23.087  23.253  0.1639 -0.3153  0.0585
  479BOLB   C3B11483  20.733  23.036  23.692 -0.0928 -0.2899 -0.5098
  479BOLB   C4B11484  20.677  22.994  24.120  0.0171 -0.3988 -0.0815
  479BOLB   NC211485  21.670  23.055  26.032 -0.0556 -0.0402  0.0365
  479BOLB   PO211486  21.927  23.191  25.776 -0.0690 -0.2174  0.0723
  479BOLB   GL311487  21.623  23.047  25.456  0.1107  0.1654  0.0648
  479BOLB   GL411488  21.775  22.752  25.312 -0.0106 -0.1742  0.1291
  479BOLB   C1C11489  21.537  23.270  25.055  0.1219  0.2198  0.1466
  479BOLB   C2C11490  21.315  23.113  24.673 -0.1309  0.1276 -0.3455
  479BOLB   C3C11491  20.928  22.912  24.515 -0.0557  0.0210  0.2675
  479BOLB   C4C11492  20.476  22.737  24.526 -0.0116 -0.0303 -0.0125
  479BOLB   C1D11493  21.313  22.830  25.087 -0.2661 -0.0083 -0.5052
  479BOLB   C2D11494  20.872  22.763  25.295 -0.1551 -0.0252  0.0661
  479BOLB   C3D11495  20.543  22.757  25.523 -0.4903 -0.1191  0.0063
  479BOLB   C4D11496  20.201  22.729  25.670  0.2384  0.2144  0.0590
  480BOLB   NC111497  19.232  10.579  20.931 -0.3094  0.2085 -0.2429
  480BOLB   PO111498  19.167  10.369  21.325 -0.1447 -0.0821  0.0677
  480BOLB   GL111499  19.212  10.021  21.527 -0.0268  0.0144 -0.0151
  480BOLB   GL211500  19.396  10.103  21.766 -0.0264 -0.2954 -0.1131
  480BOLB   C1A11501  19.148   9.638  21.734 -0.2085  0.1708 -0.2574
  480BOLB   C2A11502  19.331   9.288  21.871  0.0550  0.0220 -0.1340
  480BOLB   C3A11503  19.770   9.172  22.135  0.2676  0.0362  0.2350
  480BOLB   C4A11504  20.078   8.908  22.330  0.0096 -0.2384 -0.1170
  480BOLB   C1B11505  19.576   9.988  22.099  0.0120 -0.1534 -0.0294
  480BOLB   C2B11506  19.577   9.663  22.291 -0.2806  0.0054 -0.0713
  480BOLB   C3B11507  19.498   9.355  22.638  0.0117  0.1512  0.0345
  480BOLB   C4B11508  19.590   9.307  23.193  0.1813  0.0793 -0.1307
  480BOLB   NC211509  21.874   7.627  24.175 -0.5072  0.0404  0.0798
  480BOLB   PO211510  21.700   7.805  23.792 -0.0699 -0.3286 -0.0646
  480BOLB   GL311511  21.412   7.957  23.524 -0.1180 -0.3967 -0.0213
  480BOLB   GL411512  21.144   8.074  23.726  0.0727 -0.1604 -0.1237
  480BOLB   C1C11513  21.272   8.373  23.328  0.0627 -0.0187  0.3062
  480BOLB   C2C11514  20.943   8.637  23.034  0.1072 -0.3628 -0.0478
  480BOLB   C3C11515  20.573   8.781  22.870  0.1769  0.0403 -0.0413
  480BOLB   C4C11516  20.351   9.029  22.658  0.0654  0.2449  0.0131
  480BOLB   C1D11517  20.944   8.418  23.715  0.1534  0.0502  0.0716
  480BOLB   C2D11518  20.788   8.781  23.942  0.0147 -0.4243  0.0872
  480BOLB   C3D11519  21.007   8.953  24.318 -0.0054  0.0922 -0.1868
  480BOLB   C4D11520  20.970   9.449  24.444 -0.2499  0.1146 -0.2266
  481BOLB   NC111521  10.922  19.854  23.130 -0.0331  0.2066 -0.0753
  481BOLB   PO111522  10.550  19.844  23.339  0.0268 -0.0106  0.0944
  481BOLB   GL111523  10.462  19.896  23.683  0.0914 -0.0580 -0.2545
  481BOLB   GL211524  10.740  19.931  23.788  0.1704  0.1664  0.0823
  481BOLB   C1A11525  10.296  20.125  24.008 -0.1198 -0.1969  0.1511
  481BOLB   C2A11526  10.027  20.128  24.438  0.3252  0.0443 -0.1284
  481BOLB   C3A11527  10.206  20.071  24.844 -0.4298 -0.0326  0.0515
  481BOLB   C4A11528   9.916  20.100  25.187 -0.1378  0.0859  0.0898
  481BOLB   C1B11529  10.767  19.926  24.188  0.1416 -0.0818 -0.1007
  481BOLB   C2B11530  10.597  19.913  24.533  0.2067 -0.1766 -0.0207
  481BOLB   C3B11531  10.664  19.753  24.853 -0.0923 -0.1673  0.3484
  481BOLB   C4B11532  10.881  19.337  25.006 -0.0032 -0.2006 -0.1975
  481BOLB   NC211533   8.501  20.961  26.880 -0.1598 -0.0657 -0.1413
  481BOLB   PO211534   8.553  21.303  26.661 -0.2865 -0.3540  0.0853
  481BOLB   GL311535   8.579  21.004  26.306  0.1161 -0.0826 -0.0342
  481BOLB   GL411536   8.601  20.772  25.984 -0.2624 -0.0022  0.1786
  481BOLB   C1C11537   8.951  20.774  26.305  0.0660  0.0335 -0.2247
  481BOLB   C2C11538   9.234  20.612  25.931 -0.1965  0.0624 -0.3481
  481BOLB   C3C11539   9.356  20.428  25.651 -0.1606  0.0708 -0.0946
  481BOLB   C4C11540   9.609  20.277  25.355  0.0994 -0.0267 -0.4032
  481BOLB   C1D11541   8.848  20.768  25.603 -0.0485 -0.1822  0.2536
  481BOLB   C2D11542   8.802  20.792  25.113  0.2554 -0.2108 -0.2804
  481BOLB   C3D11543   8.401  20.781  24.777  0.2408  0.1319  0.1354
  481BOLB   C4D11544   8.299  20.875  24.369 -0.0159  0.0772  0.1010
  482BOLB   NC111545  14.848  19.050  24.646  0.4775 -0.0870 -0.1766
  482BOLB   PO111546  15.035  19.323  24.796  0.1591  0.0386  0.2083
  482BOLB   GL111547  15.426  19.467  25.103  0.4679 -0.0706 -0.0258
  482BOLB   GL211548  15.638  19.164  25.256  0.3110  0.0448  0.3562
  482BOLB   C1A11549  15.822  19.645  25.223 -0.0119  0.2694 -0.4051
  482BOLB   C2A11550  16.012  19.794  25.497  0.3467  0.3614  0.0129
  482BOLB   C3A11551  16.031  19.720  26.007  0.0685 -0.1730  0.0123
  482BOLB   C4A11552  16.155  19.963  26.423 -0.1287 -0.2118 -0.0849
  482BOLB   C1B11553  15.782  19.318  25.587 -0.3744  0.4333  0.0047
  482BOLB   C2B11554  15.591  19.705  25.706  0.1522  0.0384 -0.2628
  482BOLB   C3B11555  15.582  20.051  26.017  0.0454 -0.0699 -0.2695
  482BOLB   C4B11556  15.684  20.183  26.371  0.2247 -0.0072 -0.1353
  482BOLB   NC211557  15.867  20.268  28.531  0.0185  0.5913  0.3621
  482BOLB   PO211558  15.880  19.830  28.428  0.5892 -0.1749 -0.0655
  482BOLB   GL311559  16.207  19.853  28.231 -0.2350  0.0027 -0.0180
  482BOLB   GL411560  16.386  20.049  28.175 -0.2159 -0.2242  0.2744
  482BOLB   C1C11561  16.306  19.628  27.940  0.1188 -0.2722  0.1635
  482BOLB   C2C11562  16.444  19.564  27.499 -0.0282  0.1309  0.0094
  482BOLB   C3C11563  16.166  19.814  27.243  0.2474  0.0534 -0.2867
  482BOLB   C4C11564  16.063  19.873  26.915 -0.1776 -0.1036 -0.0869
  482BOLB   C1D11565  16.120  20.021  27.723 -0.0821  0.2109 -0.1662
  482BOLB   C2D11566  15.978  20.220  27.384 -0.3591  0.3866  0.0295
  482BOLB   C3D11567  16.208  20.389  27.027 -0.1088  0.2176 -0.4677
  482BOLB   C4D11568  16.205  20.455  26.604  0.0860  0.2241 -0.5960
  483BOLB   NC111569  15.901  24.549  20.938 -0.0028 -0.2093  0.0631
  483BOLB   PO111570  16.325  24.399  20.928 -0.1917 -0.1200 -0.0234
  483BOLB   GL111571  16.369  24.542  21.317 -0.1237 -0.0725 -0.1631
  483BOLB   GL211572  16.579  24.634  21.591  0.3068 -0.0692  0.0428
  483BOLB   C1A11573  16.150  24.899  21.630 -0.0502 -0.0225 -0.0157
  483BOLB   C2A11574  16.174  25.246  21.938 -0.0216  0.2864 -0.1850
  483BOLB   C3A11575  16.385  25.521  22.161  0.2514  0.0893  0.2396
  483BOLB   C4A11576  16.516  25.962  22.324  0.2665  0.0961  0.1281
  483BOLB   C1B11577  16.752  24.834  21.892  0.1269  0.4763 -0.2717
  483BOLB   C2B11578  16.731  25.141  22.089 -0.1891 -0.1737  0.0699
  483BOLB   C3B11579  16.892  25.558  22.268 -0.3795  0.1598  0.1205
  483BOLB   C4B11580  16.942  25.830  22.562 -0.1802 -0.0282  0.1055
  483BOLB   NC211581  17.075  27.964  23.106 -0.0599 -0.0199  0.0785
  483BOLB   PO211582  17.535  28.017  22.970 -0.0133 -0.0859  0.0226
  483BOLB   GL311583  17.436  27.653  22.677 -0.2455  0.1376 -0.1523
  483BOLB   GL411584  17.616  27.656  22.354  0.3132  0.0730  0.1095
  483BOLB   C1C11585  17.141  27.386  22.545  0.0592 -0.0289 -0.1341
  483BOLB   C2C11586  16.930  26.996  22.367 -0.2504 -0.0905  0.2456
  483BOLB   C3C11587  16.546  26.898  22.368 -0.1078  0.0878  0.1302
  483BOLB   C4C11588  16.573  26.426  22.305 -0.3047 -0.0692  0.2005
  483BOLB   C1D11589  17.392  27.429  22.116 -0.1654 -0.3762 -0.1248
  483BOLB   C2D11590  17.187  27.059  21.884  0.4169  0.1217  0.0344
  483BOLB   C3D11591  17.368  26.730  21.724  0.3721  0.1419  0.1511
  483BOLB   C4D11592  17.390  26.198  21.743 -0.1037 -0.3468 -0.0873
  484BOLB   NC111593  20.617  22.215  21.470 -0.2619  0.0490 -0.1358
  484BOLB   PO111594  20.970  22.049  21.786  0.1234 -0.2607  0.1628
  484BOLB   GL111595  20.969  22.169  22.262 -0.0690 -0.3522 -0.3639
  484BOLB   GL211596  20.784  22.046  22.415 -0.3892  0.1428  0.4734
  484BOLB   C1A11597  20.998  22.454  22.652  0.1575  0.0247  0.1404
  484BOLB   C2A11598  21.077  22.717  23.001 -0.0752 -0.1100 -0.0786
  484BOLB   C3A11599  20.989  22.768  23.412  0.0843  0.0789 -0.2313
  484BOLB   C4A11600  21.184  22.812  23.816  0.1902  0.1929  0.1288
  484BOLB   C1B11601  20.791  22.036  22.753  0.0926  0.0685 -0.5241
  484BOLB   C2B11602  21.025  22.213  23.170  0.2380 -0.4866 -0.2921
  484BOLB   C3B11603  21.205  22.175  23.554 -0.0332  0.1691 -0.1662
  484BOLB   C4B11604  21.375  22.239  23.925 -0.4805  0.0542  0.0731
  484BOLB   NC211605  20.892  22.911  26.279  0.0638 -0.0546 -0.1162
  484BOLB   PO211606  21.301  22.799  26.221 -0.2702  0.1190  0.2468
  484BOLB   GL311607  21.324  22.785  25.795  0.0541 -0.0601 -0.0783
  484BOLB   GL411608  21.615  22.576  25.818 -0.2388 -0.0763 -0.1147
  484BOLB   C1C11609  21.211  22.459  25.450  0.4407 -0.1225  0.1768
  484BOLB   C2C11610  21.274  22.350  25.006 -0.1151 -0.0195 -0.2741
  484BOLB   C3C11611  21.262  22.563  24.668 -0.0410 -0.1365 -0.0988
  484BOLB   C4C11612  21.241  22.592  24.273 -0.0493  0.1926  0.1322
  484BOLB   C1D11613  21.656  22.166  25.525  0.2116 -0.3720  0.0800
  484BOLB   C2D11614  21.443  21.846  25.245  0.0756 -0.0125  0.0533
  484BOLB   C3D11615  21.242  21.775  24.915  0.0777 -0.0412 -0.0723
  484BOLB   C4D11616  20.965  21.941  24.811 -0.2923 -0.1972 -0.2333
  485BOLB   NC111617  11.236  17.761  23.868 -0.2206 -0.1405 -0.0863
  485BOLB   PO111618  11.412  17.626  24.291  0.0898 -0.2691  0.4144
  485BOLB   GL111619  11.217  17.651  24.677  0.1198  0.0261 -0.0614
  485BOLB   GL211620  11.372  17.548  24.952 -0.2484  0.4117 -0.6412
  485BOLB   C1A11621  10.835  17.771  24.892  0.2196  0.2970 -0.0403
  485BOLB   C2A11622  10.904  17.569  25.180  0.2496 -0.4094  0.0019
  485BOLB   C3A11623  10.949  17.729  25.751  0.1102  0.0460 -0.1661
  485BOLB   C4A11624  11.075  17.594  26.053 -0.0021 -0.1999  0.1086
  485BOLB   C1B11625  11.508  17.552  25.417 -0.2483 -0.0042 -0.1588
  485BOLB   C2B11626  11.655  17.802  25.826  0.2389  0.2605 -0.2783
  485BOLB   C3B11627  11.889  17.770  26.140  0.1170 -0.2609 -0.1109
  485BOLB   C4B11628  11.976  17.502  26.502  0.1932 -0.0856 -0.0595
  485BOLB   NC211629  10.728  17.760  28.331  0.3252 -0.2495  0.1402
  485BOLB   PO211630  10.745  18.216  28.162 -0.2956  0.2395  0.2101
  485BOLB   GL311631  10.861  17.887  27.848  0.2790 -0.2615 -0.0171
  485BOLB   GL411632  11.107  18.145  27.713  0.0256  0.3871 -0.5149
  485BOLB   C1C11633  10.869  17.697  27.581 -0.1464  0.0808  0.2801
  485BOLB   C2C11634  10.671  17.752  27.260  0.1137  0.0212  0.0756
  485BOLB   C3C11635  10.748  17.774  26.786  0.0351  0.0116  0.1698
  485BOLB   C4C11636  10.917  17.582  26.506  0.2901  0.2766  0.1075
  485BOLB   C1D11637  11.472  17.994  27.590 -0.1964 -0.1826 -0.1772
  485BOLB   C2D11638  11.748  17.828  27.402  0.0580 -0.3014  0.3751
  485BOLB   C3D11639  11.989  18.022  27.066  0.3666  0.0086 -0.2634
  485BOLB   C4D11640  12.484  18.127  26.886 -0.0459 -0.0223 -0.1924
  486BOLB   NC111641  13.179  15.872  24.434 -0.1711 -0.2969  0.2164
  486BOLB   PO111642  13.069  15.553  24.786  0.0905 -0.2174  0.2560
  486BOLB   GL111643  13.282  15.586  25.220  0.3181  0.1931  0.2926
  486BOLB   GL211644  13.189  15.851  25.440  0.0155  0.2161 -0.1215
  486BOLB   C1A11645  13.403  15.466  25.691  0.1504 -0.0933  0.1170
  486BOLB   C2A11646  13.449  15.246  26.061  0.1349 -0.0702 -0.0235
  486BOLB   C3A11647  13.595  15.033  26.435 -0.0281 -0.2413 -0.1735
  486BOLB   C4A11648  13.617  15.207  26.816 -0.1955 -0.0790 -0.4013
  486BOLB   C1B11649  13.128  15.904  25.806 -0.0099  0.0095  0.0034
  486BOLB   C2B11650  13.271  15.733  26.180 -0.3659  0.0923  0.0001
  486BOLB   C3B11651  13.215  15.484  26.570  0.0691 -0.2560 -0.1160
  486BOLB   C4B11652  12.998  15.383  26.858  0.1611  0.0045 -0.3448
  486BOLB   NC211653  14.346  15.130  29.085  0.3529  0.1999  0.1513
  486BOLB   PO211654  14.644  14.831  29.069 -0.1647  0.0075  0.2270
  486BOLB   GL311655  14.544  14.900  28.672 -0.0599  0.3222 -0.0497
  486BOLB   GL411656  14.717  15.190  28.641  0.3133 -0.3427  0.1366
  486BOLB   C1C11657  14.651  14.876  28.168  0.2175 -0.1235  0.2271
  486BOLB   C2C11658  14.601  14.838  27.710  0.0130  0.0003  0.3931
  486BOLB   C3C11659  14.311  15.110  27.450 -0.1674 -0.2401 -0.0719
  486BOLB   C4C11660  13.971  15.119  27.186  0.3809 -0.1413  0.3847
  486BOLB   C1D11661  14.301  15.255  28.373 -0.0853  0.1320 -0.3374
  486BOLB   C2D11662  14.266  15.180  28.052  0.2961 -0.1703 -0.1334
  486BOLB   C3D11663  14.076  14.812  27.875 -0.3225 -0.0718  0.0694
  486BOLB   C4D11664  14.003  14.668  27.520 -0.0164 -0.0730  0.2473
  487BOLB   NC111665  13.616  12.087  23.875  0.0293 -0.0199 -0.1282
  487BOLB   PO111666  13.206  12.275  23.976 -0.3069 -0.2774  0.0621
  487BOLB   GL111667  12.931  12.015  24.356 -0.1266 -0.0177 -0.0313
  487BOLB   GL211668  12.641  12.128  24.481  0.1114 -0.2415  0.0484
  487BOLB   C1A11669  12.982  11.985  24.802 -0.2944 -0.0224 -0.0273
  487BOLB   C2A11670  12.987  11.779  25.172 -0.2132  0.0561  0.0193
  487BOLB   C3A11671  12.979  11.777  25.602  0.5336  0.1470  0.1290
  487BOLB   C4A11672  12.967  11.619  26.027  0.0411 -0.0141 -0.0580
  487BOLB   C1B11673  12.483  12.242  24.934  0.0564 -0.1027  0.2856
  487BOLB   C2B11674  12.519  12.035  25.291  0.0582  0.3154 -0.2301
  487BOLB   C3B11675  12.277  11.865  25.548  0.1971  0.0583  0.2592
  487BOLB   C4B11676  12.061  11.701  25.922  0.0894  0.1947 -0.0889
  487BOLB   NC211677  13.940  10.641  28.021 -0.0700  0.2946  0.2157
  487BOLB   PO211678  14.221  10.889  27.966 -0.0145 -0.0950 -0.3108
  487BOLB   GL311679  14.137  11.074  27.518 -0.3127  0.0067 -0.1418
  487BOLB   GL411680  14.139  11.471  27.612  0.2608 -0.3978  0.2578
  487BOLB   C1C11681  14.101  11.248  27.157 -0.1047  0.0853 -0.1924
  487BOLB   C2C11682  13.761  11.258  26.793  0.2199  0.1697  0.1137
  487BOLB   C3C11683  13.378  11.152  26.570 -0.0877 -0.3572 -0.0244
  487BOLB   C4C11684  13.089  11.303  26.345  0.2610  0.1762 -0.2292
  487BOLB   C1D11685  14.467  11.664  27.328 -0.1314  0.2538  0.2176
  487BOLB   C2D11686  14.565  12.027  27.451  0.1565  0.0244  0.2876
  487BOLB   C3D11687  14.571  12.310  27.254 -0.1750  0.0617 -0.0880
  487BOLB   C4D11688  14.191  12.506  26.950 -0.0994  0.0309  0.2796
  488BOLB   NC111689  21.299  23.999  20.550  0.1066 -0.2390 -0.1758
  488BOLB   PO111690  21.181  24.357  20.260  0.0042  0.0396  0.0829
  488BOLB   GL111691  21.334  24.711  20.352 -0.3238 -0.2310  0.0949
  488BOLB   GL211692  21.650  24.825  20.356  0.1482  0.1930  0.1644
  488BOLB   C1A11693  21.273  24.960  20.752  0.0100  0.3252  0.1110
  488BOLB   C2A11694  21.423  25.434  20.689  0.0020 -0.1744 -0.2587
  488BOLB   C3A11695  21.098  25.690  20.835  0.1650 -0.0043 -0.0135
  488BOLB   C4A11696  20.858  25.982  21.065 -0.0140  0.0146 -0.0117
  488BOLB   C1B11697  21.723  25.056  20.564  0.1580 -0.3141 -0.0152
  488BOLB   C2B11698  21.949  25.356  20.994 -0.0983 -0.0594 -0.1278
  488BOLB   C3B11699  22.285  25.463  21.285  0.2433 -0.3126  0.2622
  488BOLB   C4B11700  22.597  25.678  21.253  0.3737  0.2504 -0.3299
  488BOLB   NC211701  20.611  28.223  20.812 -0.0542  0.0276 -0.1280
  488BOLB   PO211702  20.659  28.278  21.185 -0.2311 -0.0054  0.2865
  488BOLB   GL311703  20.447  27.884  21.260 -0.0534  0.4256  0.0220
  488BOLB   GL411704  20.358  27.654  21.532 -0.1518  0.0134  0.0373
  488BOLB   C1C11705  20.155  27.537  21.062 -0.2639 -0.1308 -0.0118
  488BOLB   C2C11706  20.123  27.018  21.002 -0.0188 -0.0169  0.1715
  488BOLB   C3C11707  20.427  26.699  21.125  0.4291  0.3929  0.1366
  488BOLB   C4C11708  20.709  26.292  21.299  0.1017 -0.0343  0.0266
  488BOLB   C1D11709  20.298  27.202  21.494  0.3921 -0.2426  0.0019
  488BOLB   C2D11710  20.146  26.780  21.516  0.0628 -0.0825  0.0972
  488BOLB   C3D11711  20.112  26.328  21.281  0.0862  0.1414  0.2333
  488BOLB   C4D11712  20.303  25.940  21.222 -0.0577 -0.1224 -0.1400
  489BOLB   NC111713  13.106  16.711  24.578  0.1984  0.3779 -0.3717
  489BOLB   PO111714  13.070  16.333  24.783  0.0879 -0.0768 -0.0122
  489BOLB   GL111715  13.018  16.683  25.102 -0.2814  0.1456 -0.0425
  489BOLB   GL211716  12.858  16.913  25.048 -0.0051  0.1191 -0.1455
  489BOLB   C1A11717  13.176  16.790  25.468 -0.4588 -0.2652 -0.1749
  489BOLB   C2A11718  13.093  17.025  25.926  0.1981  0.0493  0.0468
  489BOLB   C3A11719  13.128  17.175  26.323  0.0204 -0.0458 -0.1842
  489BOLB   C4A11720  13.029  17.241  26.741  0.1258  0.2246  0.1666
  489BOLB   C1B11721  13.013  17.291  25.387 -0.2028 -0.1554  0.1905
  489BOLB   C2B11722  12.806  17.577  25.712  0.2461 -0.0066  0.1226
  489BOLB   C3B11723  12.760  17.928  25.957 -0.1406  0.2232  0.1568
  489BOLB   C4B11724  12.789  18.236  26.394 -0.0817  0.3389  0.4115
  489BOLB   NC211725  12.156  17.358  29.242  0.0079  0.1557  0.0666
  489BOLB   PO211726  11.995  17.568  28.779 -0.1014  0.0318 -0.2760
  489BOLB   GL311727  11.998  17.605  28.345  0.1015 -0.0185  0.0481
  489BOLB   GL411728  11.724  17.659  28.182 -0.0101  0.0397  0.1994
  489BOLB   C1C11729  12.336  17.510  28.040  0.1370  0.2817 -0.1497
  489BOLB   C2C11730  12.545  17.392  27.680 -0.1361  0.0192  0.0476
  489BOLB   C3C11731  13.002  17.344  27.542  0.0529  0.3654 -0.0673
  489BOLB   C4C11732  13.146  17.250  27.161  0.0643 -0.1730 -0.2689
  489BOLB   C1D11733  11.452  17.450  27.821  0.0057 -0.1457 -0.0332
  489BOLB   C2D11734  11.211  17.322  27.575 -0.1161  0.0272 -0.2095
  489BOLB   C3D11735  10.932  16.905  27.413  0.0764 -0.1532  0.1918
  489BOLB   C4D11736  10.670  16.682  27.645  0.0870 -0.1150 -0.0992
  490BOLB   NC111737  17.746  16.688  24.709  0.1798  0.1274 -0.1657
  490BOLB   PO111738  18.065  16.946  24.523 -0.3246  0.0205 -0.0293
  490BOLB   GL111739  17.934  17.143  24.935  0.0659 -0.0909 -0.0608
  490BOLB   GL211740  17.759  17.036  25.232 -0.3822  0.0030 -0.3818
  490BOLB   C1A11741  18.171  17.426  25.156  0.2230  0.4057  0.2158
  490BOLB   C2A11742  18.245  17.714  25.442  0.1038  0.0810 -0.3197
  490BOLB   C3A11743  18.131  17.874  25.763 -0.0243  0.1308  0.3905
  490BOLB   C4A11744  17.756  17.713  26.016  0.1536  0.0639 -0.0439
  490BOLB   C1B11745  17.814  16.981  25.677 -0.0350  0.0251  0.1396
  490BOLB   C2B11746  17.691  17.144  26.017 -0.0765  0.1494  0.3964
  490BOLB   C3B11747  17.927  17.218  26.392 -0.1613  0.0857  0.0568
  490BOLB   C4B11748  18.224  17.288  26.603 -0.2951 -0.1657 -0.2336
  490BOLB   NC211749  18.603  17.688  28.636  0.0620 -0.3231 -0.2993
  490BOLB   PO211750  18.293  17.958  28.419  0.0647 -0.1126 -0.2176
  490BOLB   GL311751  18.390  17.972  27.966  0.0458  0.1248  0.1540
  490BOLB   GL411752  18.364  18.245  27.794 -0.2324 -0.0443 -0.0904
  490BOLB   C1C11753  18.291  17.841  27.588  0.1457  0.3907 -0.1242
  490BOLB   C2C11754  18.145  17.782  27.221 -0.1771 -0.0258 -0.1671
  490BOLB   C3C11755  17.960  17.736  26.829 -0.2357  0.1209 -0.2017
  490BOLB   C4C11756  17.761  17.635  26.438  0.0498 -0.1698 -0.2155
  490BOLB   C1D11757  18.130  18.322  27.439 -0.2204  0.1314 -0.0771
  490BOLB   C2D11758  18.300  18.707  27.101 -0.2396  0.0600 -0.0287
  490BOLB   C3D11759  18.710  18.920  26.954  0.1749 -0.3314  0.1147
  490BOLB   C4D11760  18.849  19.363  27.033  0.0132  0.1809  0.0690
  491BOLB   NC111761  21.002  23.026  21.415 -0.0368  0.0135 -0.2004
  491BOLB   PO111762  21.029  22.570  21.556 -0.1028  0.1028  0.0636
  491BOLB   GL111763  21.267  22.425  21.986  0.0514 -0.0681  0.0399
  491BOLB   GL211764  21.046  22.659  22.130  0.2887 -0.2899 -0.0169
  491BOLB   C1A11765  21.423  22.459  22.394 -0.1961 -0.1165 -0.1830
  491BOLB   C2A11766  21.467  22.384  22.850 -0.0663  0.1960  0.0674
  491BOLB   C3A11767  21.826  22.472  23.065  0.4904  0.1840  0.1371
  491BOLB   C4A11768  22.283  22.241  23.206 -0.1883 -0.0101 -0.1492
  491BOLB   C1B11769  21.209  23.014  22.385  0.1094  0.4456 -0.2020
  491BOLB   C2B11770  21.250  23.524  22.520 -0.1404  0.4105  0.2762
  491BOLB   C3B11771  21.152  23.695  22.828 -0.1824  0.1835  0.1141
  491BOLB   C4B11772  21.173  23.730  23.317 -0.5608 -0.0929 -0.1433
  491BOLB   NC211773  23.272  23.089  25.513 -0.2244  0.1244 -0.0899
  491BOLB   PO211774  23.284  23.332  25.211  0.0749  0.1906  0.2832
  491BOLB   GL311775  23.289  23.226  24.726 -0.1298 -0.1270  0.1848
  491BOLB   GL411776  23.487  23.213  24.431  0.0909 -0.0967  0.0027
  491BOLB   C1C11777  23.017  22.993  24.458  0.0702 -0.0003  0.2001
  491BOLB   C2C11778  22.719  22.885  24.176  0.3393 -0.0394  0.1238
  491BOLB   C3C11779  22.569  22.471  23.941 -0.1354 -0.0220  0.0258
  491BOLB   C4C11780  22.480  22.390  23.512  0.1415 -0.0172 -0.0547
  491BOLB   C1D11781  23.411  23.084  24.061 -0.1397 -0.2032  0.2966
  491BOLB   C2D11782  23.142  22.808  23.887 -0.3623 -0.3067 -0.0964
  491BOLB   C3D11783  22.934  22.771  23.431 -0.1880  0.1870 -0.1409
  491BOLB   C4D11784  22.840  22.746  22.984 -0.1226  0.3194  0.0004
  492BOLB   NC111785  17.428  18.542  24.329  0.0637 -0.3627  0.2173
  492BOLB   PO111786  16.985  18.481  24.275  0.2399  0.1641  0.0838
  492BOLB   GL111787  17.088  18.452  24.755  0.3087  0.1089 -0.2558
  492BOLB   GL211788  17.404  18.386  24.811 -0.0602  0.3649 -0.1839
  492BOLB   C1A11789  17.076  18.745  25.103  0.2460  0.1807 -0.3748
  492BOLB   C2A11790  17.093  18.955  25.384  0.2163 -0.0346 -0.0057
  492BOLB   C3A11791  17.101  19.065  25.721  0.0400  0.0366 -0.1062
  492BOLB   C4A11792  17.201  19.199  26.042 -0.2111 -0.1189  0.2628
  492BOLB   C1B11793  17.654  18.660  25.054 -0.2414  0.0239  0.1904
  492BOLB   C2B11794  17.613  18.816  25.462  0.0568  0.1911 -0.0199
  492BOLB   C3B11795  17.633  18.981  25.859 -0.3148 -0.0570  0.1631
  492BOLB   C4B11796  17.643  18.869  26.253 -0.2896  0.1335  0.0084
  492BOLB   NC211797  18.006  19.758  28.133 -0.1698 -0.0944  0.3313
  492BOLB   PO211798  17.567  19.682  28.217  0.0783 -0.1479  0.0598
  492BOLB   GL311799  17.466  19.795  27.839 -0.0956 -0.0755 -0.2005
  492BOLB   GL411800  17.794  19.822  27.671 -0.0063  0.0607  0.1908
  492BOLB   C1C11801  17.413  19.712  27.455 -0.0735 -0.0155  0.0506
  492BOLB   C2C11802  17.364  19.801  27.043 -0.0958  0.2714  0.1541
  492BOLB   C3C11803  17.604  19.819  26.657 -0.1590  0.3632 -0.0081
  492BOLB   C4C11804  17.371  19.426  26.435  0.0141 -0.2840 -0.1516
  492BOLB   C1D11805  17.726  19.302  27.544 -0.0787 -0.3766  0.2955
  492BOLB   C2D11806  17.487  18.945  27.430 -0.0040 -0.1268  0.1786
  492BOLB   C3D11807  17.092  18.809  27.337 -0.1511  0.0588  0.1161
  492BOLB   C4D11808  16.773  18.583  27.494  0.1270  0.2042 -0.1059
  493BOLB   NC111809   8.792  13.308  23.156 -0.0593 -0.3089  0.0718
  493BOLB   PO111810   9.118  12.921  23.209 -0.3438 -0.2948  0.2421
  493BOLB   GL111811   8.909  12.993  23.655  0.0260  0.1122  0.0400
  493BOLB   GL211812   8.643  12.865  23.633 -0.0700  0.0024  0.0907
  493BOLB   C1A11813   8.880  13.238  24.001  0.0873  0.0443 -0.0135
  493BOLB   C2A11814   8.613  13.316  24.351 -0.0889  0.2377  0.2549
  493BOLB   C3A11815   8.328  13.218  24.705  0.2404 -0.2891 -0.2711
  493BOLB   C4A11816   8.000  13.355  24.912  0.3071 -0.0992 -0.2164
  493BOLB   C1B11817   8.364  13.105  23.909  0.0910  0.3771  0.0127
  493BOLB   C2B11818   8.197  12.946  24.290 -0.0174 -0.3298  0.1619
  493BOLB   C3B11819   8.046  12.852  24.690 -0.0607  0.0412  0.0511
  493BOLB   C4B11820   7.536  12.979  24.763  0.0296  0.3965  0.0694
  493BOLB   NC211821   7.003  14.246  27.088  0.2298 -0.3372 -0.1368
  493BOLB   PO211822   7.490  14.192  27.193 -0.0239 -0.1078 -0.1402
  493BOLB   GL311823   7.342  14.277  26.726  0.1551  0.3119 -0.1517
  493BOLB   GL411824   7.395  14.557  26.562  0.2227  0.0958  0.0130
  493BOLB   C1C11825   7.550  14.064  26.421 -0.1899  0.0488 -0.1659
  493BOLB   C2C11826   7.605  13.883  25.974 -0.2257 -0.1068 -0.1846
  493BOLB   C3C11827   7.848  13.718  25.734  0.2265 -0.0874  0.1335
  493BOLB   C4C11828   7.904  13.468  25.330 -0.2385 -0.1213  0.0570
  493BOLB   C1D11829   7.759  14.635  26.239  0.0820 -0.1175 -0.0586
  493BOLB   C2D11830   7.898  14.697  25.873  0.4602 -0.3552 -0.1994
  493BOLB   C3D11831   7.947  15.040  25.590 -0.0877 -0.3406  0.0323
  493BOLB   C4D11832   7.641  15.302  25.448 -0.0705 -0.3992  0.3346
  494BOLB   NC111833  17.439  24.306  21.137  0.0406  0.1100  0.1338
  494BOLB   PO111834  17.617  24.485  20.779  0.4964  0.3593  0.0005
  494BOLB   GL111835  17.836  24.590  21.050 -0.4562 -0.2628 -0.1988
  494BOLB   GL211836  17.683  24.637  21.417  0.3285  0.3461  0.1957
  494BOLB   C1A11837  17.880  25.013  21.194 -0.2146  0.1382 -0.2943
  494BOLB   C2A11838  17.920  25.377  21.397 -0.1164 -0.0695 -0.3074
  494BOLB   C3A11839  17.951  25.791  21.579  0.2116  0.0105  0.3815
  494BOLB   C4A11840  18.117  26.020  21.824 -0.0807 -0.0989 -0.0602
  494BOLB   C1B11841  17.637  24.993  21.620  0.0174  0.0896 -0.0574
  494BOLB   C2B11842  17.744  25.256  21.952 -0.2117 -0.2414  0.1587
  494BOLB   C3B11843  17.875  25.258  22.462 -0.0580 -0.0334  0.0303
  494BOLB   C4B11844  18.067  25.598  22.726  0.0737 -0.1097 -0.0260
  494BOLB   NC211845  19.493  27.700  22.406 -0.1356 -0.1526 -0.1875
  494BOLB   PO211846  19.824  27.418  22.639  0.0753  0.0005 -0.0074
  494BOLB   GL311847  19.626  27.193  22.428  0.3375 -0.0628  0.2637
  494BOLB   GL411848  19.388  27.320  22.139 -0.0396  0.0967  0.0725
  494BOLB   C1C11849  19.456  26.843  22.252 -0.1558 -0.2831  0.0966
  494BOLB   C2C11850  19.170  26.627  21.978  0.2745  0.1186  0.2262
  494BOLB   C3C11851  18.854  26.342  21.903  0.0259 -0.0175 -0.0310
  494BOLB   C4C11852  18.439  26.299  21.895  0.0504 -0.2426 -0.0744
  494BOLB   C1D11853  19.304  27.289  21.752 -0.0034  0.1277 -0.1667
  494BOLB   C2D11854  19.282  27.217  21.241  0.1499 -0.1172 -0.0794
  494BOLB   C3D11855  19.144  26.854  21.047 -0.2436  0.0249 -0.1877
  494BOLB   C4D11856  18.822  26.469  20.927 -0.1099  0.1585  0.1161
  495BOLB   NC111857   8.720  13.571  22.665 -0.0152 -0.0400  0.0913
  495BOLB   PO111858   8.546  13.694  23.018  0.3382 -0.0798 -0.1626
  495BOLB   GL111859   8.375  13.761  23.382  0.0870 -0.0606 -0.0391
  495BOLB   GL211860   8.658  13.684  23.575 -0.1511 -0.1214  0.0958
  495BOLB   C1A11861   8.341  14.116  23.693  0.2071  0.2542 -0.2144
  495BOLB   C2A11862   8.364  14.266  24.184  0.0361  0.1739 -0.0052
  495BOLB   C3A11863   8.134  14.250  24.648  0.0375  0.1651  0.0884
  495BOLB   C4A11864   8.050  14.285  24.989 -0.3151 -0.1990  0.0048
  495BOLB   C1B11865   8.612  13.725  24.066  0.0462 -0.0636 -0.1600
  495BOLB   C2B11866   8.354  13.776  24.492  0.1502  0.1584  0.1485
  495BOLB   C3B11867   8.257  13.776  24.901  0.1050 -0.1741  0.0892
  495BOLB   C4B11868   8.337  13.887  25.369 -0.0993  0.1299  0.2436
  495BOLB   NC211869   7.792  14.619  27.304  0.0201  0.1523 -0.1271
  495BOLB   PO211870   8.194  14.836  27.484 -0.1391  0.2453  0.0661
  495BOLB   GL311871   8.143  14.656  27.008 -0.1606  0.0372 -0.4169
  495BOLB   GL411872   8.410  14.781  26.993  0.3059 -0.4049 -0.0784
  495BOLB   C1C11873   7.997  14.385  26.772 -0.4677  0.0726 -0.2391
  495BOLB   C2C11874   8.059  14.200  26.352 -0.0042 -0.1028 -0.2878
  495BOLB   C3C11875   8.061  14.209  25.899 -0.1206  0.1014  0.3126
  495BOLB   C4C11876   8.203  14.444  25.449  0.1565  0.0156  0.3460
  495BOLB   C1D11877   8.664  15.096  26.903  0.1563 -0.1902  0.0519
  495BOLB   C2D11878   8.753  15.479  26.673 -0.2922  0.2743  0.0239
  495BOLB   C3D11879   8.666  15.614  26.176  0.0458  0.1378 -0.0147
  495BOLB   C4D11880   8.853  15.943  25.888  0.2507 -0.2734 -0.2262
  496BOLB   NC111881  23.225  11.963  19.354 -0.1319 -0.2580  0.2063
  496BOLB   PO111882  23.614  11.620  19.406  0.0195 -0.1952  0.0921
  496BOLB   GL111883  23.885  11.262  19.527  0.0822  0.1699 -0.0153
  496BOLB   GL211884  24.144  11.100  19.235 -0.3349  0.1025  0.0006
  496BOLB   C1A11885  24.150  11.169  19.830 -0.0598 -0.5132  0.2581
  496BOLB   C2A11886  24.177  10.900  20.222 -0.0370  0.2477 -0.1075
  496BOLB   C3A11887  24.161  10.605  20.464 -0.2961  0.0590  0.0446
  496BOLB   C4A11888  24.155  10.130  20.627  0.1035 -0.0264 -0.0709
  496BOLB   C1B11889  24.192  10.650  19.171  0.0123 -0.1296  0.0860
  496BOLB   C2B11890  24.365  10.198  19.273  0.0365 -0.1603 -0.1931
  496BOLB   C3B11891  24.732  10.017  19.283 -0.0442 -0.2772  0.2278
  496BOLB   C4B11892  25.075  10.030  19.066  0.0497  0.2527  0.1423
  496BOLB   NC211893  23.699   7.448  21.867 -0.0811 -0.4604  0.1252
  496BOLB   PO211894  23.545   7.922  21.907 -0.1541  0.1498 -0.1519
  496BOLB   GL311895  23.430   8.296  21.701 -0.0244 -0.1286  0.0439
  496BOLB   GL411896  23.176   8.255  21.957 -0.1977 -0.2667  0.0590
  496BOLB   C1C11897  23.503   8.547  21.371  0.1065  0.2717 -0.1627
  496BOLB   C2C11898  23.886   8.867  21.235 -0.1011  0.0400  0.2053
  496BOLB   C3C11899  24.046   9.260  20.907  0.2136  0.3124 -0.2039
  496BOLB   C4C11900  24.048   9.740  20.800  0.2859  0.0925  0.2379
  496BOLB   C1D11901  22.909   8.456  21.479 -0.3769 -0.0980  0.0357
  496BOLB   C2D11902  22.878   8.605  21.044 -0.3882 -0.1197  0.2073
  496BOLB   C3D11903  22.740   8.340  20.708  0.0100  0.2546 -0.3127
  496BOLB   C4D11904  22.616   7.907  20.751 -0.0243  0.0827 -0.1446
  497BOLB   NC111905  19.743  20.453  22.660  0.0812  0.1276  0.3698
  497BOLB   PO111906  20.134  20.604  22.777 -0.1509  0.1893 -0.2920
  497BOLB   GL111907  20.381  20.884  23.100 -0.0018 -0.2181 -0.0002
  497BOLB   GL211908  20.225  20.737  23.414  0.2171  0.0759  0.2135
  497BOLB   C1A11909  20.544  21.160  23.351  0.1172 -0.4461  0.1241
  497BOLB   C2A11910  20.513  21.350  23.734  0.0415  0.0391 -0.1451
  497BOLB   C3A11911  20.428  21.691  24.012 -0.0183 -0.0084 -0.1436
  497BOLB   C4A11912  20.520  21.719  24.452 -0.0160 -0.0224 -0.1739
  497BOLB   C1B11913  20.218  20.851  23.795 -0.0414  0.2552  0.4801
  497BOLB   C2B11914  20.173  21.084  24.072  0.2369  0.1353 -0.0395
  497BOLB   C3B11915  20.220  21.327  24.448  0.1755  0.1440  0.0724
  497BOLB   C4B11916  20.198  21.307  24.804  0.1663  0.0497 -0.1194
  497BOLB   NC211917  22.533  22.443  25.904 -0.0662 -0.1724 -0.0468
  497BOLB   PO211918  22.031  22.328  26.056  0.2077 -0.1179  0.0935
  497BOLB   GL311919  21.579  22.154  26.075  0.0019 -0.0494  0.1616
  497BOLB   GL411920  21.742  21.849  26.117 -0.2427 -0.0713  0.3076
  497BOLB   C1C11921  21.205  22.008  25.845 -0.0092 -0.2572 -0.0590
  497BOLB   C2C11922  20.996  21.897  25.380 -0.0298  0.5911  0.1538
  497BOLB   C3C11923  20.688  21.675  25.098 -0.3316  0.1321 -0.0360
  497BOLB   C4C11924  20.573  21.593  24.757 -0.0111 -0.0521 -0.2782
  497BOLB   C1D11925  21.675  21.669  25.739 -0.3282  0.4199  0.0588
  497BOLB   C2D11926  21.865  21.651  25.338  0.2803  0.1250 -0.0882
  497BOLB   C3D11927  21.896  21.668  24.881 -0.0432 -0.2132  0.1988
  497BOLB   C4D11928  21.962  21.672  24.435 -0.0882 -0.0073  0.0005
  498BOLB   NC111929  19.777  20.711  23.121 -0.0030  0.1322  0.1964
  498BOLB   PO111930  19.757  20.933  22.782 -0.1584 -0.5732 -0.3287
  498BOLB   GL111931  19.586  21.390  22.946 -0.1265  0.0434  0.0392
  498BOLB   GL211932  19.331  21.374  23.001  0.0573  0.2095  0.3057
  498BOLB   C1A11933  19.736  21.638  23.321 -0.0095 -0.1336 -0.0945
  498BOLB   C2A11934  19.659  21.987  23.537 -0.1938 -0.0576 -0.3072
  498BOLB   C3A11935  19.764  22.115  23.942  0.1283  0.1531 -0.2577
  498BOLB   C4A11936  19.942  22.272  24.298 -0.3173  0.3047 -0.0625
  498BOLB   C1B11937  19.203  21.452  23.294  0.3115 -0.6599  0.2544
  498BOLB   C2B11938  19.426  21.531  23.731 -0.2517 -0.1888 -0.1124
  498BOLB   C3B11939  19.484  21.653  24.118  0.0041 -0.1222 -0.2405
  498BOLB   C4B11940  19.553  21.928  24.378  0.0487 -0.1295 -0.0308
  498BOLB   NC211941  20.949  23.766  26.096  0.0774 -0.1397  0.1880
  498BOLB   PO211942  20.569  23.691  25.912  0.1097 -0.2256  0.3692
  498BOLB   GL311943  20.612  23.331  25.746 -0.2465  0.1186 -0.0393
  498BOLB   GL411944  20.874  23.007  25.804  0.6015  0.1351  0.2329
  498BOLB   C1C11945  20.309  23.298  25.339 -0.2533 -0.0872  0.1694
  498BOLB   C2C11946  20.091  23.236  24.888  0.1566  0.0590 -0.0342
  498BOLB   C3C11947  20.022  22.917  24.744 -0.1845  0.0777  0.0945
  498BOLB   C4C11948  20.062  22.423  24.664 -0.3372 -0.1739  0.0562
  498BOLB   C1D11949  21.134  23.187  25.425 -0.3136  0.0272  0.1246
  498BOLB   C2D11950  20.952  23.180  25.097  0.0682  0.2275  0.1383
  498BOLB   C3D11951  20.594  23.053  24.942  0.0813  0.1863 -0.0554
  498BOLB   C4D11952  20.275  22.688  25.099  0.1412  0.2437  0.0857
  499BOLB   NC111953  13.735  14.303  24.721  0.1693 -0.4190  0.0038
  499BOLB   PO111954  13.670  13.859  24.542  0.0205  0.0342 -0.0910
  499BOLB   GL111955  13.424  13.966  24.953 -0.4660  0.1860 -0.0404
  499BOLB   GL211956  13.308  13.761  25.069  0.2987 -0.2459 -0.0718
  499BOLB   C1A11957  13.411  14.304  25.314  0.0022  0.3371  0.2432
  499BOLB   C2A11958  13.453  14.250  25.851 -0.1351  0.0672 -0.0681
  499BOLB   C3A11959  13.486  14.227  26.199 -0.0895  0.0670 -0.0636
  499BOLB   C4A11960  13.657  14.440  26.598 -0.0253 -0.0622 -0.0245
  499BOLB   C1B11961  13.232  13.722  25.434 -0.2516 -0.2297  0.4594
  499BOLB   C2B11962  13.326  13.370  25.725  0.3494  0.2237  0.1652
  499BOLB   C3B11963  13.247  13.306  26.163  0.0833 -0.2830 -0.1767
  499BOLB   C4B11964  13.061  13.358  26.507  0.0435 -0.1351 -0.4211
  499BOLB   NC211965  14.014  14.254  28.875 -0.1869  0.5077  0.1460
  499BOLB   PO211966  14.181  14.611  28.538 -0.2492 -0.2076  0.3216
  499BOLB   GL311967  14.425  14.458  28.165 -0.2347  0.0539  0.2095
  499BOLB   GL411968  14.273  14.090  28.025 -0.0502  0.0772  0.3281
  499BOLB   C1C11969  14.391  14.379  27.637 -0.1070 -0.4740 -0.0690
  499BOLB   C2C11970  14.534  14.487  27.312 -0.1752 -0.0546  0.1851
  499BOLB   C3C11971  14.303  14.758  27.055 -0.3083  0.4285 -0.2313
  499BOLB   C4C11972  13.882  14.774  26.808 -0.1583 -0.0300  0.0173
  499BOLB   C1D11973  13.878  14.346  27.871  0.2471  0.0799  0.1590
  499BOLB   C2D11974  13.533  14.545  27.860 -0.2479 -0.0046 -0.4195
  499BOLB   C3D11975  13.238  14.850  27.918 -0.0614  0.0393 -0.0315
  499BOLB   C4D11976  13.243  15.215  27.768  0.1062  0.0839 -0.0182
  500BOLB   NC111977  15.763  17.940  24.730  0.0261  0.0378 -0.1647
  500BOLB   PO111978  15.465  18.328  24.927  0.0297 -0.0614  0.0688
  500BOLB   GL111979  15.702  18.262  25.195  0.3872  0.0038 -0.3755
  500BOLB   GL211980  15.725  18.527  25.379 -0.1872  0.2375  0.1236
  500BOLB   C1A11981  15.655  17.921  25.517 -0.3174 -0.2349  0.0480
  500BOLB   C2A11982  15.550  17.794  25.962 -0.0254  0.3860  0.2894
  500BOLB   C3A11983  15.598  17.727  26.379  0.1220 -0.0781 -0.1416
  500BOLB   C4A11984  15.536  17.842  26.775  0.0320  0.5693 -0.0462
  500BOLB   C1B11985  15.483  18.330  25.730  0.0572 -0.2741 -0.0594
  500BOLB   C2B11986  15.372  18.323  26.088  0.2975 -0.3338  0.1105
  500BOLB   C3B11987  15.222  18.646  26.342 -0.0081 -0.2129  0.3301
  500BOLB   C4B11988  15.502  18.654  26.712  0.2884 -0.2098  0.5549
  500BOLB   NC211989  16.064  16.893  29.406 -0.0468 -0.0556 -0.1463
  500BOLB   PO211990  16.068  16.562  29.117 -0.2241  0.1724  0.1030
  500BOLB   GL311991  16.071  16.777  28.606  0.0125  0.0047 -0.2449
  500BOLB   GL411992  16.034  16.602  28.440 -0.0495  0.0480  0.1023
  500BOLB   C1C11993  15.888  17.062  28.308 -0.2033 -0.0086  0.0317
  500BOLB   C2C11994  15.740  17.467  28.086  0.2719  0.1081 -0.2947
  500BOLB   C3C11995  15.352  17.645  27.755 -0.3306 -0.4527  0.0586
  500BOLB   C4C11996  15.548  17.846  27.306 -0.1303  0.1515  0.0121
  500BOLB   C1D11997  15.964  16.579  28.015  0.0714  0.0833  0.0373
  500BOLB   C2D11998  15.743  16.321  27.794 -0.3301  0.0952  0.4261
  500BOLB   C3D11999  15.323  16.191  27.701 -0.0001  0.2866 -0.0627
  500BOLB   C4D12000  15.049  15.899  27.604 -0.3729 -0.2228 -0.1885
  501BOLB   NC112001  21.387  12.452  22.400  0.1049  0.1178 -0.1518
  501BOLB   PO112002  20.997  12.458  22.651 -0.3402 -0.2506  0.0438
  501BOLB   GL112003  21.094  12.118  22.950  0.1158 -0.2396  0.2377
  501BOLB   GL212004  20.806  11.979  22.903 -0.0014 -0.2389 -0.1068
  501BOLB   C1A12005  21.156  11.723  23.209 -0.2725  0.1151 -0.0325
  501BOLB   C2A12006  21.374  11.379  23.495 -0.1084  0.2254  0.0967
  501BOLB   C3A12007  21.524  10.963  23.724  0.0219  0.1559  0.3366
  501BOLB   C4A12008  21.648  10.720  23.976 -0.0958  0.1761  0.1773
  501BOLB   C1B12009  20.710  11.960  23.349 -0.1554  0.1502  0.2070
  501BOLB   C2B12010  20.961  11.734  23.699  0.1012  0.0746  0.1740
  501BOLB   C3B12011  21.143  11.593  23.994 -0.3366  0.0912 -0.0785
  501BOLB   C4B12012  21.341  11.347  24.120  0.0728  0.2115  0.3379
  501BOLB   NC212013  23.398  10.389  25.641  0.0621  0.0759 -0.1063
  501BOLB   PO212014  23.196  10.022  25.591  0.0467  0.2334 -0.0991
  501BOLB   GL312015  23.040  10.236  25.295  0.0346  0.1024 -0.0730
  501BOLB   GL412016  23.114  10.577  25.196  0.0970  0.3311  0.0127
  501BOLB   C1C12017  22.639  10.294  25.111 -0.1873  0.1311 -0.2773
  501BOLB   C2C12018  22.277  10.356  24.881  0.1320 -0.1137 -0.3617
  501BOLB   C3C12019  22.027  10.468  24.532 -0.0877 -0.0135  0.0204
  501BOLB   C4C12020  21.757  10.577  24.240  0.0062 -0.0046  0.2120
  501BOLB   C1D12021  22.901  10.797  24.871 -0.1191 -0.1311  0.0746
  501BOLB   C2D12022  22.536  10.745  24.630 -0.0083  0.1124 -0.4162
  501BOLB   C3D12023  22.348  10.646  24.203  0.0583 -0.1757  0.3185
  501BOLB   C4D12024  22.496  10.850  23.818 -0.0624 -0.0072 -0.0062
  502BOLB   NC112025  13.591  15.167  24.971  0.1298 -0.2748 -0.0745
  502BOLB   PO112026  13.859  14.729  24.928  0.0602 -0.1925 -0.0705
  502BOLB   GL112027  13.838  14.683  25.317 -0.0128  0.1752  0.1961
  502BOLB   GL212028  14.125  14.753  25.505 -0.2279  0.2580  0.0335
  502BOLB   C1A12029  13.532  14.711  25.687  0.1165  0.0388 -0.0634
  502BOLB   C2A12030  13.401  14.740  26.099  0.1349 -0.0202  0.0112
  502BOLB   C3A12031  13.011  14.462  26.288  0.0025  0.0211 -0.3488
  502BOLB   C4A12032  12.820  14.121  26.484  0.1100 -0.2139  0.1365
  502BOLB   C1B12033  14.388  14.811  25.885 -0.1061 -0.0927 -0.2328
  502BOLB   C2B12034  14.532  14.485  26.152 -0.2163 -0.2899 -0.0126
  502BOLB   C3B12035  14.604  14.235  26.550  0.1801 -0.0941 -0.3947
  502BOLB   C4B12036  14.799  14.093  26.945 -0.0815  0.2196 -0.0198
  502BOLB   NC212037  12.619  13.602  29.288  0.2414 -0.0087 -0.1794
  502BOLB   PO212038  12.519  13.957  28.984 -0.0356  0.3984 -0.2159
  502BOLB   GL312039  12.311  14.013  28.490 -0.1165 -0.0305  0.0780
  502BOLB   GL412040  12.451  13.674  28.311  0.2525 -0.1163 -0.0931
  502BOLB   C1C12041  12.589  14.293  28.218 -0.0144  0.0978  0.0459
  502BOLB   C2C12042  12.590  14.333  27.766 -0.1962 -0.0439  0.0383
  502BOLB   C3C12043  12.613  14.107  27.325 -0.3421 -0.3513  0.1992
  502BOLB   C4C12044  12.775  14.061  26.903  0.1774 -0.2649  0.0299
  502BOLB   C1D12045  12.578  13.878  27.968  0.0631 -0.3060 -0.2201
  502BOLB   C2D12046  12.949  14.006  27.701 -0.5592 -0.4752  0.0267
  502BOLB   C3D12047  13.173  14.188  27.274  0.1274 -0.2284 -0.4080
  502BOLB   C4D12048  12.927  14.506  26.998  0.0091  0.0564  0.1027
  503BOLB   NC112049  13.754  13.122  24.380  0.3209  0.0981 -0.2630
  503BOLB   PO112050  13.691  12.673  24.440  0.0814 -0.0920  0.1692
  503BOLB   GL112051  14.067  12.585  24.706 -0.3482 -0.1435 -0.1404
  503BOLB   GL212052  14.396  12.684  24.637 -0.2574  0.0049 -0.0408
  503BOLB   C1A12053  13.882  12.468  25.028  0.4734 -0.0834 -0.2065
  503BOLB   C2A12054  13.843  12.280  25.344 -0.1710 -0.0319  0.2158
  503BOLB   C3A12055  13.820  12.278  25.774 -0.0595  0.0141 -0.1191
  503BOLB   C4A12056  13.660  11.973  26.185  0.0123 -0.1814 -0.0924
  503BOLB   C1B12057  14.405  12.507  25.148 -0.2157 -0.3212 -0.1799
  503BOLB   C2B12058  14.394  12.518  25.585 -0.2615 -0.0149 -0.2070
  503BOLB   C3B12059  14.249  12.456  25.974  0.1799 -0.0191  0.0499
  503BOLB   C4B12060  14.000  12.427  26.267  0.0470 -0.0273 -0.2438
  503BOLB   NC212061  12.941  11.724  28.464 -0.0441  0.0670 -0.2286
  503BOLB   PO212062  13.273  11.999  28.452  0.2025 -0.0634  0.2206
  503BOLB   GL312063  13.488  11.902  28.116  0.0886  0.0239  0.2237
  503BOLB   GL412064  13.557  12.138  27.792 -0.0174  0.1503 -0.2136
  503BOLB   C1C12065  13.646  11.648  27.707  0.1257 -0.1956  0.4082
  503BOLB   C2C12066  13.753  11.586  27.250 -0.0324 -0.1516 -0.2749
  503BOLB   C3C12067  13.497  11.676  26.904  0.0705 -0.1141  0.0738
  503BOLB   C4C12068  13.483  11.717  26.476 -0.0785  0.1113  0.0218
  503BOLB   C1D12069  13.590  12.358  27.449  0.0206 -0.1925 -0.0426
  503BOLB   C2D12070  13.569  12.141  27.065  0.1668  0.1769 -0.0465
  503BOLB   C3D12071  13.846  12.074  26.687 -0.0377 -0.1160  0.0761
  503BOLB   C4D12072  14.001  11.640  26.639  0.2041 -0.2762 -0.2459
  504BOLB   NC112073  10.019  18.479  23.192  0.0554  0.0843 -0.0822
  504BOLB   PO112074   9.915  18.342  23.595 -0.1569 -0.1416  0.0420
  504BOLB   GL112075   9.581  18.290  23.930 -0.2376  0.2868 -0.2952
  504BOLB   GL212076   9.391  18.446  23.968  0.0350 -0.4126 -0.1386
  504BOLB   C1A12077   9.747  18.260  24.369  0.1088 -0.0704  0.0865
  504BOLB   C2A12078   9.961  18.025  24.688 -0.0484  0.1305  0.0619
  504BOLB   C3A12079  10.013  17.878  25.154  0.2717 -0.0950  0.2629
  504BOLB   C4A12080  10.054  17.865  25.622 -0.1666 -0.0835 -0.2285
  504BOLB   C1B12081   9.104  18.603  24.383  0.1387  0.1105  0.2305
  504BOLB   C2B12082   8.728  18.756  24.616 -0.2772 -0.2835  0.1209
  504BOLB   C3B12083   8.398  18.954  24.461  0.1279 -0.0657  0.0832
  504BOLB   C4B12084   8.290  19.089  24.104  0.1489 -0.1170  0.4961
  504BOLB   NC212085   9.154  18.820  27.511  0.2906  0.0169 -0.4454
  504BOLB   PO212086   9.136  19.215  27.335 -0.0322 -0.3397  0.0004
  504BOLB   GL312087   9.488  19.135  26.963 -0.2614  0.1798  0.0528
  504BOLB   GL412088   9.636  19.383  26.750  0.0093  0.1073 -0.3886
  504BOLB   C1C12089   9.618  18.794  26.681  0.4566 -0.3427 -0.1787
  504BOLB   C2C12090   9.893  18.775  26.305 -0.0401  0.1908 -0.0753
  504BOLB   C3C12091  10.148  18.526  26.085 -0.2105  0.1022 -0.1970
  504BOLB   C4C12092  10.273  17.995  25.887 -0.2399 -0.3848 -0.0454
  504BOLB   C1D12093   9.686  19.220  26.394 -0.1288 -0.1505 -0.2008
  504BOLB   C2D12094   9.592  19.190  26.026 -0.0037 -0.0098  0.1385
  504BOLB   C3D12095   9.474  19.222  25.619 -0.0754  0.4516 -0.2653
  504BOLB   C4D12096   9.508  19.293  25.232  0.0798 -0.0492 -0.1901
  505BOLB   NC112097  15.610  21.529  23.554 -0.0329 -0.1120  0.3905
  505BOLB   PO112098  15.304  21.157  23.522 -0.0021  0.1037 -0.0492
  505BOLB   GL112099  15.285  21.491  23.924 -0.0571  0.0558 -0.0510
  505BOLB   GL212100  15.549  21.604  24.124 -0.1080 -0.2165  0.4609
  505BOLB   C1A12101  15.188  21.545  24.413  0.4138  0.2289 -0.2292
  505BOLB   C2A12102  15.178  21.914  24.643 -0.2412 -0.5814  0.0055
  505BOLB   C3A12103  15.105  22.302  24.823 -0.2777  0.0644 -0.1030
  505BOLB   C4A12104  15.296  22.696  25.011 -0.0037 -0.4208  0.1475
  505BOLB   C1B12105  15.936  21.830  24.361  0.1589 -0.1278  0.2911
  505BOLB   C2B12106  16.178  21.933  24.637  0.3765 -0.0695  0.1634
  505BOLB   C3B12107  16.053  21.950  24.970  0.1587 -0.1069  0.0861
  505BOLB   C4B12108  16.049  22.155  25.265 -0.2582 -0.0192  0.1757
  505BOLB   NC212109  15.427  22.977  27.946 -0.0590 -0.1104  0.1310
  505BOLB   PO212110  15.330  23.021  27.457 -0.2955  0.3282  0.2856
  505BOLB   GL312111  15.075  23.027  27.011 -0.0933  0.0154  0.0462
  505BOLB   GL412112  14.896  22.773  26.823 -0.2673 -0.0897  0.1726
  505BOLB   C1C12113  15.224  23.112  26.597  0.1766  0.0670  0.5150
  505BOLB   C2C12114  15.104  23.262  26.158 -0.1197 -0.4535  0.0090
  505BOLB   C3C12115  15.314  23.332  25.709  0.0307  0.1999  0.1804
  505BOLB   C4C12116  15.317  23.110  25.231  0.3434 -0.1785 -0.1661
  505BOLB   C1D12117  14.968  22.592  26.414  0.2519 -0.4534 -0.2194
  505BOLB   C2D12118  15.067  22.268  26.186 -0.1670  0.0805  0.1447
  505BOLB   C3D12119  14.957  21.827  26.090 -0.0162  0.2419 -0.1720
  505BOLB   C4D12120  14.616  21.581  26.007 -0.1590 -0.0496 -0.2055
  506BOLB   NC112121  16.639  23.502  21.162 -0.1390  0.1992 -0.0983
  506BOLB   PO112122  16.602  23.662  21.568 -0.1112 -0.0764  0.1588
  506BOLB   GL112123  16.678  23.931  21.870  0.1230 -0.1797  0.0179
  506BOLB   GL212124  16.901  23.783  22.050 -0.1244 -0.0740 -0.3349
  506BOLB   C1A12125  16.460  24.322  22.032 -0.3829  0.0557 -0.0347
  506BOLB   C2A12126  16.278  24.357  22.452  0.0416 -0.2987  0.1611
  506BOLB   C3A12127  16.453  24.410  22.792 -0.1682 -0.1872  0.0458
  506BOLB   C4A12128  16.539  24.568  23.148 -0.0421 -0.1007  0.1214
  506BOLB   C1B12129  16.861  24.121  22.325 -0.0630  0.1684 -0.1332
  506BOLB   C2B12130  16.885  24.287  22.707  0.2913 -0.0846 -0.1548
  506BOLB   C3B12131  17.031  24.465  23.162  0.0449  0.3337 -0.1391
  506BOLB   C4B12132  17.194  24.527  23.557 -0.1045 -0.2071  0.2060
  506BOLB   NC212133  16.792  26.670  24.391  0.2309  0.1802 -0.2614
  506BOLB   PO212134  17.269  26.497  24.358 -0.0601 -0.0797  0.2790
  506BOLB   GL312135  17.146  26.044  24.355 -0.3603  0.4780  0.0708
  506BOLB   GL412136  17.072  25.841  24.522  0.0876  0.1695  0.0174
  506BOLB   C1C12137  17.186  25.620  24.095  0.1122  0.0706 -0.2334
  506BOLB   C2C12138  16.826  25.384  23.960  0.1423  0.3312 -0.2933
  506BOLB   C3C12139  16.743  24.990  23.861 -0.2175  0.4785  0.3207
  506BOLB   C4C12140  16.724  24.708  23.487  0.1558  0.2974 -0.2885
  506BOLB   C1D12141  16.843  25.455  24.465  0.1921  0.0796  0.0157
  506BOLB   C2D12142  16.524  25.188  24.439  0.0624 -0.0971 -0.1857
  506BOLB   C3D12143  16.319  24.954  24.153  0.1666  0.1684 -0.0017
  506BOLB   C4D12144  16.285  24.860  23.759  0.2707 -0.0598 -0.1163
  507BOLB   NC112145  13.941  24.268  20.745  0.1471  0.1246  0.0047
  507BOLB   PO112146  13.592  24.456  20.789  0.0476  0.2839  0.2737
  507BOLB   GL112147  13.729  24.912  20.843 -0.2644  0.0494  0.2289
  507BOLB   GL212148  13.797  25.132  20.588 -0.0880 -0.0812 -0.0682
  507BOLB   C1A12149  13.913  25.241  21.108  0.0659  0.1550 -0.0563
  507BOLB   C2A12150  13.984  25.553  21.416 -0.1834  0.0655 -0.0319
  507BOLB   C3A12151  14.280  25.476  21.816 -0.1375  0.2424  0.2562
  507BOLB   C4A12152  14.381  25.750  22.102  0.1392  0.2918  0.0081
  507BOLB   C1B12153  14.005  25.520  20.717  0.0051  0.1869 -0.2299
  507BOLB   C2B12154  13.952  25.817  21.001  0.1292  0.0181 -0.1678
  507BOLB   C3B12155  13.902  26.217  21.278 -0.0248  0.0645 -0.0590
  507BOLB   C4B12156  13.845  26.387  21.801 -0.1358  0.1011  0.0332
  507BOLB   NC212157  15.103  27.212  23.899 -0.1961 -0.0890  0.0631
  507BOLB   PO212158  14.757  27.440  23.773 -0.0622 -0.2423 -0.1084
  507BOLB   GL312159  14.586  27.129  23.528 -0.1297  0.2204  0.1176
  507BOLB   GL412160  14.885  26.959  23.517  0.1670  0.2873 -0.0436
  507BOLB   C1C12161  14.459  26.819  23.291  0.0542  0.2127  0.3317
  507BOLB   C2C12162  14.428  26.810  22.847 -0.0155 -0.2085  0.2740
  507BOLB   C3C12163  14.430  26.505  22.549  0.1692 -0.1040 -0.0997
  507BOLB   C4C12164  14.315  26.054  22.405  0.0372 -0.1013 -0.0244
  507BOLB   C1D12165  14.998  26.744  23.253 -0.0595  0.0319  0.1019
  507BOLB   C2D12166  15.155  26.384  23.261 -0.1353 -0.1135  0.0309
  507BOLB   C3D12167  15.274  26.045  23.055 -0.1513 -0.2241 -0.1725
  507BOLB   C4D12168  15.117  25.643  22.846  0.2143  0.0732  0.5297
  508BOLB   NC112169  21.413  18.879  23.350  0.1197  0.0716  0.1991
  508BOLB   PO112170  21.196  18.508  23.523 -0.2724 -0.0878 -0.3031
  508BOLB   GL112171  21.334  18.640  23.853  0.0155  0.1875  0.5175
  508BOLB   GL212172  21.497  18.976  23.831  0.0248  0.1071 -0.0485
  508BOLB   C1A12173  21.601  18.726  24.240  0.0099  0.0501  0.0745
  508BOLB   C2A12174  21.570  18.670  24.579  0.0517 -0.1726  0.3886
  508BOLB   C3A12175  21.677  18.541  24.938 -0.1868  0.2054 -0.1766
  508BOLB   C4A12176  21.491  18.685  25.288 -0.0004 -0.0177  0.1656
  508BOLB   C1B12177  21.385  19.169  24.239 -0.1753  0.1393 -0.0403
  508BOLB   C2B12178  21.476  19.312  24.521 -0.0112 -0.1047 -0.1682
  508BOLB   C3B12179  21.639  19.368  24.910  0.2752  0.2065 -0.0832
  508BOLB   C4B12180  21.662  19.317  25.337  0.0865 -0.0132  0.5057
  508BOLB   NC212181  23.519  19.859  26.679 -0.0518  0.0471  0.0440
  508BOLB   PO212182  23.132  20.020  26.768  0.0740 -0.1126  0.3647
  508BOLB   GL312183  22.722  19.681  26.609 -0.1881 -0.0684 -0.3035
  508BOLB   GL412184  22.796  19.337  26.687  0.0185 -0.5261  0.2323
  508BOLB   C1C12185  22.538  19.394  26.237 -0.0219 -0.3668  0.1008
  508BOLB   C2C12186  22.417  19.133  25.987  0.2330 -0.0701  0.2885
  508BOLB   C3C12187  22.130  19.035  25.891 -0.0268 -0.1010  0.2674
  508BOLB   C4C12188  21.746  18.921  25.630 -0.0210 -0.0132  0.2036
  508BOLB   C1D12189  22.629  18.858  26.528 -0.0354  0.2583  0.0732
  508BOLB   C2D12190  22.493  18.392  26.626  0.1063  0.2419  0.1032
  508BOLB   C3D12191  22.324  17.942  26.598  0.0362 -0.0542  0.3946
  508BOLB   C4D12192  22.281  17.504  26.559 -0.2149  0.1194  0.0450
  509BOLB   NC112193  10.471  16.958  23.823  0.2251 -0.1358  0.0607
  509BOLB   PO112194  10.237  17.355  23.778  0.1860  0.1667 -0.1382
  509BOLB   GL112195  10.259  17.202  24.206 -0.0486  0.0331 -0.5421
  509BOLB   GL212196  10.573  17.101  24.311  0.0030  0.0144 -0.1949
  509BOLB   C1A12197  10.175  17.092  24.641 -0.2079  0.1408  0.3676
  509BOLB   C2A12198  10.116  17.066  25.044 -0.1275 -0.0603 -0.0027
  509BOLB   C3A12199  10.241  17.238  25.479 -0.1648  0.3310  0.2010
  509BOLB   C4A12200  10.120  17.130  25.825 -0.3274 -0.2289 -0.0716
  509BOLB   C1B12201  10.753  17.195  24.716 -0.2366  0.0736  0.2121
  509BOLB   C2B12202  10.636  17.152  25.123  0.1571  0.2365 -0.1714
  509BOLB   C3B12203  10.486  16.787  25.217 -0.0865 -0.0632 -0.0625
  509BOLB   C4B12204  10.242  16.656  25.626 -0.1970  0.1614  0.2357
  509BOLB   NC212205   8.180  16.861  27.859  0.0829 -0.1832 -0.0009
  509BOLB   PO212206   8.230  16.916  27.387 -0.2659  0.0482  0.3038
  509BOLB   GL312207   8.451  17.138  26.993 -0.0070  0.1707 -0.0405
  509BOLB   GL412208   8.757  17.359  27.081  0.3578  0.1585 -0.1198
  509BOLB   C1C12209   8.736  16.924  26.775 -0.2622  0.2493  0.2796
  509BOLB   C2C12210   9.022  17.019  26.469 -0.1350 -0.2040 -0.0202
  509BOLB   C3C12211   9.382  17.297  26.232  0.1129  0.0616  0.2057
  509BOLB   C4C12212   9.741  17.257  25.979 -0.1800  0.0348 -0.1368
  509BOLB   C1D12213   8.816  17.493  26.604  0.3290  0.1052  0.3755
  509BOLB   C2D12214   8.927  17.451  26.146  0.0658  0.0895 -0.2213
  509BOLB   C3D12215   9.184  17.282  25.783 -0.0472 -0.0166  0.0017
  509BOLB   C4D12216   9.428  16.989  25.627 -0.2406  0.1450 -0.1370
  510BOLB   NC112217  23.247  19.764  22.092  0.1490 -0.0373 -0.0500
  510BOLB   PO112218  23.119  19.543  22.436 -0.1109 -0.0126 -0.0596
  510BOLB   GL112219  23.434  19.701  22.617 -0.0707  0.0287  0.2637
  510BOLB   GL212220  23.572  19.853  22.500  0.1544 -0.0004  0.1771
  510BOLB   C1A12221  23.719  19.698  22.959 -0.0403  0.0068 -0.0690
  510BOLB   C2A12222  23.829  19.852  23.328  0.0740 -0.2297  0.1359
  510BOLB   C3A12223  23.920  20.047  23.721 -0.0509 -0.2472 -0.1500
  510BOLB   C4A12224  23.850  20.415  24.062  0.0597 -0.0556  0.0976
  510BOLB   C1B12225  23.732  20.165  22.637 -0.0094 -0.0231 -0.0415
  510BOLB   C2B12226  24.031  20.246  22.996  0.1769  0.1771  0.4759
  510BOLB   C3B12227  24.333  20.043  23.307 -0.0887  0.1987 -0.1854
  510BOLB   C4B12228  24.691  19.828  23.185 -0.0566 -0.1741  0.3349
  510BOLB   NC212229  25.071  20.968  25.203  0.0512  0.3818 -0.0415
  510BOLB   PO212230  25.283  21.310  25.011  0.2134  0.2717  0.1174
  510BOLB   GL312231  24.908  21.328  24.721  0.0773  0.0256  0.0074
  510BOLB   GL412232  24.743  21.009  24.837  0.0949  0.1945  0.0523
  510BOLB   C1C12233  24.569  21.368  24.539 -0.3271 -0.2596 -0.1447
  510BOLB   C2C12234  24.280  21.062  24.625  0.1130  0.1180 -0.0551
  510BOLB   C3C12235  23.927  21.132  24.303  0.2550  0.0179  0.0028
  510BOLB   C4C12236  23.751  20.774  24.201  0.3880  0.2109 -0.3667
  510BOLB   C1D12237  24.683  20.874  24.406 -0.0895  0.2543  0.1341
  510BOLB   C2D12238  24.294  20.734  24.151  0.0265  0.2742  0.1671
  510BOLB   C3D12239  24.063  20.861  23.747  0.1716  0.1135  0.1144
  510BOLB   C4D12240  23.887  21.262  23.598  0.2110  0.0919  0.0252
  511BOLB   NC112241  20.249  12.921  22.333  0.0046 -0.0887 -0.4097
  511BOLB   PO112242  20.250  12.832  22.772  0.2121 -0.1117 -0.1411
  511BOLB   GL112243  20.513  12.800  23.197  0.3523  0.1339  0.2429
  511BOLB   GL212244  20.479  12.820  23.534  0.3721 -0.0472  0.1509
  511BOLB   C1A12245  20.860  12.543  23.381 -0.2522 -0.1996 -0.3073
  511BOLB   C2A12246  20.949  12.324  23.787  0.4050 -0.0325 -0.0585
  511BOLB   C3A12247  20.898  12.066  24.137  0.1833  0.0019 -0.0668
  511BOLB   C4A12248  20.962  11.625  24.448 -0.0833 -0.1292  0.1115
  511BOLB   C1B12249  20.467  12.519  23.885 -0.0352  0.0197 -0.2756
  511BOLB   C2B12250  20.316  12.399  24.321  0.1170 -0.1179  0.0008
  511BOLB   C3B12251  20.254  12.227  24.677 -0.0944  0.1023  0.3327
  511BOLB   C4B12252  20.303  12.087  25.222  0.0550  0.1399 -0.2840
  511BOLB   NC212253  20.826  10.426  26.493  0.1394  0.1658 -0.3676
  511BOLB   PO212254  21.076  10.322  26.194  0.1603 -0.1367 -0.1332
  511BOLB   GL312255  21.155  10.611  25.863 -0.0179  0.0751  0.3778
  511BOLB   GL412256  21.066  10.889  26.118 -0.0131 -0.1358 -0.1343
  511BOLB   C1C12257  21.391  10.703  25.577 -0.2746  0.1651  0.0729
  511BOLB   C2C12258  21.552  10.724  25.223 -0.0443 -0.0388 -0.2869
  511BOLB   C3C12259  21.402  11.039  24.981  0.0112  0.0080 -0.2931
  511BOLB   C4C12260  21.201  11.373  24.837 -0.0501 -0.1310 -0.0875
  511BOLB   C1D12261  20.999  11.081  25.746  0.0174  0.3506  0.1095
  511BOLB   C2D12262  20.941  11.157  25.303 -0.0922 -0.0030 -0.2323
  511BOLB   C3D12263  20.735  11.108  24.911 -0.0267  0.2878  0.0057
  511BOLB   C4D12264  20.561  11.372  24.656 -0.0341 -0.2464  0.1474
  512BOLB   NC112265  22.413  20.925  21.494 -0.2493  0.0335  0.3090
  512BOLB   PO112266  22.528  21.237  21.786 -0.0323  0.2361  0.1398
  512BOLB   GL112267  22.773  21.103  22.114 -0.1957 -0.2839 -0.0518
  512BOLB   GL212268  23.040  21.046  22.056  0.0863 -0.0175 -0.3285
  512BOLB   C1A12269  22.690  21.300  22.581 -0.0709  0.0143 -0.1846
  512BOLB   C2A12270  22.837  21.506  22.942 -0.1531 -0.0917  0.3010
  512BOLB   C3A12271  23.129  21.826  23.023 -0.0742 -0.0309 -0.1456
  512BOLB   C4A12272  23.189  21.889  23.515 -0.0665  0.1336 -0.1881
  512BOLB   C1B12273  23.093  21.054  22.425  0.0839 -0.0543  0.0725
  512BOLB   C2B12274  23.139  21.111  22.795 -0.1492 -0.0263 -0.0033
  512BOLB   C3B12275  23.196  21.036  23.313  0.2730 -0.0149 -0.1133
  512BOLB   C4B12276  23.567  20.881  23.602 -0.1803 -0.2022 -0.0506
  512BOLB   NC212277  23.245  21.956  26.506 -0.0196  0.4286  0.0398
  512BOLB   PO212278  23.316  22.224  26.128 -0.2669  0.0056 -0.1802
  512BOLB   GL312279  23.288  22.074  25.771  0.0560 -0.0616 -0.1749
  512BOLB   GL412280  23.475  21.787  25.636 -0.0872 -0.0730  0.1581
  512BOLB   C1C12281  23.191  21.998  25.270 -0.0469  0.0469 -0.0717
  512BOLB   C2C12282  23.263  21.794  24.895 -0.2328 -0.1975  0.0688
  512BOLB   C3C12283  23.278  22.022  24.502 -0.0477 -0.3564  0.1576
  512BOLB   C4C12284  23.247  21.861  23.982  0.1856  0.0598 -0.0907
  512BOLB   C1D12285  23.521  21.494  25.326 -0.4852  0.5155  0.1980
  512BOLB   C2D12286  23.372  21.290  24.957  0.0524  0.3323 -0.2059
  512BOLB   C3D12287  23.722  21.100  24.770 -0.1017 -0.1015 -0.1962
  512BOLB   C4D12288  23.970  20.648  24.635 -0.3818 -0.0562  0.3016
  513BOLB   NC112289  18.763  16.668  24.662  0.2260 -0.3672 -0.1102
  513BOLB   PO112290  18.336  16.415  24.739  0.0898  0.1494 -0.1930
  513BOLB   GL112291  18.151  16.638  25.108  0.1703  0.1796  0.2427
  513BOLB   GL212292  18.162  16.416  25.253 -0.1981  0.0744 -0.1657
  513BOLB   C1A12293  18.252  16.932  25.283 -0.0274  0.0784 -0.0535
  513BOLB   C2A12294  18.478  17.026  25.640  0.0228 -0.1827  0.0883
  513BOLB   C3A12295  18.381  16.866  26.013  0.0251 -0.1135  0.4047
  513BOLB   C4A12296  18.505  16.861  26.483  0.0257 -0.2402  0.2684
  513BOLB   C1B12297  18.199  16.502  25.579  0.0427 -0.0116 -0.1487
  513BOLB   C2B12298  18.263  16.425  25.946  0.1168  0.0681 -0.0819
  513BOLB   C3B12299  18.254  16.350  26.399  0.1628 -0.0449  0.1305
  513BOLB   C4B12300  18.139  16.396  26.822 -0.1312 -0.0407  0.0159
  513BOLB   NC212301  18.803  15.145  28.539  0.1096 -0.2574  0.2596
  513BOLB   PO212302  18.764  15.552  28.389 -0.2355  0.1495 -0.4766
  513BOLB   GL312303  18.490  15.686  27.983  0.0498 -0.3229 -0.0372
  513BOLB   GL412304  18.550  16.013  27.937 -0.0805  0.2185 -0.0205
  513BOLB   C1C12305  18.306  15.960  27.537  0.2700  0.3212 -0.1866
  513BOLB   C2C12306  18.433  16.204  27.265 -0.1288  0.0895  0.5752
  513BOLB   C3C12307  18.484  16.675  27.279  0.0429  0.0532 -0.0908
  513BOLB   C4C12308  18.559  16.894  26.924  0.0116  0.0012  0.4658
  513BOLB   C1D12309  18.754  15.897  27.630 -0.0399  0.1552 -0.2830
  513BOLB   C2D12310  19.224  15.818  27.474 -0.2553 -0.0461 -0.1152
  513BOLB   C3D12311  19.537  15.692  27.180  0.2504 -0.0215  0.3127
  513BOLB   C4D12312  19.656  15.470  26.790  0.1899  0.0117  0.0097
  514BOLB   NC112313  19.850  11.441  21.906 -0.2453  0.0152  0.1341
  514BOLB   PO112314  20.068  11.425  22.232  0.4323 -0.0018  0.0886
  514BOLB   GL112315  20.234  11.420  22.621  0.0304 -0.2991  0.3730
  514BOLB   GL212316  20.385  11.151  22.566 -0.0138 -0.1981  0.0945
  514BOLB   C1A12317  20.315  11.182  23.042 -0.1237 -0.0543 -0.0968
  514BOLB   C2A12318  20.081  11.155  23.395  0.1638 -0.1136  0.0533
  514BOLB   C3A12319  20.041  10.890  23.658  0.0095  0.2536 -0.1751
  514BOLB   C4A12320  20.140  10.820  24.087 -0.3763  0.2085 -0.0972
  514BOLB   C1B12321  20.273  10.754  22.645  0.3220  0.0227  0.2191
  514BOLB   C2B12322  20.401  10.509  22.942 -0.0047 -0.4725 -0.2751
  514BOLB   C3B12323  20.536  10.137  22.991 -0.2665  0.0524 -0.0817
  514BOLB   C4B12324  20.666   9.743  23.184  0.2278 -0.0024  0.2106
  514BOLB   NC212325  20.538   9.924  26.104 -0.2703  0.3392 -0.1228
  514BOLB   PO212326  20.159   9.755  26.227 -0.3144 -0.0528 -0.1318
  514BOLB   GL312327  19.975   9.833  25.833 -0.3362 -0.1347  0.0443
  514BOLB   GL412328  19.874   9.580  25.779 -0.2100  0.1143 -0.3417
  514BOLB   C1C12329  19.930  10.073  25.581  0.0594 -0.1257 -0.1464
  514BOLB   C2C12330  19.784  10.263  25.256  0.1060 -0.2177  0.0756
  514BOLB   C3C12331  19.923  10.368  24.865 -0.0294 -0.1511 -0.0697
  514BOLB   C4C12332  19.930  10.644  24.467  0.0866  0.0608  0.2954
  514BOLB   C1D12333  19.682   9.756  25.314  0.0781  0.1890  0.1537
  514BOLB   C2D12334  19.579   9.931  24.992 -0.1454  0.0918 -0.0548
  514BOLB   C3D12335  19.354  10.008  24.591 -0.1175 -0.0034 -0.2782
  514BOLB   C4D12336  18.976  10.094  24.585 -0.0587  0.0741 -0.0155
  515BOLB   NC112337  17.606  17.132  24.352  0.1384 -0.1053  0.0288
  515BOLB   PO112338  17.413  17.220  24.792  0.0671  0.1233 -0.4165
  515BOLB   GL112339  17.203  17.302  25.158  0.2372  0.1214 -0.1024
  515BOLB   GL212340  16.890  17.253  25.274 -0.0218 -0.3481  0.1186
  515BOLB   C1A12341  17.362  17.270  25.617 -0.1146 -0.2336  0.1591
  515BOLB   C2A12342  17.324  17.500  25.917  0.1131  0.1495 -0.0908
  515BOLB   C3A12343  17.336  17.633  26.236 -0.1332 -0.0837 -0.2905
  515BOLB   C4A12344  16.910  17.523  26.558  0.1087 -0.2619 -0.4205
  515BOLB   C1B12345  16.910  17.192  25.759  0.0565  0.1402 -0.2995
  515BOLB   C2B12346  17.120  17.168  26.171 -0.1752 -0.0209 -0.0049
  515BOLB   C3B12347  17.417  17.245  26.549 -0.2602 -0.0390 -0.2599
  515BOLB   C4B12348  17.377  17.633  26.789  0.2141 -0.2289  0.0163
  515BOLB   NC212349  16.150  17.373  28.881 -0.0782  0.1687  0.1645
  515BOLB   PO212350  16.264  17.748  28.947 -0.3424 -0.0184  0.3959
  515BOLB   GL312351  16.310  17.662  28.507  0.2037  0.1737  0.1889
  515BOLB   GL412352  16.353  17.899  28.301 -0.1284 -0.1218 -0.0860
  515BOLB   C1C12353  16.204  17.532  28.003 -0.0735 -0.0737  0.0080
  515BOLB   C2C12354  16.410  17.665  27.586 -0.0330  0.0781  0.3449
  515BOLB   C3C12355  16.514  17.766  27.218 -0.1236  0.1187 -0.0767
  515BOLB   C4C12356  16.904  17.635  26.977  0.2683 -0.2773 -0.0298
  515BOLB   C1D12357  16.651  17.684  28.049  0.4320 -0.0412  0.5912
  515BOLB   C2D12358  16.583  17.228  27.764 -0.0787  0.1015 -0.2359
  515BOLB   C3D12359  16.568  17.247  27.357  0.1095 -0.1586 -0.0233
  515BOLB   C4D12360  16.155  17.222  27.232  0.0551 -0.1840 -0.3248
  516BOLB   NC112361  17.913  20.203  23.826 -0.5084  0.3239  0.2865
  516BOLB   PO112362  17.830  19.820  23.697  0.0906 -0.1567  0.1062
  516BOLB   GL112363  17.805  19.733  24.101 -0.1792 -0.0514  0.4396
  516BOLB   GL212364  18.039  19.741  24.346 -0.0646  0.0137 -0.3280
  516BOLB   C1A12365  17.626  20.023  24.384 -0.1396  0.0867  0.0879
  516BOLB   C2A12366  17.745  20.309  24.675 -0.0192 -0.2501 -0.2274
  516BOLB   C3A12367  17.752  20.302  25.217 -0.1813 -0.0891 -0.1071
  516BOLB   C4A12368  17.927  20.160  25.561 -0.1027 -0.0583  0.4289
  516BOLB   C1B12369  17.927  19.771  24.769  0.1795  0.0603 -0.0627
  516BOLB   C2B12370  18.077  19.912  25.134 -0.1043  0.1795 -0.0404
  516BOLB   C3B12371  18.437  20.000  25.488  0.1332 -0.1011 -0.0040
  516BOLB   C4B12372  18.537  20.211  25.853 -0.1350 -0.1410 -0.1452
  516BOLB   NC212373  17.428  20.336  28.463  0.3244 -0.0754  0.1247
  516BOLB   PO212374  17.677  20.187  28.038 -0.2163 -0.0160  0.0117
  516BOLB   GL312375  17.482  20.314  27.681 -0.3706 -0.0719 -0.0599
  516BOLB   GL412376  17.554  20.555  27.603  0.3268 -0.1947  0.1677
  516BOLB   C1C12377  17.571  20.226  27.234  0.0001 -0.0120 -0.3035
  516BOLB   C2C12378  17.910  20.337  26.857 -0.0828 -0.1798 -0.3864
  516BOLB   C3C12379  17.993  20.149  26.409 -0.3527  0.0734  0.1591
  516BOLB   C4C12380  18.022  20.214  25.996  0.1681  0.1667  0.1945
  516BOLB   C1D12381  17.217  20.590  27.384 -0.0519  0.2536  0.0134
  516BOLB   C2D12382  16.867  20.593  27.604 -0.0161 -0.0852 -0.1788
  516BOLB   C3D12383  16.429  20.468  27.694  0.0532 -0.0414  0.1112
  516BOLB   C4D12384  16.017  20.621  27.649  0.1861 -0.0528 -0.1556
  517BOLB   NC112385  17.527  20.996  23.463 -0.1788 -0.2156  0.0326
  517BOLB   PO112386  17.616  20.557  23.609  0.4808  0.0548 -0.6323
  517BOLB   GL112387  17.632  20.838  23.895  0.0438  0.1459 -0.0287
  517BOLB   GL212388  17.927  20.673  24.147 -0.1657  0.0236  0.0827
  517BOLB   C1A12389  17.675  21.130  24.291  0.0448  0.1107 -0.0588
  517BOLB   C2A12390  18.042  21.515  24.404  0.2813 -0.1125 -0.3184
  517BOLB   C3A12391  18.212  21.800  24.590 -0.1744 -0.1486  0.0146
  517BOLB   C4A12392  18.277  21.934  25.065 -0.3547 -0.0244  0.0388
  517BOLB   C1B12393  17.993  20.718  24.526  0.0913 -0.0238 -0.0355
  517BOLB   C2B12394  18.099  20.775  24.851  0.0768  0.0213  0.1827
  517BOLB   C3B12395  18.150  20.980  25.268  0.0115 -0.3518 -0.1962
  517BOLB   C4B12396  18.074  21.205  25.741 -0.1789  0.0948  0.2189
  517BOLB   NC212397  17.902  21.744  27.694 -0.0352 -0.1602 -0.0303
  517BOLB   PO212398  18.031  22.115  27.439  0.0419  0.0686  0.4550
  517BOLB   GL312399  18.200  21.938  27.055  0.2925  0.3886 -0.0161
  517BOLB   GL412400  18.304  21.581  27.052 -0.1506 -0.0734 -0.1346
  517BOLB   C1C12401  18.140  21.808  26.568  0.0620  0.1214  0.1171
  517BOLB   C2C12402  18.392  21.844  26.151 -0.1752 -0.2557 -0.0407
  517BOLB   C3C12403  18.365  21.567  25.793 -0.0083  0.0601  0.1191
  517BOLB   C4C12404  18.205  21.643  25.413  0.2093 -0.0480  0.1694
  517BOLB   C1D12405  18.157  21.174  27.198 -0.1091  0.1758  0.2175
  517BOLB   C2D12406  18.189  20.809  27.025  0.1104  0.0576  0.0607
  517BOLB   C3D12407  18.108  20.619  26.549 -0.0227 -0.0667 -0.2136
  517BOLB   C4D12408  18.379  20.389  26.314  0.1914 -0.1592 -0.2303
  518BOLB   NC112409  12.046  20.191  23.743  0.1690  0.1066  0.3027
  518BOLB   PO112410  11.583  20.184  23.670  0.3213  0.0184 -0.0252
  518BOLB   GL112411  11.660  20.539  23.885  0.0585  0.2680 -0.0010
  518BOLB   GL212412  11.683  20.859  23.871 -0.0074  0.0543  0.2474
  518BOLB   C1A12413  11.494  20.721  24.314 -0.0619  0.1439 -0.0419
  518BOLB   C2A12414  11.600  20.954  24.623  0.1064 -0.1361  0.0172
  518BOLB   C3A12415  11.456  21.126  25.059 -0.1594  0.2537  0.0385
  518BOLB   C4A12416  11.175  21.194  25.356 -0.0211  0.3903 -0.0962
  518BOLB   C1B12417  11.990  21.036  24.206  0.2713  0.1194  0.2086
  518BOLB   C2B12418  11.996  21.274  24.477  0.0392 -0.0318 -0.4333
  518BOLB   C3B12419  12.168  21.618  24.720  0.0542 -0.0027 -0.0413
  518BOLB   C4B12420  12.408  21.760  24.919  0.2837 -0.1051  0.2671
  518BOLB   NC212421  10.752  20.865  27.726  0.2512  0.0841 -0.1334
  518BOLB   PO212422  10.613  20.572  27.410 -0.0551 -0.0254 -0.0805
  518BOLB   GL312423  10.674  20.549  26.932  0.2277 -0.0971  0.0253
  518BOLB   GL412424  10.765  20.897  26.944 -0.2398 -0.3667 -0.0068
  518BOLB   C1C12425  10.810  20.451  26.625 -0.1105  0.2643 -0.0870
  518BOLB   C2C12426  11.008  20.612  26.272 -0.0353  0.0885 -0.2603
  518BOLB   C3C12427  10.981  21.004  26.019 -0.1283 -0.3041  0.1981
  518BOLB   C4C12428  10.901  21.156  25.625 -0.1944  0.3749 -0.1162
  518BOLB   C1D12429  10.690  20.961  26.529  0.0926 -0.1635  0.3238
  518BOLB   C2D12430  10.598  21.226  26.136 -0.1125 -0.1484  0.1037
  518BOLB   C3D12431  10.438  21.253  25.771 -0.1394 -0.0655 -0.1411
  518BOLB   C4D12432  10.223  20.920  25.552 -0.1332 -0.1821  0.0568
  519BOLB   NC112433  14.991  18.309  24.895 -0.2325  0.1456 -0.2442
  519BOLB   PO112434  14.732  18.561  24.706 -0.0586 -0.2384  0.0958
  519BOLB   GL112435  14.810  18.649  25.165 -0.1561  0.2607  0.0202
  519BOLB   GL212436  14.673  18.917  25.260  0.1635 -0.2464  0.1034
  519BOLB   C1A12437  14.934  18.610  25.606  0.6506 -0.0385  0.0139
  519BOLB   C2A12438  15.012  18.940  25.878  0.1414 -0.0502 -0.3298
  519BOLB   C3A12439  15.167  19.134  26.319  0.1486 -0.2870  0.1377
  519BOLB   C4A12440  15.075  19.058  26.653  0.1418  0.4416 -0.1645
  519BOLB   C1B12441  14.409  18.758  25.654 -0.2583 -0.2720 -0.1612
  519BOLB   C2B12442  14.546  18.828  26.047 -0.0453  0.0831  0.1163
  519BOLB   C3B12443  14.684  18.919  26.363  0.4150  0.0026 -0.0086
  519BOLB   C4B12444  14.562  19.215  26.627  0.1781  0.0448  0.1504
  519BOLB   NC212445  13.649  20.749  28.024  0.1120  0.1844 -0.4024
  519BOLB   PO212446  13.842  20.377  28.349 -0.0715 -0.0093  0.4151
  519BOLB   GL312447  13.689  20.199  27.922 -0.2245 -0.2235 -0.2522
  519BOLB   GL412448  13.683  20.427  27.557  0.0035 -0.0749 -0.0134
  519BOLB   C1C12449  13.665  19.930  27.587  0.2642  0.3775 -0.0818
  519BOLB   C2C12450  14.035  19.611  27.336  0.0671  0.2452 -0.0038
  519BOLB   C3C12451  14.311  19.213  27.149 -0.2115 -0.1202  0.1869
  519BOLB   C4C12452  14.845  18.990  26.955  0.1659 -0.0509  0.1856
  519BOLB   C1D12453  13.947  20.588  27.316 -0.0995 -0.0967 -0.0701
  519BOLB   C2D12454  14.336  20.582  27.235  0.0587  0.3958  0.3898
  519BOLB   C3D12455  14.457  20.801  26.964  0.1315 -0.4351 -0.4895
  519BOLB   C4D12456  14.373  20.989  26.623 -0.2035 -0.0407  0.1779
  520BOLB   NC112457  11.182  12.758  23.772 -0.1515  0.0016  0.6453
  520BOLB   PO112458  10.776  12.926  24.057 -0.0458 -0.2332 -0.1793
  520BOLB   GL112459  10.458  13.176  24.196 -0.0628  0.1539 -0.1776
  520BOLB   GL212460  10.174  13.181  24.003 -0.1929  0.0081  0.1833
  520BOLB   C1A12461  10.279  13.192  24.551 -0.1116  0.0285 -0.1591
  520BOLB   C2A12462  10.146  13.262  24.924 -0.0338 -0.0997 -0.0944
  520BOLB   C3A12463   9.858  13.330  25.149  0.1457  0.1325 -0.2874
  520BOLB   C4A12464   9.877  13.140  25.500 -0.3339 -0.1085  0.2649
  520BOLB   C1B12465   9.842  13.030  24.285 -0.1426 -0.3354 -0.0100
  520BOLB   C2B12466   9.738  13.208  24.651 -0.3015 -0.0442  0.0675
  520BOLB   C3B12467   9.639  12.906  25.062 -0.4431  0.1792  0.2358
  520BOLB   C4B12468   9.442  12.893  25.524 -0.2738 -0.2240  0.0746
  520BOLB   NC212469   9.905  12.406  27.939  0.0331 -0.0695  0.0016
  520BOLB   PO212470   9.599  12.707  28.067  0.0885  0.1320  0.0290
  520BOLB   GL312471   9.643  12.716  27.600  0.1406 -0.1600 -0.1618
  520BOLB   GL412472   9.824  13.047  27.476  0.0642  0.2749  0.1751
  520BOLB   C1C12473   9.764  12.617  27.140  0.0580 -0.2217 -0.2123
  520BOLB   C2C12474   9.554  12.540  26.722 -0.0529  0.3153 -0.1347
  520BOLB   C3C12475   9.704  12.677  26.321 -0.0099  0.1892  0.1645
  520BOLB   C4C12476   9.923  12.926  25.942  0.3139 -0.3898  0.0438
  520BOLB   C1D12477  10.110  12.951  27.131 -0.0700  0.1521 -0.2646
  520BOLB   C2D12478  10.069  12.795  26.705 -0.3034  0.0742  0.1119
  520BOLB   C3D12479  10.343  12.511  26.565  0.1272 -0.1394  0.0757
  520BOLB   C4D12480  10.052  12.136  26.724  0.4732 -0.0061  0.1376
  521BOLB   NC112481  20.538  23.296  20.834  0.1696  0.2589  0.2068
  521BOLB   PO112482  20.289  23.687  20.981  0.0691 -0.1891  0.1068
  521BOLB   GL112483  20.311  24.034  21.302  0.1117  0.0476  0.0475
  521BOLB   GL212484  20.288  23.859  21.680  0.1136 -0.1531 -0.1188
  521BOLB   C1A12485  20.484  24.354  21.384  0.3708  0.0449  0.2200
  521BOLB   C2A12486  20.597  24.616  21.594 -0.1010  0.1298 -0.0901
  521BOLB   C3A12487  20.695  24.901  21.947 -0.0983  0.0517 -0.1577
  521BOLB   C4A12488  20.947  25.178  22.112 -0.1630  0.2878 -0.0005
  521BOLB   C1B12489  20.439  24.164  21.972 -0.2227  0.0530  0.1017
  521BOLB   C2B12490  20.513  24.413  22.425  0.4312  0.0498  0.1174
  521BOLB   C3B12491  20.542  24.958  22.507 -0.1704 -0.2472 -0.0860
  521BOLB   C4B12492  20.627  25.465  22.450 -0.4319  0.1229 -0.0229
  521BOLB   NC212493  21.119  27.238  22.805 -0.2619 -0.4063 -0.0274
  521BOLB   PO212494  20.861  27.524  22.690  0.2388  0.0604 -0.1862
  521BOLB   GL312495  20.616  27.123  22.664  0.1280  0.0869  0.0744
  521BOLB   GL412496  20.319  27.060  22.596  0.3165  0.0252  0.1723
  521BOLB   C1C12497  20.680  26.653  22.693  0.2038  0.2363 -0.0334
  521BOLB   C2C12498  20.895  26.335  22.692 -0.0630 -0.0471 -0.1017
  521BOLB   C3C12499  21.043  25.888  22.546  0.1383  0.1396  0.1457
  521BOLB   C4C12500  21.095  25.421  22.486 -0.1251 -0.0684  0.1439
  521BOLB   C1D12501  20.031  26.811  22.402  0.3157  0.2076 -0.0024
  521BOLB   C2D12502  19.676  26.440  22.277  0.0155  0.0475 -0.1072
  521BOLB   C3D12503  19.692  26.026  22.160 -0.0016  0.0615 -0.0669
  521BOLB   C4D12504  19.560  25.728  21.863  0.0936  0.2526 -0.2645
  522BOLB   NC112505  13.316  24.800  21.068  0.1215  0.0667 -0.2588
  522BOLB   PO112506  13.665  24.668  21.301  0.2922  0.0550  0.0731
  522BOLB   GL112507  14.068  24.829  21.535  0.0993 -0.4141  0.0535
  522BOLB   GL212508  14.211  25.117  21.498  0.0333 -0.2747 -0.1222
  522BOLB   C1A12509  14.182  24.907  21.925  0.2420 -0.0215  0.2225
  522BOLB   C2A12510  14.432  25.230  22.194  0.3564  0.2178  0.3865
  522BOLB   C3A12511  14.354  25.526  22.640 -0.0247  0.2915 -0.0374
  522BOLB   C4A12512  14.149  25.521  23.028 -0.3422 -0.0397  0.2003
  522BOLB   C1B12513  13.774  25.277  21.793 -0.2432 -0.0359 -0.0018
  522BOLB   C2B12514  13.894  25.203  22.236 -0.2541 -0.2693 -0.0541
  522BOLB   C3B12515  13.949  25.130  22.701  0.1332  0.0159 -0.0451
  522BOLB   C4B12516  13.652  25.028  22.977  0.2867  0.0494  0.0809
  522BOLB   NC212517  14.548  26.272  25.706 -0.0689 -0.1531  0.0086
  522BOLB   PO212518  14.768  26.270  25.228  0.1681  0.2133  0.2569
  522BOLB   GL312519  14.708  25.882  24.933 -0.1277  0.0710  0.1423
  522BOLB   GL412520  14.950  26.066  24.735 -0.0838 -0.2678  0.1090
  522BOLB   C1C12521  14.638  25.768  24.547  0.0390 -0.0160 -0.1202
  522BOLB   C2C12522  14.425  25.630  24.090 -0.0436 -0.2763  0.3315
  522BOLB   C3C12523  14.182  25.705  23.726  0.2218  0.3361  0.1635
  522BOLB   C4C12524  14.029  25.689  23.431  0.0650  0.0081  0.4590
  522BOLB   C1D12525  15.049  26.058  24.338  0.3853 -0.0543  0.1602
  522BOLB   C2D12526  14.923  25.760  24.075 -0.2525  0.0043 -0.0776
  522BOLB   C3D12527  14.797  25.589  23.699 -0.0608  0.2760  0.1195
  522BOLB   C4D12528  14.765  25.828  23.385  0.1269  0.0107  0.0724
  523BOLB   NC112529  21.000  16.183  23.715 -0.0925  0.1098  0.0296
  523BOLB   PO112530  20.951  16.544  23.434  0.0405  0.2563 -0.1221
  523BOLB   GL112531  20.955  16.663  23.813 -0.1056 -0.2670  0.1589
  523BOLB   GL212532  20.623  16.851  23.925 -0.1327 -0.2144 -0.1825
  523BOLB   C1A12533  21.168  16.843  24.172  0.1514  0.0423  0.1903
  523BOLB   C2A12534  21.204  16.901  24.633  0.0409  0.1066  0.1366
  523BOLB   C3A12535  21.186  17.034  25.072 -0.0101  0.5725  0.1602
  523BOLB   C4A12536  21.166  17.309  25.353  0.2349  0.0383  0.2318
  523BOLB   C1B12537  20.736  17.061  24.306 -0.1728 -0.4097  0.1413
  523BOLB   C2B12538  20.836  17.331  24.670 -0.1156 -0.0954 -0.1425
  523BOLB   C3B12539  20.713  17.299  25.098 -0.1137 -0.0699  0.2596
  523BOLB   C4B12540  20.675  17.037  25.483 -0.2428  0.3904  0.1277
  523BOLB   NC212541  21.803  17.979  27.849  0.0871 -0.3479  0.0870
  523BOLB   PO212542  21.903  17.619  27.741  0.0427 -0.1124 -0.2583
  523BOLB   GL312543  21.927  17.757  27.299 -0.0480 -0.1298 -0.3449
  523BOLB   GL412544  21.606  17.630  27.098  0.3905 -0.2445 -0.1660
  523BOLB   C1C12545  21.967  17.803  26.863  0.2732 -0.0354 -0.1874
  523BOLB   C2C12546  21.891  17.800  26.449 -0.0087  0.0581  0.1082
  523BOLB   C3C12547  21.737  17.706  25.935  0.1744 -0.2432 -0.1510
  523BOLB   C4C12548  21.386  17.471  25.762 -0.2288 -0.1665  0.1317
  523BOLB   C1D12549  21.307  17.680  26.636  0.0444  0.0993  0.0180
  523BOLB   C2D12550  21.384  17.775  26.254 -0.0363 -0.2562 -0.0725
  523BOLB   C3D12551  21.079  18.076  25.993  0.1279  0.0525  0.3154
  523BOLB   C4D12552  20.594  18.135  26.039  0.1664  0.1964  0.0797
  524BOLB   NC112553  11.542  21.828  22.028  0.1847 -0.0725  0.2203
  524BOLB   PO112554  11.489  21.912  22.497  0.3964  0.2448 -0.0897
  524BOLB   GL112555  11.427  22.068  22.930  0.3209  0.4156  0.1508
  524BOLB   GL212556  11.085  22.157  22.991 -0.1738 -0.0352  0.3467
  524BOLB   C1A12557  11.366  22.250  23.427 -0.0881  0.1065 -0.2259
  524BOLB   C2A12558  11.296  22.354  23.846  0.4502  0.1208 -0.0210
  524BOLB   C3A12559  11.415  22.575  24.282  0.0539 -0.1306  0.0486
  524BOLB   C4A12560  11.375  22.781  24.633  0.0734  0.4305  0.1704
  524BOLB   C1B12561  10.924  22.473  23.278 -0.1067 -0.2030 -0.1747
  524BOLB   C2B12562  10.936  22.733  23.576  0.1341 -0.1325  0.1509
  524BOLB   C3B12563  11.002  22.759  24.087  0.3001 -0.3615 -0.1871
  524BOLB   C4B12564  10.940  23.062  24.436 -0.1142  0.0833  0.2486
  524BOLB   NC212565  10.557  23.838  26.263 -0.1356  0.1270 -0.4589
  524BOLB   PO212566  10.790  24.249  26.153 -0.0070 -0.4494  0.0846
  524BOLB   GL312567  11.088  24.018  26.160 -0.1432  0.2048 -0.1281
  524BOLB   GL412568  11.329  24.219  26.154  0.0934 -0.0950 -0.0240
  524BOLB   C1C12569  11.240  23.619  26.038 -0.0316  0.0773  0.2036
  524BOLB   C2C12570  11.282  23.372  25.791 -0.1053  0.2805 -0.3159
  524BOLB   C3C12571  11.364  23.226  25.418  0.1593  0.2027  0.2526
  524BOLB   C4C12572  11.433  23.152  24.973  0.1570  0.2036  0.1959
  524BOLB   C1D12573  11.403  24.226  25.793  0.2086  0.0643  0.0728
  524BOLB   C2D12574  11.393  23.814  25.560 -0.0761  0.0304  0.0853
  524BOLB   C3D12575  11.343  23.615  25.088 -0.0921  0.1996 -0.1298
  524BOLB   C4D12576  11.112  23.403  24.761 -0.0244  0.3290 -0.1615
  525BOLB   NC112577  21.758  21.221  22.249  0.0591  0.2394 -0.0947
  525BOLB   PO112578  21.749  21.655  22.115  0.3295 -0.1434  0.0323
  525BOLB   GL112579  21.882  22.166  22.170  0.2246  0.2689 -0.2770
  525BOLB   GL212580  21.775  22.508  22.033  0.0443  0.2411  0.2109
  525BOLB   C1A12581  22.243  22.194  22.456 -0.0811 -0.1495  0.1022
  525BOLB   C2A12582  22.340  22.452  22.759 -0.1033 -0.1466  0.0956
  525BOLB   C3A12583  22.352  22.745  23.118 -0.1620  0.2488 -0.3125
  525BOLB   C4A12584  22.499  22.918  23.591 -0.0110 -0.1618 -0.1039
  525BOLB   C1B12585  21.626  22.866  22.229  0.1925 -0.0310 -0.0222
  525BOLB   C2B12586  21.592  23.054  22.624  0.0954  0.3741  0.1913
  525BOLB   C3B12587  21.607  22.964  23.075 -0.0473 -0.0151  0.5065
  525BOLB   C4B12588  21.498  22.626  23.396  0.1978  0.0746 -0.1754
  525BOLB   NC212589  23.168  24.453  25.400  0.0822 -0.0300  0.4534
  525BOLB   PO212590  22.790  24.375  25.510  0.1317  0.0424  0.0428
  525BOLB   GL312591  22.850  24.142  25.101 -0.0237 -0.0761 -0.0369
  525BOLB   GL412592  23.018  23.873  25.109 -0.1984  0.1863  0.1475
  525BOLB   C1C12593  22.551  24.062  24.877  0.3490 -0.2806  0.0610
  525BOLB   C2C12594  22.454  23.814  24.522 -0.2243 -0.2689  0.0046
  525BOLB   C3C12595  22.358  23.727  24.140 -0.1718 -0.3419 -0.0806
  525BOLB   C4C12596  22.525  23.356  23.861 -0.6456 -0.2380 -0.3056
  525BOLB   C1D12597  22.774  23.587  24.803  0.0528  0.2654  0.0664
  525BOLB   C2D12598  22.443  23.235  24.747  0.0195  0.1045  0.1288
  525BOLB   C3D12599  22.190  22.864  24.631 -0.0397  0.2002  0.1247
  525BOLB   C4D12600  22.174  22.491  24.775  0.0473 -0.0179 -0.3895
  526BOLB   NC112601  16.242  23.628  21.938 -0.2744 -0.1747  0.0765
  526BOLB   PO112602  16.570  23.426  22.071  0.0547  0.0153  0.2735
  526BOLB   GL112603  16.870  23.451  22.451 -0.1742  0.1197  0.2395
  526BOLB   GL212604  17.215  23.596  22.419  0.2024 -0.1129 -0.0054
  526BOLB   C1A12605  16.871  23.732  22.765  0.0168  0.1754 -0.0284
  526BOLB   C2A12606  17.030  23.917  23.140  0.1874  0.1824 -0.3765
  526BOLB   C3A12607  17.355  24.028  23.414  0.0019  0.1447  0.0281
  526BOLB   C4A12608  17.534  23.899  23.727  0.0190  0.2325  0.2093
  526BOLB   C1B12609  17.296  23.963  22.681 -0.0349 -0.0286 -0.2186
  526BOLB   C2B12610  17.409  24.248  22.974 -0.3432 -0.3021  0.2339
  526BOLB   C3B12611  17.596  24.731  23.106  0.1944 -0.0026  0.1454
  526BOLB   C4B12612  17.611  25.221  23.185 -0.0263 -0.0674  0.1555
  526BOLB   NC212613  17.561  25.256  26.053  0.0206 -0.1865  0.0007
  526BOLB   PO212614  17.394  24.784  25.842  0.2232  0.2335 -0.1780
  526BOLB   GL312615  17.572  24.484  25.466  0.0330 -0.1942  0.2747
  526BOLB   GL412616  17.796  24.566  25.483  0.1085  0.1123  0.1315
  526BOLB   C1C12617  17.471  24.337  25.169 -0.0305 -0.1620 -0.0117
  526BOLB   C2C12618  17.345  24.014  24.810 -0.0001 -0.1188 -0.0763
  526BOLB   C3C12619  17.479  23.629  24.544  0.1363 -0.1063 -0.2254
  526BOLB   C4C12620  17.618  23.838  24.178  0.0815 -0.0913 -0.1708
  526BOLB   C1D12621  17.966  24.275  25.137  0.1738 -0.0936 -0.1436
  526BOLB   C2D12622  18.211  24.116  24.897 -0.0704 -0.0885  0.0437
  526BOLB   C3D12623  18.288  24.030  24.456 -0.0573  0.0874 -0.2061
  526BOLB   C4D12624  18.292  23.843  24.063 -0.1969 -0.1400 -0.0647
  527BOLB   NC112625  23.482  25.649  20.341 -0.0111  0.1584  0.1169
  527BOLB   PO112626  23.282  25.688  19.922  0.0509  0.0373 -0.1463
  527BOLB   GL112627  23.061  25.424  20.264 -0.4916 -0.0589 -0.2604
  527BOLB   GL212628  22.946  25.244  20.047 -0.0602 -0.1135  0.0454
  527BOLB   C1A12629  22.804  25.359  20.610  0.0691 -0.0853  0.3230
  527BOLB   C2A12630  22.389  25.079  20.790  0.4700 -0.2963  0.0640
  527BOLB   C3A12631  22.350  24.993  21.179 -0.0006  0.0735  0.2012
  527BOLB   C4A12632  22.128  25.078  21.544  0.0377 -0.2631  0.0110
  527BOLB   C1B12633  23.001  24.972  20.449 -0.1099  0.0118 -0.2433
  527BOLB   C2B12634  22.820  24.718  20.767  0.0161  0.0752  0.0146
  527BOLB   C3B12635  22.745  24.636  21.202  0.1113  0.1975 -0.2317
  527BOLB   C4B12636  22.610  24.752  21.590 -0.0352 -0.0186  0.1489
  527BOLB   NC212637  21.466  26.835  23.635  0.3806 -0.1011 -0.1890
  527BOLB   PO212638  21.269  26.881  23.104  0.0247  0.1306 -0.1125
  527BOLB   GL312639  21.294  26.606  22.838  0.1694 -0.0086 -0.1398
  527BOLB   GL412640  21.106  26.406  23.138  0.2698 -0.0451  0.2472
  527BOLB   C1C12641  21.468  26.132  22.700  0.0213 -0.0591  0.0717
  527BOLB   C2C12642  21.823  26.043  22.384  0.1232  0.3845  0.1287
  527BOLB   C3C12643  21.856  25.759  21.982  0.0085  0.0733  0.1704
  527BOLB   C4C12644  21.889  25.490  21.669  0.1472  0.0289 -0.0285
  527BOLB   C1D12645  21.272  25.955  23.277 -0.0293 -0.0006 -0.2690
  527BOLB   C2D12646  21.502  25.711  23.072 -0.2110 -0.0306 -0.1180
  527BOLB   C3D12647  21.589  25.666  22.632  0.2327 -0.1199 -0.2261
  527BOLB   C4D12648  21.541  25.406  22.208 -0.2823 -0.1013  0.1608
  528BOLB   NC112649  19.037  21.629  22.316 -0.0065 -0.2189 -0.0986
  528BOLB   PO112650  19.188  21.731  22.689 -0.4853  0.3564 -0.2976
  528BOLB   GL112651  19.031  22.171  22.791  0.1530 -0.1271 -0.2377
  528BOLB   GL212652  18.867  22.288  23.041  0.1816 -0.0956 -0.3306
  528BOLB   C1A12653  19.222  22.637  22.817  0.2982 -0.1341  0.2171
  528BOLB   C2A12654  19.244  22.955  23.116 -0.0772  0.0499  0.2854
  528BOLB   C3A12655  19.407  23.195  23.338 -0.0711  0.2325 -0.2932
  528BOLB   C4A12656  19.699  23.527  23.588 -0.2694 -0.1211  0.1324
  528BOLB   C1B12657  18.926  22.606  23.322 -0.4407 -0.1113 -0.0472
  528BOLB   C2B12658  18.861  22.976  23.552 -0.1981 -0.2272  0.2703
  528BOLB   C3B12659  19.111  23.396  23.784 -0.2608 -0.0793 -0.0691
  528BOLB   C4B12660  19.333  23.820  23.834  0.3636 -0.1290 -0.3611
  528BOLB   NC212661  20.265  25.048  25.254 -0.2212 -0.3004 -0.1168
  528BOLB   PO212662  20.703  24.941  25.342  0.1187 -0.1238 -0.3087
  528BOLB   GL312663  20.531  24.563  25.091 -0.0041  0.3077 -0.2885
  528BOLB   GL412664  20.319  24.516  25.248 -0.0762  0.0362 -0.0857
  528BOLB   C1C12665  20.223  24.471  24.700 -0.0987 -0.1815 -0.1463
  528BOLB   C2C12666  20.029  24.187  24.454  0.2240  0.1670  0.1757
  528BOLB   C3C12667  20.138  24.022  24.161 -0.3427  0.1655 -0.0237
  528BOLB   C4C12668  19.936  23.830  23.822 -0.1788 -0.0228  0.2034
  528BOLB   C1D12669  19.941  24.257  25.077 -0.1322 -0.1509 -0.2695
  528BOLB   C2D12670  19.960  23.873  25.289  0.1135  0.3210  0.5073
  528BOLB   C3D12671  19.760  23.486  25.184 -0.1016  0.0996  0.0199
  528BOLB   C4D12672  19.826  23.056  25.279  0.2137  0.0444 -0.0376
  529BOLB   NC112673  10.110  14.765  23.857 -0.0226  0.2749  0.0953
  529BOLB   PO112674  10.475  14.890  23.919  0.2927 -0.1767  0.0111
  529BOLB   GL112675  10.394  14.960  24.351  0.0439  0.2761  0.0665
  529BOLB   GL212676  10.070  15.015  24.422  0.1055  0.1022 -0.0749
  529BOLB   C1A12677  10.451  14.802  24.861 -0.3875 -0.2208  0.0405
  529BOLB   C2A12678  10.313  14.851  25.238  0.0107  0.0762  0.0433
  529BOLB   C3A12679  10.118  14.918  25.673 -0.0746  0.3798 -0.4122
  529BOLB   C4A12680  10.105  14.821  26.064 -0.0313 -0.0325 -0.1969
  529BOLB   C1B12681   9.966  15.076  24.854  0.1641 -0.2122 -0.2729
  529BOLB   C2B12682   9.979  15.241  25.240 -0.1502  0.1804 -0.1817
  529BOLB   C3B12683   9.844  15.352  25.709 -0.0437  0.1842  0.0667
  529BOLB   C4B12684   9.823  15.629  26.076  0.3842  0.2406 -0.0119
  529BOLB   NC212685   8.666  15.988  27.870  0.1259  0.1673  0.3387
  529BOLB   PO212686   9.010  15.874  27.721  0.0837  0.0394 -0.1182
  529BOLB   GL312687   9.359  15.933  27.525  0.0035 -0.0935  0.0163
  529BOLB   GL412688   9.484  15.564  27.561  0.0980 -0.1597  0.0260
  529BOLB   C1C12689   9.599  15.737  27.082  0.1488  0.0165 -0.3423
  529BOLB   C2C12690   9.681  15.247  27.005 -0.1426  0.1657  0.1432
  529BOLB   C3C12691   9.764  14.842  26.805 -0.0352  0.1082  0.0225
  529BOLB   C4C12692   9.891  14.733  26.393  0.3533 -0.0247  0.1142
  529BOLB   C1D12693   9.965  15.405  27.409  0.2081 -0.2413  0.0534
  529BOLB   C2D12694  10.241  15.301  27.070 -0.1725 -0.0742  0.0257
  529BOLB   C3D12695  10.184  15.310  26.692  0.3210 -0.1381 -0.1084
  529BOLB   C4D12696   9.796  15.241  26.436 -0.1433  0.2700  0.0691
  530BOLB   NC112697  14.877  16.073  24.337 -0.0295  0.2001  0.2328
  530BOLB   PO112698  14.873  16.234  24.727 -0.0279 -0.1417  0.0465
  530BOLB   GL112699  14.849  16.293  25.207 -0.2216  0.0764  0.1235
  530BOLB   GL212700  14.555  16.372  25.254  0.3250  0.1244 -0.0044
  530BOLB   C1A12701  14.902  16.381  25.632 -0.0394 -0.2834  0.0536
  530BOLB   C2A12702  14.967  16.442  25.986 -0.1887 -0.0361  0.0941
  530BOLB   C3A12703  14.837  16.324  26.364 -0.4303  0.2217  0.2336
  530BOLB   C4A12704  14.701  16.041  26.601 -0.2355 -0.0045 -0.2903
  530BOLB   C1B12705  14.413  16.293  25.600  0.0905  0.2388  0.2146
  530BOLB   C2B12706  14.357  16.408  26.059 -0.1337  0.1775  0.0882
  530BOLB   C3B12707  14.359  16.463  26.545 -0.2730 -0.0583 -0.0587
  530BOLB   C4B12708  14.433  16.295  26.930 -0.1275 -0.2994 -0.3028
  530BOLB   NC212709  15.618  16.556  28.831  0.2297  0.1168 -0.2383
  530BOLB   PO212710  15.205  16.718  28.906 -0.0502 -0.1536  0.0482
  530BOLB   GL312711  15.204  16.436  28.481 -0.1161 -0.4207  0.0610
  530BOLB   GL412712  14.808  16.239  28.481  0.0702 -0.1251 -0.0347
  530BOLB   C1C12713  15.003  16.417  28.091  0.3846 -0.2132  0.1590
  530BOLB   C2C12714  14.849  16.384  27.787 -0.0380 -0.0708  0.0079
  530BOLB   C3C12715  14.615  16.170  27.412  0.1456 -0.0350  0.3159
  530BOLB   C4C12716  14.723  15.832  27.090  0.0023 -0.1285 -0.2843
  530BOLB   C1D12717  14.584  16.544  28.284  0.0374 -0.0510 -0.2742
  530BOLB   C2D12718  14.425  16.667  27.810 -0.2183 -0.0915 -0.0294
  530BOLB   C3D12719  14.238  16.516  27.401  0.1958  0.3887  0.0957
  530BOLB   C4D12720  14.017  16.562  27.057 -0.0129  0.1424 -0.0709
  531BOLB   NC112721  19.381  18.014  23.727  0.1656 -0.3463 -0.2536
  531BOLB   PO112722  19.339  17.899  24.089  0.0764  0.3370  0.3227
  531BOLB   GL112723  19.650  17.878  24.508 -0.1349  0.0020  0.3836
  531BOLB   GL212724  19.492  17.666  24.671  0.0458  0.0604  0.1796
  531BOLB   C1A12725  19.929  17.893  24.860 -0.3039  0.2564  0.2112
  531BOLB   C2A12726  20.029  17.977  25.263  0.1181  0.0250 -0.0197
  531BOLB   C3A12727  20.223  18.039  25.719  0.2146 -0.0059  0.0709
  531BOLB   C4A12728  20.165  17.948  26.213 -0.1513 -0.0631  0.1318
  531BOLB   C1B12729  19.683  17.535  25.157  0.0445  0.0992  0.1933
  531BOLB   C2B12730  19.765  17.604  25.522 -0.1717  0.2431 -0.0587
  531BOLB   C3B12731  19.709  17.585  25.987  0.0794  0.2114 -0.0384
  531BOLB   C4B12732  19.603  17.721  26.358  0.3960 -0.3564  0.1280
  531BOLB   NC212733  19.721  18.889  28.635 -0.1248 -0.2926 -0.0443
  531BOLB   PO212734  19.612  18.508  28.388  0.3320 -0.1747 -0.2207
  531BOLB   GL312735  19.509  18.332  27.998  0.0928 -0.1227  0.3691
  531BOLB   GL412736  19.358  18.073  28.016 -0.2956 -0.1180 -0.0116
  531BOLB   C1C12737  19.738  18.218  27.661  0.0750 -0.0106 -0.4280
  531BOLB   C2C12738  19.743  18.089  27.317 -0.0683  0.0072  0.4108
  531BOLB   C3C12739  19.941  17.873  26.886  0.0928  0.1046  0.3245
  531BOLB   C4C12740  20.022  18.125  26.593 -0.0670 -0.0987 -0.0562
  531BOLB   C1D12741  19.219  17.613  27.892 -0.1753 -0.0538 -0.1701
  531BOLB   C2D12742  18.990  17.504  27.538 -0.0888 -0.1548 -0.3759
  531BOLB   C3D12743  18.884  17.784  27.187  0.2371  0.0662  0.1879
  531BOLB   C4D12744  18.853  18.024  26.776 -0.0169 -0.4048  0.0849
  532BOLB   NC112745  18.761  19.672  23.733 -0.1345  0.0075  0.4309
  532BOLB   PO112746  19.118  19.650  23.403  0.1940  0.1132  0.1724
  532BOLB   GL112747  19.262  19.765  23.903 -0.0347  0.1160 -0.0695
  532BOLB   GL212748  19.509  20.054  24.068 -0.1787  0.0939  0.2751
  532BOLB   C1A12749  19.112  20.012  24.379 -0.0740 -0.2595 -0.0335
  532BOLB   C2A12750  19.161  20.006  24.770  0.1726  0.3025  0.0161
  532BOLB   C3A12751  19.435  19.837  25.144 -0.1781  0.0666 -0.1026
  532BOLB   C4A12752  19.509  20.029  25.551  0.0681 -0.0128  0.1182
  532BOLB   C1B12753  19.569  20.299  24.468  0.3331  0.0250 -0.2193
  532BOLB   C2B12754  19.688  20.615  24.734 -0.3212 -0.1508  0.0389
  532BOLB   C3B12755  19.890  20.905  25.042 -0.1352  0.2507  0.0419
  532BOLB   C4B12756  19.979  21.224  25.352  0.1011  0.3686 -0.1326
  532BOLB   NC212757  20.391  21.004  27.444 -0.2623  0.0745 -0.1185
  532BOLB   PO212758  20.410  20.631  27.585 -0.1622 -0.1709 -0.1361
  532BOLB   GL312759  20.561  20.414  27.326 -0.4229 -0.0009  0.0352
  532BOLB   GL412760  20.354  20.131  27.392 -0.3458  0.0710 -0.2226
  532BOLB   C1C12761  20.487  20.515  26.851 -0.1891  0.1549  0.0515
  532BOLB   C2C12762  20.236  20.365  26.567  0.2634 -0.1971  0.1347
  532BOLB   C3C12763  19.871  20.163  26.315 -0.3032 -0.0736 -0.0537
  532BOLB   C4C12764  19.512  20.069  26.014 -0.0765  0.0782  0.0449
  532BOLB   C1D12765  20.113  20.126  27.008  0.0320  0.3065 -0.0023
  532BOLB   C2D12766  19.872  19.828  26.854  0.2342  0.4308  0.0030
  532BOLB   C3D12767  19.675  19.738  26.461  0.0950  0.0945  0.4445
  532BOLB   C4D12768  19.798  19.446  26.156  0.0021  0.1763 -0.1396
  533BOLB   NC112769  11.423  18.492  23.327 -0.1459  0.0003  0.0366
  533BOLB   PO112770  11.420  18.206  23.757 -0.0272  0.0390 -0.0210
  533BOLB   GL112771  11.159  18.172  24.207 -0.2704 -0.1449 -0.1289
  533BOLB   GL212772  11.286  18.476  24.276 -0.2333  0.1652 -0.0177
  533BOLB   C1A12773  10.974  18.116  24.576  0.1657  0.1358  0.3956
  533BOLB   C2A12774  10.972  18.276  25.082 -0.1245 -0.0992 -0.0783
  533BOLB   C3A12775  10.814  18.248  25.648  0.1275  0.0226 -0.2981
  533BOLB   C4A12776  10.654  18.396  26.026  0.0773  0.1345 -0.0618
  533BOLB   C1B12777  11.303  18.504  24.749 -0.0355 -0.0579  0.0958
  533BOLB   C2B12778  11.462  18.469  25.132  0.0628  0.0363 -0.1018
  533BOLB   C3B12779  11.157  18.543  25.500  0.1362  0.2565  0.1290
  533BOLB   C4B12780  11.016  18.701  25.887  0.2132 -0.0935  0.1384
  533BOLB   NC212781  11.562  19.325  28.238 -0.2364 -0.1408 -0.0968
  533BOLB   PO212782  11.316  19.024  28.075  0.2403  0.0168  0.0882
  533BOLB   GL312783  11.408  18.873  27.720  0.0348 -0.1404 -0.0715
  533BOLB   GL412784  11.539  18.565  27.611  0.2816  0.0240 -0.4254
  533BOLB   C1C12785  11.386  19.114  27.332 -0.0715 -0.0826 -0.1855
  533BOLB   C2C12786  11.265  19.061  26.828  0.0761 -0.0018 -0.3851
  533BOLB   C3C12787  10.774  18.852  26.710 -0.1693 -0.1435 -0.3639
  533BOLB   C4C12788  10.647  18.768  26.413 -0.0464  0.1564  0.0045
  533BOLB   C1D12789  11.552  18.383  27.205  0.1536  0.3883  0.1497
  533BOLB   C2D12790  11.586  18.253  26.774  0.1932  0.0469 -0.2231
  533BOLB   C3D12791  11.578  17.877  26.539  0.3150  0.1440  0.2579
  533BOLB   C4D12792  11.465  17.521  26.410 -0.1907 -0.0794  0.0476
  534BOLB   NC112793  12.344  12.008  24.015 -0.0422 -0.0829 -0.1808
  534BOLB   PO112794  12.688  11.866  23.906 -0.0896 -0.0937 -0.1378
  534BOLB   GL112795  12.543  11.650  24.331 -0.0190  0.0854  0.2945
  534BOLB   GL212796  12.896  11.544  24.558 -0.3640  0.3278 -0.0523
  534BOLB   C1A12797  12.513  11.715  24.882 -0.1162  0.1942 -0.1359
  534BOLB   C2A12798  12.568  11.448  25.273  0.2162  0.2502 -0.1381
  534BOLB   C3A12799  12.584  11.481  25.683 -0.0560  0.1769 -0.1901
  534BOLB   C4A12800  12.455  11.457  26.093 -0.1021 -0.1402  0.2988
  534BOLB   C1B12801  13.032  11.356  24.977  0.2186  0.1195 -0.3102
  534BOLB   C2B12802  12.993  11.222  25.412  0.0388 -0.0371 -0.0968
  534BOLB   C3B12803  13.165  11.091  25.835  0.1289  0.0951 -0.0633
  534BOLB   C4B12804  13.183  10.740  26.233  0.3251  0.0812  0.1974
  534BOLB   NC212805  11.121  11.704  28.009 -0.3258 -0.1729 -0.1744
  534BOLB   PO212806  11.339  11.347  27.931  0.2379 -0.3928 -0.1740
  534BOLB   GL312807  11.567  11.432  27.683  0.0845 -0.3587 -0.0016
  534BOLB   GL412808  11.952  11.302  27.497  0.0312  0.0554  0.2208
  534BOLB   C1C12809  11.639  11.688  27.400  0.0796  0.0475  0.0265
  534BOLB   C2C12810  11.850  11.588  27.082  0.1875 -0.0495  0.0329
  534BOLB   C3C12811  12.243  11.601  26.907  0.1408  0.0656 -0.0922
  534BOLB   C4C12812  12.528  11.495  26.532 -0.0563 -0.1330 -0.0398
  534BOLB   C1D12813  12.250  11.673  27.448 -0.1191  0.3125 -0.0391
  534BOLB   C2D12814  12.735  11.606  27.460  0.2090 -0.2136  0.2744
  534BOLB   C3D12815  13.194  11.565  27.281  0.0130  0.1174  0.2683
  534BOLB   C4D12816  13.473  11.190  27.426  0.0457  0.0379 -0.2105
  535BOLB   NC112817  14.872  21.797  23.123  0.0229  0.1150  0.1736
  535BOLB   PO112818  15.213  21.908  23.218 -0.2009  0.0609 -0.0256
  535BOLB   GL112819  15.350  21.960  23.666  0.0834  0.0690  0.3409
  535BOLB   GL212820  15.642  22.045  23.680 -0.0668  0.2744 -0.0041
  535BOLB   C1A12821  15.075  21.933  24.026  0.2367 -0.0011  0.2552
  535BOLB   C2A12822  14.997  22.303  24.274 -0.1267 -0.1447 -0.1228
  535BOLB   C3A12823  14.975  22.709  24.545  0.1616  0.1763 -0.3514
  535BOLB   C4A12824  14.954  23.083  24.841 -0.1097 -0.2571  0.1735
  535BOLB   C1B12825  15.915  22.111  23.911 -0.3322 -0.1681 -0.0275
  535BOLB   C2B12826  16.092  22.296  24.277  0.0087  0.1379 -0.1721
  535BOLB   C3B12827  16.215  22.514  24.722 -0.1613 -0.1007  0.0752
  535BOLB   C4B12828  16.240  22.652  25.211 -0.2197 -0.0348  0.0721
  535BOLB   NC212829  15.221  23.725  26.980 -0.1298 -0.1384 -0.3251
  535BOLB   PO212830  15.641  24.008  26.723  0.2605 -0.0006 -0.2817
  535BOLB   GL312831  15.652  24.085  26.274 -0.0936  0.2265 -0.0605
  535BOLB   GL412832  15.581  24.297  26.037  0.1373 -0.0358 -0.0377
  535BOLB   C1C12833  15.853  23.923  25.907 -0.0297  0.1707  0.2581
  535BOLB   C2C12834  15.635  23.681  25.612  0.6301  0.0019  0.1505
  535BOLB   C3C12835  15.391  23.656  25.226 -0.1342 -0.2678  0.1911
  535BOLB   C4C12836  15.091  23.485  24.990  0.1681 -0.0807  0.0140
  535BOLB   C1D12837  15.332  24.176  25.695 -0.3553 -0.1288  0.1693
  535BOLB   C2D12838  15.155  24.058  25.339  0.1150 -0.0914 -0.2793
  535BOLB   C3D12839  14.797  23.953  24.969 -0.1764 -0.2893  0.0908
  535BOLB   C4D12840  14.563  24.257  24.986  0.4022  0.3150  0.1434
  536BOLB   NC112841  14.774  17.163  24.191  0.1132  0.4366  0.1672
  536BOLB   PO112842  14.975  17.121  24.602  0.0410 -0.1447 -0.2624
  536BOLB   GL112843  14.933  17.151  25.070  0.0603  0.0022 -0.0761
  536BOLB   GL212844  14.621  17.335  25.137 -0.3091  0.0958  0.0148
  536BOLB   C1A12845  15.038  17.432  25.408  0.2584  0.0716 -0.1593
  536BOLB   C2A12846  14.949  17.478  25.846 -0.2059 -0.2767  0.1362
  536BOLB   C3A12847  15.001  17.257  26.224 -0.0065  0.0520  0.2062
  536BOLB   C4A12848  15.284  17.243  26.545  0.2922  0.1209  0.2113
  536BOLB   C1B12849  14.517  17.321  25.504  0.1407  0.2849  0.2278
  536BOLB   C2B12850  14.419  17.304  25.899  0.2133 -0.1072 -0.1253
  536BOLB   C3B12851  14.589  17.466  26.396  0.1552  0.1587  0.0275
  536BOLB   C4B12852  14.676  17.325  26.877 -0.2142 -0.0958 -0.1888
  536BOLB   NC212853  15.215  17.252  28.958  0.2593 -0.1372  0.0735
  536BOLB   PO212854  14.790  17.173  28.942  0.0315  0.1717  0.0978
  536BOLB   GL312855  14.938  17.146  28.533 -0.1822 -0.0069  0.2158
  536BOLB   GL412856  14.949  16.904  28.357  0.3243  0.0939  0.0760
  536BOLB   C1C12857  14.766  17.354  28.204 -0.1392  0.2613  0.1245
  536BOLB   C2C12858  14.831  17.481  27.768 -0.1971 -0.1264 -0.2710
  536BOLB   C3C12859  15.120  17.508  27.332 -0.0112  0.0910  0.0542
  536BOLB   C4C12860  15.273  17.364  26.910 -0.4038 -0.3149  0.0009
  536BOLB   C1D12861  14.859  16.874  27.963  0.0194  0.0625 -0.0027
  536BOLB   C2D12862  14.783  16.927  27.613  0.2822 -0.1921  0.1400
  536BOLB   C3D12863  14.709  16.628  27.256 -0.0585  0.0714 -0.0856
  536BOLB   C4D12864  14.906  16.386  26.892  0.1121 -0.1854 -0.1609
  537BOLB   NC112865  19.874  16.076  23.908  0.1585  0.0493  0.1175
  537BOLB   PO112866  19.709  15.749  24.292 -0.1659  0.0058  0.1798
  537BOLB   GL112867  19.888  15.951  24.750  0.0579  0.1768  0.2591
  537BOLB   GL212868  19.974  16.269  24.680 -0.3774  0.3887 -0.0083
  537BOLB   C1A12869  20.009  16.117  25.156  0.1523 -0.2069 -0.2912
  537BOLB   C2A12870  20.139  16.033  25.663 -0.1347 -0.3692  0.2020
  537BOLB   C3A12871  19.995  15.792  26.094  0.2148  0.3100 -0.0101
  537BOLB   C4A12872  19.962  15.838  26.532 -0.3717  0.6008 -0.0849
  537BOLB   C1B12873  19.851  16.571  25.039  0.2398 -0.2444  0.0671
  537BOLB   C2B12874  19.703  16.705  25.484  0.0313 -0.3607 -0.0064
  537BOLB   C3B12875  19.360  16.697  25.790  0.0867  0.3604 -0.1090
  537BOLB   C4B12876  19.169  16.909  26.096 -0.2610  0.4701 -0.1967
  537BOLB   NC212877  21.458  15.298  28.245 -0.0946  0.0210  0.2591
  537BOLB   PO212878  21.676  15.269  27.823 -0.1219  0.0084 -0.1278
  537BOLB   GL312879  21.497  15.556  27.534  0.1882  0.0688 -0.1153
  537BOLB   GL412880  21.798  15.597  27.270  0.0281  0.0280 -0.0497
  537BOLB   C1C12881  21.159  15.600  27.281  0.0039  0.0071  0.0681
  537BOLB   C2C12882  20.770  15.565  27.022  0.0581 -0.0325 -0.1109
  537BOLB   C3C12883  20.410  15.705  27.055  0.1583  0.0715  0.0673
  537BOLB   C4C12884  20.068  15.750  26.847  0.1641 -0.2552 -0.4417
  537BOLB   C1D12885  21.614  15.532  26.882 -0.1622 -0.2523 -0.0282
  537BOLB   C2D12886  21.500  15.440  26.448  0.2507 -0.2602 -0.5389
  537BOLB   C3D12887  21.276  15.352  26.073  0.1928 -0.0524 -0.1071
  537BOLB   C4D12888  21.016  15.412  25.672  0.2668 -0.1086  0.0294
  538BOLB   NC112889  19.006  18.712  23.796  0.1490  0.0995 -0.3021
  538BOLB   PO112890  19.109  18.406  24.080 -0.0242  0.2384 -0.4854
  538BOLB   GL112891  19.084  18.453  24.421  0.0517  0.1235 -0.0591
  538BOLB   GL212892  18.956  18.704  24.613  0.0367 -0.2472 -0.3130
  538BOLB   C1A12893  19.330  18.415  24.761 -0.1166  0.1823  0.1704
  538BOLB   C2A12894  19.643  18.419  25.064 -0.0836 -0.1513  0.1938
  538BOLB   C3A12895  19.578  18.582  25.419 -0.1596 -0.2069  0.1061
  538BOLB   C4A12896  19.417  18.645  25.802  0.0106 -0.1783  0.0421
  538BOLB   C1B12897  19.185  18.829  25.035  0.0295 -0.0721 -0.0367
  538BOLB   C2B12898  19.214  18.939  25.495 -0.0208  0.0300 -0.0693
  538BOLB   C3B12899  18.991  18.984  25.827 -0.1805 -0.2135 -0.1529
  538BOLB   C4B12900  18.694  19.266  26.073  0.0983 -0.0922 -0.2083
  538BOLB   NC212901  18.435  18.395  28.307 -0.2406  0.0376 -0.0613
  538BOLB   PO212902  18.818  18.615  28.183  0.0500 -0.0418  0.2728
  538BOLB   GL312903  19.106  18.701  27.820  0.0523 -0.1635 -0.1834
  538BOLB   GL412904  19.246  18.428  27.550 -0.0731  0.0828 -0.3098
  538BOLB   C1C12905  19.003  18.856  27.390  0.0690  0.3609  0.1403
  538BOLB   C2C12906  19.325  18.933  27.086  0.1660  0.1109  0.0920
  538BOLB   C3C12907  19.349  18.988  26.626  0.0841 -0.0566 -0.1956
  538BOLB   C4C12908  19.383  18.998  26.137  0.1403 -0.2653  0.3282
  538BOLB   C1D12909  19.231  18.338  27.124  0.1285 -0.1620  0.0569
  538BOLB   C2D12910  19.161  18.458  26.692  0.0982 -0.1553 -0.0724
  538BOLB   C3D12911  19.456  18.567  26.362  0.0416  0.0388  0.2596
  538BOLB   C4D12912  19.825  18.623  26.061  0.3873  0.1779 -0.0275
  539BOLB   NC112913  20.148  10.474  21.168 -0.0562  0.1939 -0.1592
  539BOLB   PO112914  20.593  10.599  21.251 -0.0741 -0.0226 -0.2462
  539BOLB   GL112915  20.438  10.163  21.407 -0.0728  0.0997  0.1628
  539BOLB   GL212916  20.816   9.929  21.258 -0.0005  0.0602 -0.1301
  539BOLB   C1A12917  20.575   9.849  21.653 -0.0666  0.1231 -0.0902
  539BOLB   C2A12918  20.955   9.708  21.857 -0.2228 -0.1743 -0.1679
  539BOLB   C3A12919  20.819   9.461  22.125 -0.3362  0.0948  0.1536
  539BOLB   C4A12920  20.929   9.144  22.288  0.0247 -0.0328 -0.1383
  539BOLB   C1B12921  20.981  10.122  21.554 -0.0206  0.3063 -0.2396
  539BOLB   C2B12922  21.084  10.251  21.937  0.0576  0.0560  0.5620
  539BOLB   C3B12923  21.369  10.000  22.203 -0.2233  0.1746  0.0712
  539BOLB   C4B12924  21.730   9.978  22.506  0.2102  0.0816 -0.0377
  539BOLB   NC212925  21.149   7.052  23.709 -0.0974 -0.0966 -0.1165
  539BOLB   PO212926  21.137   7.488  23.648  0.2222  0.1765 -0.1727
  539BOLB   GL312927  21.281   7.626  23.165  0.1327  0.4726 -0.2235
  539BOLB   GL412928  21.049   7.788  23.145 -0.1278  0.0665  0.1773
  539BOLB   C1C12929  21.368   7.569  22.716 -0.0991  0.0502  0.1184
  539BOLB   C2C12930  21.163   7.895  22.510 -0.0869  0.2214 -0.2873
  539BOLB   C3C12931  21.019   8.358  22.640  0.0603 -0.2341  0.2982
  539BOLB   C4C12932  20.865   8.758  22.397 -0.1774 -0.1555 -0.3075
  539BOLB   C1D12933  20.785   8.117  23.171  0.1634 -0.0461 -0.1078
  539BOLB   C2D12934  20.408   8.267  23.018 -0.1565  0.1341 -0.2070
  539BOLB   C3D12935  20.063   8.519  22.906  0.1342  0.1393 -0.1404
  539BOLB   C4D12936  19.758   8.742  23.068 -0.1593  0.1858 -0.3184
  540BOLB   NC112937  19.465  13.484  23.659 -0.1638  0.2806  0.1311
  540BOLB   PO112938  18.959  13.543  23.690  0.0080 -0.6118 -0.0048
  540BOLB   GL112939  19.051  13.286  23.984  0.0530  0.0148 -0.1311
  540BOLB   GL212940  18.900  12.997  23.951  0.2816 -0.0162  0.0162
  540BOLB   C1A12941  19.204  13.082  24.349  0.1281  0.0846  0.1221
  540BOLB   C2A12942  19.394  12.800  24.639 -0.1755 -0.1807  0.2711
  540BOLB   C3A12943  19.450  12.627  25.034 -0.1623 -0.1936  0.0875
  540BOLB   C4A12944  19.585  12.426  25.389  0.2231  0.0876 -0.2159
  540BOLB   C1B12945  19.049  12.637  24.263 -0.0222  0.2697  0.0405
  540BOLB   C2B12946  18.885  12.294  24.646 -0.0139 -0.0629 -0.0109
  540BOLB   C3B12947  18.728  11.928  24.886 -0.0316 -0.1991 -0.3005
  540BOLB   C4B12948  18.721  11.754  25.337 -0.1161 -0.0435  0.3727
  540BOLB   NC212949  21.658  11.616  26.499 -0.0028  0.1356  0.0209
  540BOLB   PO212950  21.461  11.906  26.652  0.1734 -0.1217  0.1307
  540BOLB   GL312951  21.301  12.190  26.346 -0.0156  0.0636 -0.1583
  540BOLB   GL412952  21.420  12.064  26.104 -0.4419 -0.2503  0.3036
  540BOLB   C1C12953  20.964  12.309  26.067 -0.3862 -0.3671  0.0178
  540BOLB   C2C12954  20.526  12.349  25.855  0.0925 -0.1198 -0.0559
  540BOLB   C3C12955  20.194  12.075  25.717 -0.0181  0.0351  0.1059
  540BOLB   C4C12956  19.882  12.124  25.461  0.0973  0.0025 -0.0864
  540BOLB   C1D12957  21.159  12.082  25.713 -0.0747 -0.0030 -0.0245
  540BOLB   C2D12958  20.923  12.342  25.582  0.0169  0.0625  0.0613
  540BOLB   C3D12959  20.660  12.666  25.534 -0.1398 -0.1684  0.2123
  540BOLB   C4D12960  20.237  12.742  25.703  0.5857 -0.0881  0.0660
  541BOLB   NC112961  13.094  15.086  24.750 -0.0938  0.2748  0.3174
  541BOLB   PO112962  12.653  15.138  24.738  0.0543  0.4366  0.2369
  541BOLB   GL112963  12.761  15.298  25.239  0.0407  0.1346 -0.0486
  541BOLB   GL212964  12.499  15.354  25.371 -0.0684  0.2051 -0.1124
  541BOLB   C1A12965  12.888  15.150  25.694  0.0420  0.0155  0.0054
  541BOLB   C2A12966  12.941  15.110  26.035  0.2468  0.2247 -0.0947
  541BOLB   C3A12967  12.994  14.913  26.466  0.1342  0.0760  0.3960
  541BOLB   C4A12968  13.190  14.947  26.808  0.1616  0.2138  0.0311
  541BOLB   C1B12969  12.403  15.296  25.810  0.0404 -0.3251  0.2051
  541BOLB   C2B12970  12.490  15.274  26.250 -0.0733 -0.0972 -0.1350
  541BOLB   C3B12971  12.585  15.233  26.648  0.3254  0.2582 -0.0309
  541BOLB   C4B12972  12.670  14.972  26.984 -0.0282 -0.0442 -0.2743
  541BOLB   NC212973  13.130  15.273  28.943 -0.1134 -0.1579  0.3255
  541BOLB   PO212974  13.460  15.542  28.939 -0.0379  0.6102  0.0152
  541BOLB   GL312975  13.510  15.389  28.565  0.0087  0.0006 -0.1316
  541BOLB   GL412976  13.785  15.423  28.583  0.2476 -0.3029  0.2660
  541BOLB   C1C12977  13.657  15.234  28.100  0.1165  0.0858 -0.0798
  541BOLB   C2C12978  13.658  15.026  27.663 -0.1714  0.0947  0.0302
  541BOLB   C3C12979  13.549  14.711  27.349  0.2551 -0.2054 -0.0806
  541BOLB   C4C12980  13.403  14.585  27.041 -0.1116 -0.1895 -0.0873
  541BOLB   C1D12981  13.857  15.705  28.218  0.1740  0.0300 -0.1453
  541BOLB   C2D12982  14.151  15.724  27.979  0.0049  0.3240  0.2061
  541BOLB   C3D12983  14.450  15.604  27.606  0.1064 -0.2634 -0.3691
  541BOLB   C4D12984  14.797  15.464  27.396  0.0045  0.1501  0.0223
  542BOLB   NC112985  12.797  22.302  23.261  0.0110  0.0649  0.0581
  542BOLB   PO112986  13.166  22.519  23.091  0.3335  0.1962 -0.1863
  542BOLB   GL112987  12.951  22.733  23.449  0.1968 -0.0174 -0.3577
  542BOLB   GL212988  12.924  22.584  23.772 -0.1245 -0.1051  0.0596
  542BOLB   C1A12989  13.145  23.050  23.788 -0.0844  0.0041  0.0317
  542BOLB   C2A12990  13.140  23.287  24.130 -0.3011 -0.1743  0.1992
  542BOLB   C3A12991  12.869  23.574  24.425  0.0530 -0.1015 -0.3409
  542BOLB   C4A12992  12.718  23.907  24.653 -0.2827 -0.0630  0.1366
  542BOLB   C1B12993  12.605  22.888  23.769 -0.0161  0.2198 -0.1868
  542BOLB   C2B12994  12.609  23.315  23.947 -0.0527 -0.3963  0.1649
  542BOLB   C3B12995  12.570  23.830  24.149  0.0542  0.1984  0.4032
  542BOLB   C4B12996  12.436  24.288  24.082  0.0233  0.1610  0.2863
  542BOLB   NC212997  12.869  26.154  26.100  0.2340  0.1237  0.3708
  542BOLB   PO212998  12.969  25.855  25.701 -0.2207  0.0747 -0.2337
  542BOLB   GL312999  13.068  25.549  25.493 -0.0095 -0.0010  0.1767
  542BOLB   GL413000  13.048  25.673  25.128  0.1800 -0.0877  0.2906
  542BOLB   C1C13001  12.821  25.158  25.245  0.1209 -0.0363  0.0468
  542BOLB   C2C13002  12.684  24.627  25.251  0.1868  0.3276  0.3490
  542BOLB   C3C13003  12.506  24.245  25.314 -0.0944 -0.2960  0.0358
  542BOLB   C4C13004  12.606  23.912  25.121 -0.0682 -0.2012 -0.1094
  542BOLB   C1D13005  13.214  25.263  24.962  0.2483  0.0063 -0.1510
  542BOLB   C2D13006  13.263  25.019  24.540  0.0148  0.2698 -0.2447
  542BOLB   C3D13007  13.110  24.974  24.111  0.0927 -0.0885 -0.2193
  542BOLB   C4D13008  12.959  24.976  23.767 -0.1162 -0.0029 -0.2349
  543BOLB   NC113009  22.096  18.921  22.645  0.2303 -0.0077 -0.2297
  543BOLB   PO113010  21.830  18.650  22.751 -0.1431  0.4979  0.0842
  543BOLB   GL113011  21.963  18.936  23.209 -0.1197  0.0369 -0.1313
  543BOLB   GL213012  22.147  18.737  23.390  0.2899 -0.0465 -0.0659
  543BOLB   C1A13013  21.972  19.110  23.696  0.0846 -0.1676 -0.1021
  543BOLB   C2A13014  21.962  19.136  24.203 -0.1781  0.0162 -0.0078
  543BOLB   C3A13015  22.037  19.327  24.516 -0.0272 -0.3313  0.1833
  543BOLB   C4A13016  22.289  19.634  24.665 -0.0575  0.0996 -0.0562
  543BOLB   C1B13017  22.386  18.851  23.884 -0.0354 -0.0925 -0.0553
  543BOLB   C2B13018  22.442  18.775  24.245 -0.0667  0.0035 -0.0073
  543BOLB   C3B13019  22.473  18.978  24.605 -0.2214 -0.1819  0.1478
  543BOLB   C4B13020  22.592  19.162  24.974  0.1166  0.1459  0.0642
  543BOLB   NC213021  23.976  20.943  25.867 -0.2805  0.2788 -0.0534
  543BOLB   PO213022  24.141  20.584  26.039  0.1630 -0.1825 -0.3513
  543BOLB   GL313023  23.908  20.292  25.840  0.0681  0.1345  0.2482
  543BOLB   GL413024  24.014  20.268  25.551 -0.2975 -0.0968 -0.1410
  543BOLB   C1C13025  23.666  19.936  25.784  0.0486  0.2583  0.0336
  543BOLB   C2C13026  23.367  19.767  25.652  0.1242 -0.1351  0.2786
  543BOLB   C3C13027  22.939  19.742  25.390  0.3219 -0.2793 -0.0768
  543BOLB   C4C13028  22.573  19.675  25.068 -0.0118  0.1355 -0.0482
  543BOLB   C1D13029  23.701  19.966  25.268 -0.1713  0.0845 -0.3343
  543BOLB   C2D13030  23.423  20.078  24.988  0.2160  0.1984  0.1319
  543BOLB   C3D13031  23.190  19.900  24.492 -0.0037 -0.0274  0.0819
  543BOLB   C4D13032  22.950  20.192  24.215  0.1449 -0.2076 -0.1535
  544BOLB   NC113033  18.858  12.004  22.865  0.1720  0.1740  0.1327
  544BOLB   PO113034  19.210  11.799  23.001 -0.0629 -0.2381  0.1990
  544BOLB   GL113035  19.311  11.637  23.372  0.2137 -0.2619  0.1437
  544BOLB   GL213036  19.327  12.105  23.430 -0.1823  0.3933 -0.1843
  544BOLB   C1A13037  19.061  11.694  23.750 -0.1028  0.2106 -0.0752
  544BOLB   C2A13038  19.086  11.505  24.129 -0.0634  0.2355  0.0792
  544BOLB   C3A13039  18.968  11.333  24.466 -0.2061 -0.3800 -0.1081
  544BOLB   C4A13040  19.226  11.074  24.755 -0.1693 -0.0809  0.3813
  544BOLB   C1B13041  19.743  12.023  23.559  0.2027 -0.1344 -0.0605
  544BOLB   C2B13042  20.027  11.870  23.895 -0.1172  0.0093 -0.2927
  544BOLB   C3B13043  20.201  11.890  24.291 -0.1871  0.2251 -0.0363
  544BOLB   C4B13044  20.193  11.719  24.719  0.1569 -0.1236  0.1872
  544BOLB   NC213045  20.528  10.442  26.886  0.1696  0.1049 -0.0493
  544BOLB   PO213046  20.081  10.688  26.622 -0.0801  0.1874  0.0571
  544BOLB   GL313047  20.017  10.941  26.309  0.0289 -0.1176 -0.1648
  544BOLB   GL413048  20.223  11.205  26.335 -0.2384 -0.0187  0.0115
  544BOLB   C1C13049  19.906  11.052  25.962 -0.1328  0.2302  0.2454
  544BOLB   C2C13050  19.922  11.146  25.506  0.1041  0.2905 -0.4669
  544BOLB   C3C13051  19.972  10.900  25.118  0.1073  0.5630  0.1275
  544BOLB   C4C13052  19.637  10.851  24.881 -0.2345 -0.1409 -0.1166
  544BOLB   C1D13053  19.960  11.652  26.258  0.7667 -0.0221  0.0555
  544BOLB   C2D13054  19.747  12.041  26.233  0.1886 -0.3469  0.1520
  544BOLB   C3D13055  19.859  12.349  26.042  0.1591 -0.2336 -0.0905
  544BOLB   C4D13056  19.694  12.807  25.746 -0.0003  0.1224  0.0525
  545BOLB   NC113057  24.150  14.827  22.689 -0.2982  0.0747  0.4564
  545BOLB   PO113058  23.706  14.870  22.908  0.1027  0.1868 -0.2383
  545BOLB   GL113059  23.913  14.726  23.219 -0.0851  0.0333 -0.3982
  545BOLB   GL213060  24.159  14.582  23.102 -0.0155  0.4004  0.2844
  545BOLB   C1A13061  23.794  14.513  23.695  0.3878 -0.1437  0.1160
  545BOLB   C2A13062  23.777  14.419  24.041  0.2769 -0.1370 -0.0928
  545BOLB   C3A13063  23.775  14.311  24.457 -0.0928  0.0273  0.1240
  545BOLB   C4A13064  23.873  14.525  24.751 -0.1575  0.0701  0.0398
  545BOLB   C1B13065  24.286  14.666  23.646  0.3746 -0.1956  0.0785
  545BOLB   C2B13066  24.150  14.679  24.180  0.0577  0.3234  0.1254
  545BOLB   C3B13067  24.352  14.729  24.557  0.1506  0.0166  0.2555
  545BOLB   C4B13068  24.657  14.712  24.968 -0.1022 -0.2138 -0.1238
  545BOLB   NC213069  23.723  13.975  26.976  0.0358  0.2680  0.1750
  545BOLB   PO213070  23.253  14.069  26.936  0.1178 -0.2231 -0.2417
  545BOLB   GL313071  23.426  13.951  26.554 -0.3181  0.0965  0.0026
  545BOLB   GL413072  23.146  13.835  26.477 -0.2308  0.0028 -0.1606
  545BOLB   C1C13073  23.594  13.907  26.075 -0.1655  0.2341  0.0269
  545BOLB   C2C13074  23.970  13.879  25.793 -0.0934 -0.1075  0.1314
  545BOLB   C3C13075  24.111  14.165  25.415  0.2509  0.0536 -0.1957
  545BOLB   C4C13076  24.073  14.477  25.144  0.1325 -0.0789 -0.0597
  545BOLB   C1D13077  23.114  13.888  25.998  0.0352 -0.0269 -0.0121
  545BOLB   C2D13078  22.935  14.071  25.702 -0.3229  0.2816 -0.1889
  545BOLB   C3D13079  22.621  14.187  25.611  0.2345  0.1904  0.3202
  545BOLB   C4D13080  22.418  14.470  25.804 -0.1410 -0.0064  0.5086
  546BOLB   NC113081  20.174  13.895  23.582 -0.1568 -0.2343  0.2883
  546BOLB   PO113082  20.389  13.535  23.450  0.0941  0.0625 -0.5363
  546BOLB   GL113083  20.594  13.268  23.728  0.0291  0.1369  0.0550
  546BOLB   GL213084  20.815  13.392  23.862 -0.0614 -0.0558  0.4520
  546BOLB   C1A13085  20.502  12.980  24.092  0.0659 -0.0147  0.1129
  546BOLB   C2A13086  20.641  12.764  24.388 -0.1117  0.0840  0.3105
  546BOLB   C3A13087  21.016  12.664  24.776  0.0013  0.2580 -0.0240
  546BOLB   C4A13088  21.134  12.724  25.246 -0.2762  0.3092 -0.0034
  546BOLB   C1B13089  20.869  13.245  24.251 -0.1027 -0.2531 -0.2461
  546BOLB   C2B13090  20.841  13.121  24.707  0.0415 -0.2788 -0.3490
  546BOLB   C3B13091  20.714  13.010  25.120  0.0724 -0.1353  0.1783
  546BOLB   C4B13092  20.299  12.958  25.233 -0.0941  0.3395 -0.1788
  546BOLB   NC213093  20.172  12.814  27.495 -0.4412 -0.0182  0.0840
  546BOLB   PO213094  20.454  12.535  27.388 -0.1793 -0.0186  0.0357
  546BOLB   GL313095  20.374  12.783  27.034 -0.1402  0.0748 -0.0099
  546BOLB   GL413096  20.023  12.784  26.965  0.0565  0.4333  0.2944
  546BOLB   C1C13097  20.565  12.934  26.694  0.0250 -0.2873 -0.0806
  546BOLB   C2C13098  20.966  13.065  26.410  0.2973  0.1871  0.0652
  546BOLB   C3C13099  20.994  12.899  25.988 -0.0046  0.0748  0.0295
  546BOLB   C4C13100  21.059  13.029  25.531 -0.2978  0.2693 -0.0037
  546BOLB   C1D13101  19.625  12.938  26.767 -0.2082 -0.0195 -0.1887
  546BOLB   C2D13102  19.369  13.170  26.538 -0.0658 -0.0300 -0.1053
  546BOLB   C3D13103  18.869  13.142  26.404 -0.2023 -0.0493  0.0095
  546BOLB   C4D13104  18.410  13.040  26.470 -0.1356 -0.0143  0.0710
  547BOLB   NC113105  13.452   9.951  22.559 -0.3545  0.1526  0.1428
  547BOLB   PO113106  13.614   9.701  22.960 -0.0524  0.0551  0.2119
  547BOLB   GL113107  13.699   9.390  23.303 -0.2333 -0.0342  0.2869
  547BOLB   GL213108  13.428   9.540  23.626  0.2344  0.0708  0.2622
  547BOLB   C1A13109  13.662   9.056  23.439 -0.0809  0.2050 -0.0202
  547BOLB   C2A13110  13.606   8.918  23.907 -0.1247 -0.3736 -0.3542
  547BOLB   C3A13111  13.742   8.881  24.273  0.2581 -0.2478  0.2109
  547BOLB   C4A13112  13.886   9.018  24.742 -0.0135  0.1464  0.1133
  547BOLB   C1B13113  13.758   9.488  23.865 -0.2570 -0.1663 -0.0094
  547BOLB   C2B13114  13.872   9.434  24.197  0.0138 -0.0089  0.1374
  547BOLB   C3B13115  14.040   9.513  24.587 -0.0517 -0.0615 -0.1211
  547BOLB   C4B13116  14.149   9.902  24.906 -0.0461  0.2123  0.4123
  547BOLB   NC213117  13.535   8.370  27.112 -0.0084 -0.2351 -0.2903
  547BOLB   PO213118  13.729   8.694  27.409  0.0917  0.1899 -0.3947
  547BOLB   GL313119  13.861   8.801  26.973  0.0321  0.1697  0.1628
  547BOLB   GL413120  13.964   8.547  26.809 -0.1771 -0.0586  0.0112
  547BOLB   C1C13121  13.665   8.836  26.590  0.0041 -0.0181  0.1338
  547BOLB   C2C13122  13.660   8.970  26.108 -0.1892 -0.1867  0.1557
  547BOLB   C3C13123  13.708   9.024  25.629  0.0332 -0.1172  0.2062
  547BOLB   C4C13124  13.912   8.927  25.205  0.2044  0.0793  0.2700
  547BOLB   C1D13125  13.887   8.423  26.398 -0.0891  0.1105  0.3890
  547BOLB   C2D13126  13.865   8.521  25.920 -0.1396  0.1188 -0.0794
  547BOLB   C3D13127  13.799   8.486  25.511  0.2886  0.1666  0.2329
  547BOLB   C4D13128  13.499   8.544  25.141 -0.0149  0.1613 -0.2658
  548BOLB   NC113129  10.194  17.841  23.631 -0.0768  0.0231  0.0392
  548BOLB   PO113130  10.643  17.658  23.786 -0.0409  0.2333 -0.1388
  548BOLB   GL113131  10.432  17.812  24.100  0.0601 -0.0842  0.2147
  548BOLB   GL213132  10.572  18.079  24.252 -0.2390  0.2435 -0.2090
  548BOLB   C1A13133  10.424  17.627  24.515  0.1185  0.1892  0.2099
  548BOLB   C2A13134  10.433  17.595  25.004  0.3266  0.0096  0.1239
  548BOLB   C3A13135  10.492  17.661  25.440 -0.4066  0.3425  0.2597
  548BOLB   C4A13136  10.455  17.475  25.893 -0.0182 -0.1343 -0.1909
  548BOLB   C1B13137  10.479  18.126  24.748 -0.0336  0.1619 -0.0741
  548BOLB   C2B13138  10.504  18.116  25.131  0.1387  0.3651 -0.0734
  548BOLB   C3B13139  10.329  18.210  25.452 -0.1131 -0.0114  0.3296
  548BOLB   C4B13140  10.101  18.635  25.611  0.4231 -0.0466  0.1623
  548BOLB   NC213141  10.529  17.226  28.720  0.0091 -0.1651 -0.1914
  548BOLB   PO213142  10.435  17.360  28.308 -0.1256  0.2541 -0.5142
  548BOLB   GL313143  10.638  17.304  27.914 -0.7758  0.0781 -0.1842
  548BOLB   GL413144  11.094  17.033  27.944  0.1461 -0.2606  0.3559
  548BOLB   C1C13145  10.534  17.198  27.488 -0.1036 -0.1052  0.0168
  548BOLB   C2C13146  10.787  17.302  27.050 -0.4224  0.0410  0.0615
  548BOLB   C3C13147  10.799  17.122  26.671 -0.0705  0.1294 -0.1119
  548BOLB   C4C13148  10.753  17.204  26.200  0.2302 -0.0346  0.0857
  548BOLB   C1D13149  11.161  16.580  27.750  0.1291  0.3221 -0.3723
  548BOLB   C2D13150  11.033  16.218  27.558 -0.0826 -0.0674  0.0933
  548BOLB   C3D13151  11.056  15.999  27.062 -0.2171  0.3182 -0.1442
  548BOLB   C4D13152  10.992  16.267  26.715  0.3032  0.0751 -0.1155
  549BOLB   NC113153  16.004  17.226  24.737  0.2292  0.0038 -0.0653
  549BOLB   PO113154  16.074  17.611  24.973  0.0676  0.1954 -0.1424
  549BOLB   GL113155  16.178  17.678  25.370  0.1089  0.0908 -0.0707
  549BOLB   GL213156  16.398  17.537  25.464  0.0008  0.0983  0.2643
  549BOLB   C1A13157  16.024  17.858  25.815  0.0070 -0.3330 -0.1918
  549BOLB   C2A13158  16.070  17.947  26.230 -0.1334  0.1075  0.2373
  549BOLB   C3A13159  16.054  17.879  26.678 -0.2950  0.2200 -0.4378
  549BOLB   C4A13160  16.026  17.819  27.071 -0.1395  0.3943 -0.1807
  549BOLB   C1B13161  16.418  17.383  25.840  0.0644 -0.0121  0.4722
  549BOLB   C2B13162  16.622  17.128  26.121 -0.0028  0.1315 -0.0114
  549BOLB   C3B13163  16.731  16.888  26.315 -0.0628 -0.2061 -0.0657
  549BOLB   C4B13164  16.906  16.569  26.480 -0.1093  0.2442  0.1369
  549BOLB   NC213165  15.837  17.871  28.545  0.1689 -0.0279  0.1813
  549BOLB   PO213166  15.688  17.511  28.817 -0.2926 -0.2419  0.1244
  549BOLB   GL313167  15.438  17.263  28.455 -0.1661 -0.4493  0.0891
  549BOLB   GL413168  15.462  16.924  28.529  0.4508  0.0526 -0.4043
  549BOLB   C1C13169  15.266  17.184  28.013 -0.4898 -0.0810 -0.0999
  549BOLB   C2C13170  15.302  17.099  27.547 -0.0307  0.2853  0.1421
  549BOLB   C3C13171  15.629  17.355  27.354 -0.4876  0.2789  0.1115
  549BOLB   C4C13172  15.976  17.596  27.474  0.0164 -0.3440  0.0225
  549BOLB   C1D13173  15.447  16.723  28.121  0.1326 -0.1117  0.0894
  549BOLB   C2D13174  15.278  16.661  27.822 -0.1897 -0.0493 -0.0902
  549BOLB   C3D13175  15.232  16.614  27.361 -0.2002  0.0045  0.4663
  549BOLB   C4D13176  15.289  16.644  26.909  0.1059 -0.1531 -0.1245
  550BOLB   NC113177  12.351  11.546  23.864  0.0631  0.1081  0.1306
  550BOLB   PO113178  12.022  11.706  23.764  0.0005  0.0590  0.1515
  550BOLB   GL113179  11.958  11.218  24.033  0.0891  0.0636  0.0521
  550BOLB   GL213180  11.856  10.847  24.022  0.0165 -0.2306  0.4023
  550BOLB   C1A13181  12.148  11.132  24.344 -0.2449  0.3677  0.0661
  550BOLB   C2A13182  12.184  10.996  24.773  0.1841 -0.3130 -0.0344
  550BOLB   C3A13183  12.051  10.919  25.215  0.1981 -0.3938  0.1047
  550BOLB   C4A13184  12.081  10.740  25.606  0.2625  0.2572 -0.1740
  550BOLB   C1B13185  11.793  10.754  24.457  0.3605  0.1349  0.2740
  550BOLB   C2B13186  11.922  10.558  24.785  0.0766  0.1088  0.1161
  550BOLB   C3B13187  12.271  10.508  25.117 -0.3871  0.1281  0.0982
  550BOLB   C4B13188  12.515  10.542  25.492 -0.1530 -0.0173 -0.2037
  550BOLB   NC213189  12.245   9.618  27.759  0.0145 -0.2007  0.2846
  550BOLB   PO213190  12.205   9.285  27.432  0.3835 -0.0553  0.0754
  550BOLB   GL313191  12.076   9.255  26.991 -0.0401  0.1203 -0.1329
  550BOLB   GL413192  12.366   9.208  26.779  0.0957 -0.1765 -0.0215
  550BOLB   C1C13193  11.998   9.542  26.616  0.3393 -0.0142  0.1607
  550BOLB   C2C13194  11.947   9.945  26.444  0.1289  0.2102  0.2819
  550BOLB   C3C13195  11.837  10.204  26.100  0.0233 -0.0048  0.0254
  550BOLB   C4C13196  11.979  10.363  25.705  0.0702 -0.1477  0.0748
  550BOLB   C1D13197  12.629   9.200  26.359 -0.3227  0.1219 -0.1314
  550BOLB   C2D13198  12.811   9.293  26.073  0.2338 -0.2816  0.2642
  550BOLB   C3D13199  12.683   9.204  25.641 -0.0904 -0.0698  0.1142
  550BOLB   C4D13200  12.861   8.996  25.246 -0.1412 -0.0229 -0.0855
  551BOLB   NC113201  11.084  22.686  22.292  0.0072 -0.0830 -0.1046
  551BOLB   PO113202  10.749  22.505  22.242  0.0082  0.0972 -0.1109
  551BOLB   GL113203  10.852  22.600  22.752 -0.2019 -0.0799 -0.0513
  551BOLB   GL213204  10.970  22.888  22.776 -0.3070 -0.0642  0.3256
  551BOLB   C1A13205  10.568  22.748  23.186 -0.3684  0.2114 -0.4215
  551BOLB   C2A13206  10.451  22.753  23.731  0.0069  0.0730 -0.1696
  551BOLB   C3A13207  10.490  22.935  24.201  0.5844  0.2079 -0.0464
  551BOLB   C4A13208  10.495  23.301  24.518  0.0293 -0.0621 -0.2580
  551BOLB   C1B13209  11.020  23.079  23.206 -0.3741 -0.0291  0.1064
  551BOLB   C2B13210  11.226  23.191  23.599  0.0427 -0.2328 -0.3115
  551BOLB   C3B13211  11.330  23.139  24.107 -0.2292 -0.0107  0.0072
  551BOLB   C4B13212  11.440  23.228  24.483 -0.0399  0.1063 -0.0020
  551BOLB   NC213213  10.645  23.386  27.050  0.0313 -0.1075 -0.2189
  551BOLB   PO213214  10.677  23.065  26.804  0.2207  0.1096 -0.0208
  551BOLB   GL313215  10.938  22.889  26.326  0.2635 -0.3202 -0.2008
  551BOLB   GL413216  11.129  22.653  26.428  0.1125  0.0036 -0.0949
  551BOLB   C1C13217  10.946  23.005  25.921  0.0717  0.1739  0.2988
  551BOLB   C2C13218  10.921  22.900  25.483  0.2907  0.0347 -0.3253
  551BOLB   C3C13219  10.836  23.127  25.110 -0.2915  0.0033 -0.1069
  551BOLB   C4C13220  10.487  23.350  24.888  0.0955  0.0884  0.0624
  551BOLB   C1D13221  11.003  22.366  26.175  0.1572  0.1603 -0.1161
  551BOLB   C2D13222  11.192  22.360  25.722  0.1155 -0.0122  0.1513
  551BOLB   C3D13223  11.382  22.572  25.330  0.2943 -0.0633  0.1558
  551BOLB   C4D13224  11.596  22.445  25.115  0.0798 -0.0957 -0.0875
  552BOLB   NC113225  12.823  23.931  21.725 -0.0155 -0.0687 -0.2047
  552BOLB   PO113226  12.854  24.017  21.339  0.0747 -0.2023  0.0212
  552BOLB   GL113227  12.604  24.433  21.491  0.0710 -0.1303  0.0989
  552BOLB   GL213228  12.693  24.415  21.859 -0.0971  0.3109  0.0224
  552BOLB   C1A13229  12.528  24.845  21.706 -0.0417  0.0682  0.0588
  552BOLB   C2A13230  12.727  25.220  21.881  0.1363  0.0785  0.1909
  552BOLB   C3A13231  12.912  25.565  22.141  0.0810  0.0047 -0.0142
  552BOLB   C4A13232  12.982  26.025  22.304  0.0012  0.1476  0.1308
  552BOLB   C1B13233  12.441  24.681  22.155 -0.1758 -0.2735 -0.0041
  552BOLB   C2B13234  12.390  25.007  22.509 -0.1678 -0.2609 -0.1418
  552BOLB   C3B13235  12.609  25.161  22.965  0.0575  0.0785 -0.3732
  552BOLB   C4B13236  12.832  24.949  23.331  0.0408 -0.2059  0.1211
  552BOLB   NC213237  12.354  27.146  24.515  0.1587 -0.0907 -0.1666
  552BOLB   PO213238  12.865  27.021  24.344  0.1967 -0.2176 -0.0163
  552BOLB   GL313239  13.095  26.938  24.030 -0.1910 -0.0519 -0.4133
  552BOLB   GL413240  13.021  27.236  23.799  0.1701  0.0254 -0.2384
  552BOLB   C1C13241  13.086  26.793  23.600  0.0021 -0.1191  0.0272
  552BOLB   C2C13242  13.063  26.643  23.231 -0.0706 -0.2793 -0.0960
  552BOLB   C3C13243  13.084  26.377  22.912  0.0964  0.2643 -0.1885
  552BOLB   C4C13244  12.950  26.234  22.622 -0.5719  0.0650 -0.4147
  552BOLB   C1D13245  12.652  27.035  23.556 -0.1792 -0.1545 -0.3464
  552BOLB   C2D13246  12.588  26.860  23.185  0.0273 -0.1269  0.0009
  552BOLB   C3D13247  12.550  26.604  22.933 -0.1347 -0.0120 -0.2036
  552BOLB   C4D13248  12.509  26.310  22.547  0.1077  0.1255 -0.2143
  553BOLB   NC113249  21.725  17.084  23.090  0.1859  0.2446 -0.2634
  553BOLB   PO113250  22.047  16.887  23.097 -0.1575 -0.2577  0.0376
  553BOLB   GL113251  22.198  17.178  23.344 -0.3663 -0.3645  0.2690
  553BOLB   GL213252  22.469  17.305  23.297  0.1581  0.3690  0.2787
  553BOLB   C1A13253  22.221  17.092  23.812  0.0903 -0.1567  0.1299
  553BOLB   C2A13254  22.383  17.192  24.267  0.1173 -0.0047  0.2142
  553BOLB   C3A13255  22.476  17.381  24.603 -0.0724 -0.0097  0.1979
  553BOLB   C4A13256  22.582  17.567  24.897 -0.0694 -0.0617  0.2247
  553BOLB   C1B13257  22.684  17.120  23.622 -0.3095  0.0285 -0.1354
  553BOLB   C2B13258  22.838  17.154  23.988 -0.0798 -0.0031  0.1603
  553BOLB   C3B13259  22.851  17.038  24.385 -0.0354 -0.0353  0.3278
  553BOLB   C4B13260  23.038  16.711  24.659 -0.1587  0.1564  0.3193
  553BOLB   NC213261  22.906  17.101  27.263 -0.1475 -0.0060  0.4934
  553BOLB   PO213262  23.314  17.406  27.368  0.1645  0.1350 -0.2522
  553BOLB   GL313263  23.070  17.567  27.178 -0.2780  0.1060 -0.1198
  553BOLB   GL413264  23.026  17.898  27.174 -0.2313  0.1766 -0.2109
  553BOLB   C1C13265  23.027  17.606  26.727 -0.1678 -0.2938  0.2086
  553BOLB   C2C13266  22.921  17.549  26.299 -0.1533 -0.2715 -0.0594
  553BOLB   C3C13267  22.879  17.664  25.766 -0.1245 -0.1547 -0.1256
  553BOLB   C4C13268  22.799  17.827  25.345 -0.4168  0.5517  0.0871
  553BOLB   C1D13269  22.798  17.994  26.775  0.3302 -0.3107  0.0301
  553BOLB   C2D13270  22.712  18.016  26.281 -0.1190  0.0724 -0.1703
  553BOLB   C3D13271  22.756  18.177  25.764  0.1517 -0.0597  0.0544
  553BOLB   C4D13272  22.441  17.863  25.627  0.3580  0.1793 -0.2824
  554BOLB   NC113273  21.517  14.300  23.113  0.0420  0.1348 -0.2409
  554BOLB   PO113274  21.317  14.568  23.409 -0.2558  0.3250 -0.1164
  554BOLB   GL113275  21.119  14.570  23.836 -0.0457 -0.0574 -0.1419
  554BOLB   GL213276  21.140  14.191  23.953 -0.1992 -0.1656 -0.2511
  554BOLB   C1A13277  21.239  14.745  24.251 -0.2072 -0.2987 -0.0912
  554BOLB   C2A13278  21.291  14.714  24.658  0.2314  0.3318  0.1831
  554BOLB   C3A13279  21.425  14.732  25.067 -0.1045  0.0222  0.2239
  554BOLB   C4A13280  21.647  14.803  25.493 -0.0377 -0.3231  0.2389
  554BOLB   C1B13281  21.245  14.268  24.324 -0.0571 -0.1205 -0.0423
  554BOLB   C2B13282  21.137  14.229  24.783  0.1282 -0.0411 -0.2087
  554BOLB   C3B13283  21.307  13.906  25.121 -0.0220  0.2389 -0.1258
  554BOLB   C4B13284  21.089  13.698  25.466 -0.1197  0.5084 -0.1510
  554BOLB   NC213285  23.130  14.012  27.783 -0.4320 -0.2859  0.0597
  554BOLB   PO213286  22.971  14.344  27.445  0.2018  0.0182 -0.0712
  554BOLB   GL313287  22.829  14.513  26.992  0.1839 -0.2832  0.0527
  554BOLB   GL413288  22.474  14.623  27.145 -0.3147  0.0358  0.0349
  554BOLB   C1C13289  22.787  14.595  26.521 -0.0961 -0.0095 -0.1427
  554BOLB   C2C13290  22.378  14.543  26.263 -0.0794  0.0888 -0.3676
  554BOLB   C3C13291  22.049  14.702  26.005 -0.0163 -0.1579 -0.3070
  554BOLB   C4C13292  21.745  14.630  25.786 -0.2965  0.0172  0.1263
  554BOLB   C1D13293  22.268  14.568  26.766  0.0134 -0.2793 -0.2383
  554BOLB   C2D13294  21.916  14.514  26.488  0.0372  0.0141 -0.0516
  554BOLB   C3D13295  21.681  14.242  26.210 -0.1442  0.1536  0.1047
  554BOLB   C4D13296  21.368  13.879  26.356  0.4694  0.1767 -0.2213
  555BOLB   NC113297  21.327  18.034  23.336  0.0054  0.2838  0.2984
  555BOLB   PO113298  21.565  18.376  23.233  0.3287  0.1292  0.2461
  555BOLB   GL113299  21.745  18.380  23.578 -0.0897 -0.1144  0.1479
  555BOLB   GL213300  21.801  18.056  23.621  0.2647 -0.0182 -0.0137
  555BOLB   C1A13301  21.684  18.262  24.065  0.0667 -0.2214 -0.0362
  555BOLB   C2A13302  22.018  18.234  24.422 -0.0680  0.1671 -0.0669
  555BOLB   C3A13303  22.060  18.657  24.542  0.0644  0.1921 -0.2505
  555BOLB   C4A13304  21.905  18.975  24.812  0.0041 -0.0639  0.2711
  555BOLB   C1B13305  22.082  17.964  23.954 -0.1711  0.0661 -0.0382
  555BOLB   C2B13306  22.197  17.795  24.278  0.3365 -0.1553  0.1758
  555BOLB   C3B13307  22.140  17.879  24.720 -0.2289  0.1870 -0.3674
  555BOLB   C4B13308  22.125  18.241  24.936  0.0916  0.0918 -0.2099
  555BOLB   NC213309  22.784  19.310  27.183 -0.1620 -0.0324 -0.0040
  555BOLB   PO213310  22.539  19.645  27.063 -0.1634 -0.4462 -0.0072
  555BOLB   GL313311  22.258  19.574  26.785 -0.0580 -0.0132  0.0066
  555BOLB   GL413312  22.261  19.265  26.615  0.2702  0.0172  0.0490
  555BOLB   C1C13313  22.131  19.623  26.307 -0.4415 -0.0274  0.1924
  555BOLB   C2C13314  22.211  19.556  25.895  0.2036  0.0071  0.4056
  555BOLB   C3C13315  22.132  19.529  25.532 -0.0748  0.0501  0.0089
  555BOLB   C4C13316  22.121  19.332  25.056  0.3207  0.3198  0.0894
  555BOLB   C1D13317  21.867  19.129  26.331 -0.2705 -0.0195 -0.3016
  555BOLB   C2D13318  21.625  19.339  26.008 -0.2434 -0.0108 -0.3512
  555BOLB   C3D13319  21.311  19.194  25.832 -0.0605  0.0826 -0.3714
  555BOLB   C4D13320  20.958  19.309  25.682 -0.2143 -0.1236 -0.2957
  556BOLB   NC113321  19.115  17.161  23.423  0.1428  0.0310 -0.0913
  556BOLB   PO113322  19.417  17.224  23.848 -0.2321 -0.4615  0.2039
  556BOLB   GL113323  19.772  17.469  24.126  0.0836 -0.0066 -0.1359
  556BOLB   GL213324  20.077  17.534  24.122 -0.2728 -0.1023 -0.1719
  556BOLB   C1A13325  19.976  17.455  24.582 -0.0250  0.0855 -0.2149
  556BOLB   C2A13326  20.193  17.407  25.116 -0.0099 -0.1138  0.1755
  556BOLB   C3A13327  20.274  17.603  25.445  0.1612 -0.1367  0.1838
  556BOLB   C4A13328  20.166  17.585  25.915 -0.0981 -0.1729 -0.2478
  556BOLB   C1B13329  20.214  17.904  24.343  0.0287 -0.2871  0.0007
  556BOLB   C2B13330  20.417  18.181  24.570 -0.4189 -0.1476 -0.1681
  556BOLB   C3B13331  20.710  18.473  24.752  0.1657  0.1211 -0.1725
  556BOLB   C4B13332  20.908  18.730  25.070 -0.1029  0.1785 -0.0584
  556BOLB   NC213333  20.602  16.215  28.241  0.0911  0.1229  0.1638
  556BOLB   PO213334  20.700  15.943  27.884 -0.0908  0.2590 -0.0078
  556BOLB   GL313335  20.802  16.177  27.494  0.1189  0.3075 -0.3230
  556BOLB   GL413336  20.753  16.005  27.249 -0.0786  0.1169  0.4101
  556BOLB   C1C13337  20.733  16.520  27.193 -0.1114  0.0310 -0.0932
  556BOLB   C2C13338  20.752  16.878  27.059 -0.2898  0.0231  0.0173
  556BOLB   C3C13339  20.683  17.211  26.718  0.2478  0.0431  0.1576
  556BOLB   C4C13340  20.357  17.440  26.344 -0.0805  0.0298  0.3105
  556BOLB   C1D13341  20.705  16.080  26.848 -0.2098 -0.1324 -0.2780
  556BOLB   C2D13342  20.756  16.266  26.489 -0.0421  0.1443  0.2246
  556BOLB   C3D13343  21.174  16.237  26.212 -0.2312  0.2414  0.2674
  556BOLB   C4D13344  21.334  16.296  25.819 -0.0340  0.3360 -0.1539
  557BOLB   NC113345  18.908  14.576  23.890 -0.3792 -0.4781  0.4442
  557BOLB   PO113346  19.077  14.940  24.137  0.1015 -0.1017  0.0233
  557BOLB   GL113347  19.335  14.929  24.498 -0.1442 -0.2958 -0.0499
  557BOLB   GL213348  19.234  15.119  24.670 -0.1358  0.4110 -0.2892
  557BOLB   C1A13349  19.370  14.604  24.857 -0.1230  0.2699 -0.0700
  557BOLB   C2A13350  19.450  14.242  25.058  0.0724  0.0511  0.1803
  557BOLB   C3A13351  19.489  14.144  25.442  0.4687  0.2977 -0.2147
  557BOLB   C4A13352  19.664  13.963  25.718 -0.0222  0.0738 -0.1750
  557BOLB   C1B13353  19.407  15.091  25.119 -0.0181 -0.3008  0.0100
  557BOLB   C2B13354  19.622  15.077  25.645  0.0674 -0.0673 -0.0804
  557BOLB   C3B13355  19.869  14.932  26.012 -0.2415 -0.3796  0.4112
  557BOLB   C4B13356  19.653  14.795  26.447 -0.2919  0.0665 -0.0534
  557BOLB   NC213357  20.335  13.267  27.936 -0.0506  0.1505  0.1021
  557BOLB   PO213358  20.041  13.075  27.984 -0.1212 -0.1298 -0.0387
  557BOLB   GL313359  19.934  13.248  27.547 -0.2241 -0.0201  0.1755
  557BOLB   GL413360  20.272  13.420  27.427 -0.0284  0.0398 -0.3675
  557BOLB   C1C13361  20.005  13.273  27.055  0.3842  0.0006 -0.2347
  557BOLB   C2C13362  19.918  13.392  26.655 -0.0131  0.2299  0.4913
  557BOLB   C3C13363  19.670  13.602  26.458  0.0312 -0.1035 -0.1346
  557BOLB   C4C13364  19.659  13.668  26.055  0.2676 -0.3015 -0.1860
  557BOLB   C1D13365  20.428  13.783  27.203 -0.2385  0.0640  0.1340
  557BOLB   C2D13366  20.482  14.128  26.830  0.0357 -0.0662 -0.0328
  557BOLB   C3D13367  20.384  14.187  26.397 -0.1538  0.1690 -0.2950
  557BOLB   C4D13368  20.039  14.526  26.304  0.0607 -0.0697  0.1961
  558BOLB   NC113369  21.096  19.706  22.958  0.2314 -0.0803 -0.2094
  558BOLB   PO113370  21.266  19.299  23.095 -0.0088  0.0170  0.0005
  558BOLB   GL113371  21.207  19.352  23.450  0.0417 -0.1407 -0.0271
  558BOLB   GL213372  21.253  19.609  23.476 -0.2043 -0.0250 -0.0711
  558BOLB   C1A13373  20.985  19.443  23.848 -0.0929  0.1690 -0.1312
  558BOLB   C2A13374  21.118  19.587  24.288 -0.0438 -0.1224 -0.1097
  558BOLB   C3A13375  21.246  19.680  24.721 -0.1432 -0.2676 -0.0250
  558BOLB   C4A13376  21.370  19.716  25.032  0.2229  0.1840  0.0339
  558BOLB   C1B13377  21.273  19.866  23.878 -0.1674 -0.0181  0.0812
  558BOLB   C2B13378  21.205  20.065  24.254  0.0393  0.1588 -0.0344
  558BOLB   C3B13379  21.072  20.254  24.584 -0.0211  0.1181  0.0469
  558BOLB   C4B13380  21.010  20.247  24.990  0.0411 -0.1671  0.0890
  558BOLB   NC213381  21.800  19.321  27.558 -0.1513  0.0484  0.0517
  558BOLB   PO213382  21.568  18.978  27.401 -0.1239  0.1738 -0.0619
  558BOLB   GL313383  21.419  19.074  26.946  0.1856 -0.2312  0.1981
  558BOLB   GL413384  21.159  19.302  26.887 -0.4147  0.0510  0.1433
  558BOLB   C1C13385  21.437  19.213  26.469  0.0455 -0.2553 -0.0101
  558BOLB   C2C13386  21.157  19.476  26.245 -0.2582 -0.0155  0.1248
  558BOLB   C3C13387  21.236  19.641  25.967  0.0551  0.1306  0.2730
  558BOLB   C4C13388  21.315  19.622  25.536  0.2157  0.2441 -0.0737
  558BOLB   C1D13389  21.281  19.736  26.783 -0.0535  0.3007 -0.0863
  558BOLB   C2D13390  21.311  19.993  26.255  0.2911  0.1283 -0.4195
  558BOLB   C3D13391  21.721  20.187  26.154  0.4290  0.2466  0.0017
  558BOLB   C4D13392  21.739  20.340  25.675 -0.0549  0.2025  0.0957
  559BOLB   NC113393  16.021  20.060  23.622 -0.1687  0.0515  0.0410
  559BOLB   PO113394  15.731  20.342  23.781 -0.2965  0.0514 -0.0861
  559BOLB   GL113395  15.700  20.511  24.219 -0.1591  0.1649 -0.0816
  559BOLB   GL213396  15.466  20.771  24.398 -0.0311  0.0072  0.1195
  559BOLB   C1A13397  15.822  20.536  24.694 -0.0393  0.1596  0.0056
  559BOLB   C2A13398  15.829  20.543  25.208 -0.0568  0.5143  0.0802
  559BOLB   C3A13399  15.516  20.653  25.407 -0.0189  0.2917 -0.0666
  559BOLB   C4A13400  15.548  20.587  25.880 -0.2880  0.0167  0.1464
  559BOLB   C1B13401  15.635  21.195  24.445 -0.1626 -0.1558  0.0546
  559BOLB   C2B13402  15.644  21.598  24.733 -0.3020  0.1943  0.2881
  559BOLB   C3B13403  15.556  21.929  24.965  0.1518  0.0691  0.0465
  559BOLB   C4B13404  15.472  22.197  25.238  0.1966 -0.1249 -0.3775
  559BOLB   NC213405  16.503  21.531  28.654 -0.2593  0.0942 -0.0366
  559BOLB   PO213406  16.651  21.371  28.211 -0.2159  0.1200 -0.4528
  559BOLB   GL313407  16.439  21.217  27.884 -0.0547  0.4157  0.0463
  559BOLB   GL413408  16.677  21.033  27.717 -0.1622  0.3891  0.0108
  559BOLB   C1C13409  16.251  21.201  27.401  0.4652 -0.1624 -0.2829
  559BOLB   C2C13410  16.207  21.056  27.032  0.2032  0.1891 -0.0011
  559BOLB   C3C13411  16.130  20.950  26.594  0.0563  0.1008 -0.2589
  559BOLB   C4C13412  15.823  20.689  26.306  0.2689 -0.2310  0.2175
  559BOLB   C1D13413  16.610  20.892  27.274  0.4059  0.3146 -0.0376
  559BOLB   C2D13414  16.714  20.586  27.058 -0.4257 -0.1409  0.0468
  559BOLB   C3D13415  16.810  20.529  26.745 -0.1913  0.4137 -0.0527
  559BOLB   C4D13416  16.962  20.529  26.404 -0.2208  0.2295  0.1354
  560BOLB   NC113417  21.887  11.020  19.537  0.1195  0.2247 -0.1147
  560BOLB   PO113418  21.737  10.824  19.832 -0.0794  0.0101  0.1136
  560BOLB   GL113419  21.811  10.346  19.957  0.0884  0.3087  0.0929
  560BOLB   GL213420  21.969  10.415  20.217 -0.0585 -0.2531  0.0203
  560BOLB   C1A13421  22.057   9.903  19.921 -0.1762 -0.0322 -0.0159
  560BOLB   C2A13422  21.999   9.536  20.163 -0.1821  0.2795  0.0760
  560BOLB   C3A13423  22.016   9.185  20.479 -0.1271 -0.2182 -0.2994
  560BOLB   C4A13424  22.101   8.732  20.516 -0.0148 -0.1689  0.2979
  560BOLB   C1B13425  22.393  10.177  20.175  0.0728 -0.0647  0.0491
  560BOLB   C2B13426  22.589   9.796  20.304 -0.1891 -0.1266  0.2297
  560BOLB   C3B13427  22.843   9.384  20.398 -0.0158  0.1112  0.1645
  560BOLB   C4B13428  23.091   9.060  20.475 -0.1350 -0.1778  0.1961
  560BOLB   NC213429  21.975   6.239  20.871  0.1200  0.0629  0.3117
  560BOLB   PO213430  22.195   6.369  20.408 -0.0702 -0.1787  0.1382
  560BOLB   GL313431  22.038   6.819  20.441  0.1789 -0.0605 -0.2962
  560BOLB   GL413432  22.025   6.862  20.754 -0.1170  0.2313  0.0060
  560BOLB   C1C13433  22.076   7.273  20.153 -0.2751  0.1264  0.0724
  560BOLB   C2C13434  22.051   7.694  20.118 -0.2032  0.2968 -0.0197
  560BOLB   C3C13435  22.118   7.964  20.448  0.1802 -0.0565  0.3376
  560BOLB   C4C13436  22.313   8.351  20.506 -0.0354  0.0455  0.1304
  560BOLB   C1D13437  22.334   7.171  20.665 -0.0194  0.0532  0.2381
  560BOLB   C2D13438  22.361   7.541  20.499  0.1668 -0.0016  0.0798
  560BOLB   C3D13439  22.493   7.872  20.193  0.1267  0.2587 -0.0703
  560BOLB   C4D13440  22.263   8.105  19.960  0.3912 -0.0747 -0.1764
  561BOLB   NC113441  15.635  13.037  24.328  0.2737 -0.2146 -0.0328
  561BOLB   PO113442  15.640  12.618  24.170  0.1022  0.1114  0.2114
  561BOLB   GL113443  15.495  12.611  24.593 -0.1820  0.1279 -0.0418
  561BOLB   GL213444  15.288  12.258  24.610 -0.0467  0.1449 -0.1509
  561BOLB   C1A13445  15.886  12.526  24.919  0.0669  0.1591  0.2981
  561BOLB   C2A13446  15.823  12.275  25.361  0.2118 -0.2780  0.0248
  561BOLB   C3A13447  15.908  12.329  25.800  0.1682  0.2063  0.0080
  561BOLB   C4A13448  15.887  12.495  26.205  0.1150  0.1550  0.2073
  561BOLB   C1B13449  15.435  12.375  25.007  0.0640 -0.2522  0.2953
  561BOLB   C2B13450  15.341  12.431  25.395 -0.1670 -0.0295 -0.3663
  561BOLB   C3B13451  15.284  12.110  25.822  0.1561  0.0608 -0.0640
  561BOLB   C4B13452  15.283  11.759  26.196 -0.2113  0.1276 -0.0684
  561BOLB   NC213453  17.269  11.970  28.052 -0.0398 -0.2910 -0.1560
  561BOLB   PO213454  16.891  12.160  28.217 -0.1298  0.0678 -0.5261
  561BOLB   GL313455  16.767  12.160  27.751 -0.0873  0.1411  0.3707
  561BOLB   GL413456  16.395  12.294  27.696 -0.2304  0.1540 -0.3668
  561BOLB   C1C13457  16.837  12.549  27.535 -0.0455 -0.1870  0.2931
  561BOLB   C2C13458  16.591  12.721  27.252  0.1180 -0.1357  0.2513
  561BOLB   C3C13459  16.261  12.820  27.004  0.4019 -0.1167  0.0448
  561BOLB   C4C13460  15.930  12.658  26.643 -0.2201  0.0682 -0.0022
  561BOLB   C1D13461  16.532  12.172  27.362  0.0817  0.0320  0.1444
  561BOLB   C2D13462  16.498  11.855  26.988 -0.6524 -0.1206 -0.0991
  561BOLB   C3D13463  16.567  11.681  26.572  0.1433 -0.1334 -0.0006
  561BOLB   C4D13464  16.606  11.625  26.080  0.1218  0.0142  0.2756
  562BOLB   NC113465   9.287   8.882  23.283  0.0472 -0.1341 -0.1102
  562BOLB   PO113466   9.107   9.303  23.167  0.0867  0.1119  0.1501
  562BOLB   GL113467   9.361   9.388  23.544  0.0218 -0.0642 -0.2759
  562BOLB   GL213468   9.536   9.107  23.693 -0.1894 -0.2229 -0.0337
  562BOLB   C1A13469   9.258   9.534  23.956  0.1872 -0.4895  0.2631
  562BOLB   C2A13470   8.909   9.801  24.151  0.0220  0.0985  0.0339
  562BOLB   C3A13471   8.813  10.034  24.428  0.0495  0.2209 -0.0901
  562BOLB   C4A13472   8.794  10.078  24.833 -0.2147  0.1674  0.1194
  562BOLB   C1B13473   9.376   9.045  24.071 -0.1201  0.1511  0.0675
  562BOLB   C2B13474   8.952   9.129  24.049  0.3098 -0.0430  0.0799
  562BOLB   C3B13475   8.645   9.392  24.040 -0.1158 -0.0900 -0.4285
  562BOLB   C4B13476   8.358   9.719  24.189  0.1699 -0.0605  0.0846
  562BOLB   NC213477   7.961   8.918  27.117 -0.1740  0.0033  0.4399
  562BOLB   PO213478   8.184   8.753  26.842 -0.0130  0.1499 -0.3255
  562BOLB   GL313479   8.275   8.945  26.435  0.4267 -0.2129 -0.0892
  562BOLB   GL413480   8.428   8.834  26.115 -0.2375  0.4543  0.2971
  562BOLB   C1C13481   8.542   9.304  26.326  0.0723  0.0584 -0.0618
  562BOLB   C2C13482   8.635   9.397  25.827 -0.0254  0.0149 -0.0737
  562BOLB   C3C13483   8.495   9.731  25.532 -0.1153  0.2987  0.0949
  562BOLB   C4C13484   8.631  10.139  25.252  0.2937 -0.0562  0.0020
  562BOLB   C1D13485   8.828   8.892  25.929  0.0820 -0.0847 -0.0911
  562BOLB   C2D13486   9.083   9.235  26.068 -0.1394  0.0052  0.2890
  562BOLB   C3D13487   9.307   9.607  26.183  0.0842 -0.0985 -0.0543
  562BOLB   C4D13488   9.450   9.969  26.361  0.1093  0.0018 -0.2808
  563BOLB   NC113489  14.571  23.637  22.172 -0.0296 -0.3546 -0.3301
  563BOLB   PO113490  14.861  23.930  22.121  0.0034 -0.0533  0.1397
  563BOLB   GL113491  14.860  24.345  22.267  0.0098  0.0841  0.0561
  563BOLB   GL213492  14.860  24.594  22.041 -0.0582  0.2715  0.0218
  563BOLB   C1A13493  14.592  24.730  22.404 -0.0821 -0.2708 -0.3695
  563BOLB   C2A13494  14.340  24.898  22.745 -0.2978  0.7794 -0.2291
  563BOLB   C3A13495  14.241  25.049  23.135 -0.1033 -0.1647  0.2483
  563BOLB   C4A13496  13.984  25.188  23.464  0.0837 -0.0543  0.2961
  563BOLB   C1B13497  14.957  25.005  22.274 -0.2936  0.1365 -0.2478
  563BOLB   C2B13498  14.920  25.204  22.669 -0.0087  0.2174  0.3481
  563BOLB   C3B13499  14.651  25.315  22.959  0.0469 -0.2259 -0.0275
  563BOLB   C4B13500  14.506  25.448  23.329  0.0644 -0.0976 -0.0475
  563BOLB   NC213501  13.907  26.209  25.527 -0.0761  0.3342 -0.4768
  563BOLB   PO213502  14.214  25.928  25.643 -0.0220  0.0986 -0.2941
  563BOLB   GL313503  14.222  25.552  25.399 -0.2244 -0.4527  0.2328
  563BOLB   GL413504  14.189  25.117  25.446 -0.2622  0.0421  0.1206
  563BOLB   C1C13505  14.137  25.485  24.992  0.0466 -0.0222 -0.1578
  563BOLB   C2C13506  14.431  25.355  24.636 -0.3465 -0.3531 -0.1005
  563BOLB   C3C13507  14.151  25.211  24.321 -0.1627 -0.3902  0.0828
  563BOLB   C4C13508  14.074  25.239  23.914 -0.0112 -0.0572 -0.0516
  563BOLB   C1D13509  13.971  24.923  25.137 -0.0024  0.0319 -0.0600
  563BOLB   C2D13510  13.546  24.756  24.918 -0.1255 -0.3052  0.0470
  563BOLB   C3D13511  13.256  24.420  24.840  0.0236  0.1832  0.1615
  563BOLB   C4D13512  12.832  24.306  24.914 -0.0989 -0.0765  0.1481
  564BOLB   NC113513  14.305  18.703  24.261  0.0354  0.1166  0.0119
  564BOLB   PO113514  14.070  18.948  24.577  0.1070 -0.0431 -0.1390
  564BOLB   GL113515  13.924  19.020  24.974 -0.0985 -0.4287  0.0209
  564BOLB   GL213516  14.186  19.024  25.307  0.2304 -0.1026  0.1066
  564BOLB   C1A13517  13.714  19.111  25.372 -0.0632  0.1519  0.0742
  564BOLB   C2A13518  13.623  19.351  25.779 -0.2860  0.1032 -0.2259
  564BOLB   C3A13519  13.916  19.610  26.018  0.1318 -0.3002  0.2549
  564BOLB   C4A13520  14.062  19.923  26.067 -0.4836 -0.0320  0.1738
  564BOLB   C1B13521  14.124  19.165  25.798  0.0049 -0.1612 -0.2395
  564BOLB   C2B13522  14.303  19.317  26.231 -0.0401  0.2017 -0.0813
  564BOLB   C3B13523  14.340  19.738  26.485  0.1751 -0.0749  0.1184
  564BOLB   C4B13524  14.716  20.002  26.730  0.0323 -0.0483 -0.3886
  564BOLB   NC213525  14.839  21.016  27.942  0.0761 -0.1092  0.3663
  564BOLB   PO213526  14.585  20.685  28.126 -0.3846 -0.1226  0.1232
  564BOLB   GL313527  14.581  20.291  27.920  0.3125  0.0606 -0.0926
  564BOLB   GL413528  14.301  20.178  27.979  0.1197 -0.2438  0.1413
  564BOLB   C1C13529  14.629  20.082  27.561 -0.0407  0.0517 -0.0442
  564BOLB   C2C13530  14.604  20.154  27.190 -0.1001  0.1494 -0.1021
  564BOLB   C3C13531  14.276  20.225  26.844  0.0753  0.0666 -0.2803
  564BOLB   C4C13532  14.059  20.201  26.426 -0.1103  0.1238  0.2820
  564BOLB   C1D13533  14.167  20.172  27.553 -0.0860 -0.1861  0.0445
  564BOLB   C2D13534  13.917  20.079  27.221 -0.4025 -0.0491 -0.1053
  564BOLB   C3D13535  13.525  19.808  27.113 -0.0140 -0.3081 -0.2976
  564BOLB   C4D13536  13.108  19.769  27.192  0.2554 -0.1844 -0.1656
  565BOLB   NC113537  16.706  21.648  22.944 -0.3711 -0.0777  0.0963
  565BOLB   PO113538  16.673  21.228  22.988  0.1400 -0.3171 -0.3493
  565BOLB   GL113539  16.486  21.566  23.342 -0.1532  0.3371 -0.0054
  565BOLB   GL213540  16.756  21.617  23.434 -0.1492  0.0031 -0.0956
  565BOLB   C1A13541  16.323  21.887  23.694 -0.2581  0.0549  0.0634
  565BOLB   C2A13542  16.417  21.936  24.154  0.2655 -0.0445 -0.2000
  565BOLB   C3A13543  16.545  22.238  24.397  0.6051  0.2875 -0.0412
  565BOLB   C4A13544  16.731  22.395  24.631 -0.0635 -0.0499 -0.0911
  565BOLB   C1B13545  16.818  21.674  23.808 -0.0288  0.1023 -0.0328
  565BOLB   C2B13546  16.968  21.831  24.121  0.1777 -0.0806  0.3810
  565BOLB   C3B13547  16.996  21.974  24.501  0.0923 -0.0235 -0.0721
  565BOLB   C4B13548  17.101  21.768  24.892 -0.3424  0.0277  0.1616
  565BOLB   NC213549  16.657  23.148  26.953 -0.1633 -0.1164  0.2172
  565BOLB   PO213550  17.080  22.933  26.964 -0.0399  0.2942 -0.1838
  565BOLB   GL313551  17.086  22.682  26.542  0.0160 -0.1185 -0.3263
  565BOLB   GL413552  16.872  22.415  26.397  0.0136  0.0427 -0.0869
  565BOLB   C1C13553  17.296  22.682  26.139  0.0202  0.3124  0.0476
  565BOLB   C2C13554  17.380  22.510  25.677  0.3508  0.0409  0.0491
  565BOLB   C3C13555  17.158  22.420  25.307 -0.0586 -0.1458 -0.0560
  565BOLB   C4C13556  16.966  22.313  24.916  0.2871  0.1014 -0.0641
  565BOLB   C1D13557  16.577  22.216  26.238  0.1134 -0.1490  0.0553
  565BOLB   C2D13558  16.184  22.307  26.246 -0.0838  0.2036  0.1119
  565BOLB   C3D13559  15.893  22.343  25.998 -0.0576 -0.0647  0.1367
  565BOLB   C4D13560  15.769  22.283  25.674 -0.1143 -0.3159  0.3159
  566BOLB   NC113561  18.256  10.523  21.430  0.0262 -0.0038  0.1186
  566BOLB   PO113562  18.325  10.428  21.851  0.1058  0.3211 -0.1425
  566BOLB   GL113563  18.466  10.071  22.174 -0.2353 -0.1761 -0.1650
  566BOLB   GL213564  18.560   9.710  22.063 -0.2833 -0.2092 -0.0821
  566BOLB   C1A13565  18.773  10.041  22.441 -0.1589 -0.1854  0.2005
  566BOLB   C2A13566  18.988   9.697  22.685 -0.0484 -0.4100  0.3041
  566BOLB   C3A13567  19.128   9.550  23.087 -0.0831 -0.3373 -0.1007
  566BOLB   C4A13568  19.259   9.406  23.526  0.1929  0.0098  0.0308
  566BOLB   C1B13569  18.434   9.389  22.299  0.5951  0.2622  0.1868
  566BOLB   C2B13570  18.418   9.061  22.524 -0.0305 -0.0917 -0.2200
  566BOLB   C3B13571  18.615   8.731  22.482  0.1603 -0.0902  0.1764
  566BOLB   C4B13572  18.814   8.466  22.505  0.0616 -0.1164  0.2962
  566BOLB   NC213573  19.309   7.225  24.480  0.1104 -0.0082  0.0090
  566BOLB   PO213574  19.668   7.506  24.665 -0.0306  0.2594 -0.2983
  566BOLB   GL313575  19.706   7.962  24.566 -0.0252  0.0451  0.0427
  566BOLB   GL413576  19.667   7.968  24.195 -0.0506 -0.1225  0.0641
  566BOLB   C1C13577  19.371   8.210  24.490 -0.0163  0.2027  0.1029
  566BOLB   C2C13578  19.135   8.610  24.433 -0.2100  0.2760 -0.2459
  566BOLB   C3C13579  19.112   8.790  24.089  0.2761  0.0167  0.1174
  566BOLB   C4C13580  19.032   9.093  23.726 -0.1447 -0.1913  0.0234
  566BOLB   C1D13581  19.304   8.308  24.029  0.3548 -0.0654 -0.2850
  566BOLB   C2D13582  19.058   8.438  23.696  0.0520 -0.0260 -0.0247
  566BOLB   C3D13583  18.799   8.608  23.398  0.2484 -0.1134  0.0687
  566BOLB   C4D13584  18.594   8.803  22.962 -0.1044  0.0154 -0.1364
  567BOLB   NC113585  20.792  12.882  22.722  0.1743 -0.3571  0.1041
  567BOLB   PO113586  21.208  12.918  22.529  0.2168  0.1554 -0.1469
  567BOLB   GL113587  21.282  12.833  22.951 -0.3928 -0.1286 -0.0404
  567BOLB   GL213588  21.186  12.584  23.069  0.0668 -0.0195 -0.0294
  567BOLB   C1A13589  21.500  12.865  23.436 -0.2885  0.0322 -0.2002
  567BOLB   C2A13590  21.551  12.556  23.814  0.0506 -0.0655 -0.1347
  567BOLB   C3A13591  21.875  12.372  24.063 -0.1230  0.4251 -0.3302
  567BOLB   C4A13592  22.084  12.210  24.411  0.2048  0.1733  0.0765
  567BOLB   C1B13593  21.321  12.181  23.426  0.5268  0.0579 -0.1705
  567BOLB   C2B13594  21.363  12.077  23.873 -0.0347  0.1381 -0.0216
  567BOLB   C3B13595  21.354  12.059  24.330 -0.2536 -0.3221  0.1893
  567BOLB   C4B13596  21.684  12.065  24.647 -0.2897  0.0546 -0.0154
  567BOLB   NC213597  22.565  11.368  26.630 -0.1030 -0.1623 -0.1795
  567BOLB   PO213598  22.251  11.526  26.526 -0.1766  0.1197  0.2776
  567BOLB   GL313599  22.641  11.587  26.215 -0.5662  0.1665 -0.0210
  567BOLB   GL413600  22.773  11.829  26.329 -0.2587 -0.3238  0.1106
  567BOLB   C1C13601  22.816  11.604  25.803 -0.2680 -0.0704 -0.1701
  567BOLB   C2C13602  22.489  11.737  25.537  0.0821 -0.0982 -0.1518
  567BOLB   C3C13603  22.182  11.731  25.160 -0.0355  0.2465  0.0431
  567BOLB   C4C13604  22.205  12.114  24.791 -0.0743 -0.3104 -0.0870
  567BOLB   C1D13605  22.585  12.182  26.066 -0.4194 -0.0615  0.3522
  567BOLB   C2D13606  22.241  12.251  25.652 -0.1359  0.1233 -0.1758
  567BOLB   C3D13607  22.355  12.431  25.186  0.1448 -0.1854  0.0811
  567BOLB   C4D13608  22.660  12.491  24.858 -0.1437 -0.0448  0.0188
  568BOLB   NC113609   9.837  21.494  22.702 -0.0958  0.1627  0.3470
  568BOLB   PO113610  10.145  21.199  22.852 -0.0719  0.1795  0.1008
  568BOLB   GL113611   9.765  21.217  23.202 -0.2093 -0.0567 -0.0800
  568BOLB   GL213612   9.767  21.494  23.252 -0.0993  0.1689 -0.2117
  568BOLB   C1A13613   9.795  21.232  23.648 -0.1568  0.4977  0.2228
  568BOLB   C2A13614   9.818  21.052  24.086  0.0352 -0.2812 -0.1629
  568BOLB   C3A13615   9.841  21.105  24.505 -0.4893 -0.0622  0.0502
  568BOLB   C4A13616   9.930  20.914  24.944  0.0417  0.1766 -0.6049
  568BOLB   C1B13617   9.460  21.688  23.393  0.1477  0.2468  0.0849
  568BOLB   C2B13618   9.142  21.771  23.656  0.0275 -0.1793  0.0348
  568BOLB   C3B13619   8.761  21.914  23.840 -0.1932  0.2391 -0.1376
  568BOLB   C4B13620   8.839  21.918  24.240  0.0590  0.2068  0.2287
  568BOLB   NC213621   9.621  20.874  27.513 -0.1071 -0.4372  0.1036
  568BOLB   PO213622   9.409  21.168  27.210 -0.1796 -0.2383  0.0792
  568BOLB   GL313623   9.517  21.068  26.795  0.1545  0.1573 -0.2739
  568BOLB   GL413624   9.867  21.128  26.744 -0.0286 -0.0937  0.3296
  568BOLB   C1C13625   9.394  21.039  26.457 -0.2658  0.1309  0.1781
  568BOLB   C2C13626   9.550  20.992  26.086 -0.3087 -0.2217 -0.1984
  568BOLB   C3C13627   9.775  20.688  25.780  0.1374  0.2257  0.1961
  568BOLB   C4C13628   9.836  20.753  25.261  0.2983 -0.0256  0.2438
  568BOLB   C1D13629  10.213  21.241  26.492  0.2479  0.0309 -0.0890
  568BOLB   C2D13630  10.279  21.620  26.178  0.0646 -0.1633 -0.1931
  568BOLB   C3D13631  10.458  22.035  26.207 -0.0466 -0.0958 -0.0973
  568BOLB   C4D13632  10.589  22.452  26.420  0.3782 -0.0117  0.0940
  569BOLB   NC113633  16.608  12.471  23.168  0.1003 -0.1214  0.0688
  569BOLB   PO113634  16.879  12.195  23.427  0.3894  0.0705  0.0656
  569BOLB   GL113635  17.092  11.641  23.530 -0.0452  0.0100 -0.0810
  569BOLB   GL213636  17.045  11.655  23.871 -0.0643 -0.3120 -0.1266
  569BOLB   C1A13637  17.242  11.202  23.871 -0.2520  0.1275  0.2460
  569BOLB   C2A13638  17.255  10.872  24.215  0.1416 -0.0134 -0.1990
  569BOLB   C3A13639  17.216  10.544  24.506  0.3771 -0.2076  0.2928
  569BOLB   C4A13640  17.164  10.147  24.566 -0.1583  0.1794 -0.1475
  569BOLB   C1B13641  16.985  11.463  24.190  0.2024 -0.0399  0.0779
  569BOLB   C2B13642  17.106  11.299  24.596 -0.0111 -0.2862 -0.1490
  569BOLB   C3B13643  17.401  10.952  24.775 -0.2080  0.1676 -0.2289
  569BOLB   C4B13644  17.681  10.522  24.678 -0.2426 -0.2087  0.0170
  569BOLB   NC213645  17.757   8.749  26.445 -0.1829 -0.0446 -0.0134
  569BOLB   PO213646  17.365   8.891  26.562 -0.1137  0.0690 -0.1512
  569BOLB   GL313647  17.174   9.133  26.181  0.2642 -0.2285  0.1916
  569BOLB   GL413648  16.837   9.195  26.161  0.1474 -0.1254 -0.0055
  569BOLB   C1C13649  17.137   9.083  25.700  0.1073 -0.0604  0.2538
  569BOLB   C2C13650  17.195   9.154  25.253  0.0991 -0.1329 -0.4066
  569BOLB   C3C13651  17.032   9.408  24.937  0.1006  0.0515  0.1783
  569BOLB   C4C13652  17.096   9.868  24.886  0.1465 -0.0410 -0.0185
  569BOLB   C1D13653  16.611   9.404  25.912  0.0339 -0.0023 -0.0193
  569BOLB   C2D13654  16.333   9.579  25.671 -0.0472 -0.4088 -0.1881
  569BOLB   C3D13655  16.395   9.981  25.575 -0.1908 -0.0217  0.0073
  569BOLB   C4D13656  16.452  10.084  25.223  0.1353 -0.0504  0.2526
  570BOLB   NC113657  10.396  13.906  23.545  0.1608 -0.1624  0.3454
  570BOLB   PO113658  10.776  13.807  23.673  0.0525 -0.2802 -0.1855
  570BOLB   GL113659  10.538  13.867  24.091  0.0869  0.5233  0.0853
  570BOLB   GL213660  10.291  13.685  24.012 -0.3596 -0.0869  0.1420
  570BOLB   C1A13661  10.421  13.997  24.502  0.0104  0.0016 -0.1255
  570BOLB   C2A13662  10.292  13.845  24.917  0.2809  0.1481  0.1357
  570BOLB   C3A13663  10.053  13.910  25.224 -0.4365 -0.1461 -0.0174
  570BOLB   C4A13664   9.770  13.743  25.598  0.0538  0.0371 -0.0843
  570BOLB   C1B13665  10.115  13.627  24.384  0.1104 -0.0790 -0.2211
  570BOLB   C2B13666   9.843  13.713  24.741 -0.2343 -0.0044  0.1692
  570BOLB   C3B13667   9.572  13.694  25.133 -0.0329 -0.3543 -0.3293
  570BOLB   C4B13668   9.422  13.371  25.368 -0.1467 -0.0449 -0.0709
  570BOLB   NC213669   9.001  13.855  28.108  0.0900  0.1898 -0.3560
  570BOLB   PO213670   8.651  14.106  27.876 -0.0700  0.1185 -0.1214
  570BOLB   GL313671   8.755  14.005  27.462  0.0058 -0.2080 -0.1642
  570BOLB   GL413672   8.385  13.820  27.318 -0.2401  0.2694  0.0065
  570BOLB   C1C13673   9.049  14.212  27.150 -0.4833 -0.0796  0.2132
  570BOLB   C2C13674   9.001  14.121  26.671  0.1721  0.0356  0.0345
  570BOLB   C3C13675   9.288  13.947  26.342 -0.0940 -0.1324 -0.0111
  570BOLB   C4C13676   9.550  13.815  26.040  0.0895  0.1011 -0.3474
  570BOLB   C1D13677   8.617  13.487  26.979  0.3633 -0.0768 -0.0347
  570BOLB   C2D13678   8.891  13.300  26.672  0.2427  0.1295  0.0464
  570BOLB   C3D13679   9.192  13.347  26.339  0.0980  0.0119  0.2917
  570BOLB   C4D13680   9.517  13.203  26.009 -0.1457 -0.3709  0.1523
  571BOLB   NC113681  20.476  17.808  23.609 -0.3606  0.0154  0.1859
  571BOLB   PO113682  20.090  18.093  23.677 -0.2261 -0.0445  0.0378
  571BOLB   GL113683  19.862  18.247  24.000 -0.2318  0.2322  0.1926
  571BOLB   GL213684  19.682  18.409  24.004  0.0545 -0.0304  0.2055
  571BOLB   C1A13685  19.923  18.365  24.511 -0.0218  0.0198  0.0149
  571BOLB   C2A13686  20.184  18.384  24.922 -0.0826 -0.0707 -0.2769
  571BOLB   C3A13687  20.099  18.500  25.438  0.1989  0.3029  0.0345
  571BOLB   C4A13688  20.044  18.822  25.643 -0.2359  0.1544 -0.3825
  571BOLB   C1B13689  19.653  18.697  24.252 -0.1616  0.2548  0.0910
  571BOLB   C2B13690  19.444  18.989  24.605  0.2729 -0.2238  0.1128
  571BOLB   C3B13691  19.760  19.344  24.729  0.0883  0.0291 -0.1174
  571BOLB   C4B13692  19.860  19.561  25.033  0.2938 -0.0172 -0.1979
  571BOLB   NC213693  20.573  20.068  27.885  0.3011  0.2301  0.0678
  571BOLB   PO213694  20.124  19.927  27.766 -0.3363 -0.0723  0.1530
  571BOLB   GL313695  19.955  19.708  27.545  0.2033  0.1730  0.0167
  571BOLB   GL413696  19.697  19.811  27.398 -0.3270  0.4463  0.0064
  571BOLB   C1C13697  20.032  19.485  27.164  0.1934 -0.1657  0.0112
  571BOLB   C2C13698  20.178  19.378  26.728  0.1958  0.0365 -0.0359
  571BOLB   C3C13699  20.290  19.302  26.410 -0.1319  0.0578  0.1929
  571BOLB   C4C13700  20.202  18.992  26.080  0.0238 -0.1376  0.1529
  571BOLB   C1D13701  19.445  20.029  27.123  0.0553  0.1471  0.0613
  571BOLB   C2D13702  19.364  20.011  26.752 -0.1369 -0.1003 -0.0673
  571BOLB   C3D13703  19.144  20.009  26.400  0.2814 -0.0516 -0.1373
  571BOLB   C4D13704  18.726  20.020  26.367  0.1330  0.1014 -0.2218
  572BOLB   NC113705  20.836  14.466  23.400 -0.0199 -0.0596  0.2170
  572BOLB   PO113706  20.963  14.069  23.508  0.0118 -0.1021  0.2965
  572BOLB   GL113707  21.221  13.750  23.735  0.0058  0.2852  0.1378
  572BOLB   GL213708  21.007  13.746  24.126 -0.0283 -0.0317  0.0191
  572BOLB   C1A13709  21.615  13.783  24.106 -0.0521  0.1851  0.1576
  572BOLB   C2A13710  21.618  13.791  24.571  0.1425 -0.0856  0.3117
  572BOLB   C3A13711  21.835  13.701  25.033 -0.0547  0.2540 -0.0022
  572BOLB   C4A13712  21.782  13.766  25.336  0.3625 -0.0157  0.0525
  572BOLB   C1B13713  21.118  13.810  24.516 -0.1335  0.1641  0.1759
  572BOLB   C2B13714  20.963  13.612  24.972  0.2146  0.0470  0.1422
  572BOLB   C3B13715  21.255  13.309  25.122  0.0251 -0.2425  0.0377
  572BOLB   C4B13716  21.660  13.275  25.068 -0.2141 -0.1714  0.0466
  572BOLB   NC213717  23.042  11.737  26.799  0.2903 -0.2452 -0.0629
  572BOLB   PO213718  22.516  11.875  26.764 -0.0276 -0.0555  0.0696
  572BOLB   GL313719  22.227  11.989  26.339  0.1151  0.1179  0.0880
  572BOLB   GL413720  21.911  12.039  26.319 -0.1229  0.0865 -0.1855
  572BOLB   C1C13721  22.198  12.431  26.141 -0.0604 -0.0662  0.1211
  572BOLB   C2C13722  22.327  12.702  25.847  0.1101 -0.0593  0.0131
  572BOLB   C3C13723  22.081  13.135  25.779  0.0017  0.0791 -0.2740
  572BOLB   C4C13724  22.018  13.469  25.575  0.0859 -0.1827  0.0123
  572BOLB   C1D13725  21.751  12.378  26.284 -0.1433 -0.3175  0.1621
  572BOLB   C2D13726  21.743  12.751  25.991 -0.1135 -0.0079  0.0079
  572BOLB   C3D13727  21.487  13.059  25.950 -0.1061  0.1830  0.4867
  572BOLB   C4D13728  21.477  13.430  25.617 -0.1057 -0.1486 -0.0657
  573BOLB   NC113729  19.031  24.147  20.527 -0.0710  0.2825 -0.2025
  573BOLB   PO113730  19.058  24.435  20.191 -0.0118  0.0589 -0.0772
  573BOLB   GL113731  18.840  24.682  20.411 -0.2695  0.1461 -0.5084
  573BOLB   GL213732  18.910  24.913  20.274 -0.5163 -0.2301 -0.1176
  573BOLB   C1A13733  18.953  24.762  20.808 -0.0324 -0.1681 -0.0085
  573BOLB   C2A13734  18.985  24.953  21.163 -0.0997 -0.0888  0.1066
  573BOLB   C3A13735  19.106  25.063  21.586 -0.1310 -0.3976  0.1560
  573BOLB   C4A13736  19.200  25.361  21.897 -0.0580 -0.0985  0.2485
  573BOLB   C1B13737  18.731  25.325  20.213 -0.3099 -0.0402  0.0922
  573BOLB   C2B13738  18.682  25.805  20.119 -0.1488 -0.0246  0.0467
  573BOLB   C3B13739  18.445  26.094  20.254  0.4837  0.0337  0.0748
  573BOLB   C4B13740  18.078  26.112  20.240  0.2564  0.0743 -0.0588
  573BOLB   NC213741  20.119  26.857  23.995  0.0766  0.0680 -0.2357
  573BOLB   PO213742  19.677  26.642  23.854  0.0011  0.0700 -0.3461
  573BOLB   GL313743  19.941  26.414  23.736 -0.1065  0.0292 -0.0412
  573BOLB   GL413744  19.751  26.156  23.941  0.3151  0.0125 -0.3635
  573BOLB   C1C13745  19.950  26.326  23.218 -0.1599  0.2363  0.0950
  573BOLB   C2C13746  19.770  26.221  22.799 -0.1289  0.0756 -0.0389
  573BOLB   C3C13747  19.478  25.910  22.575  0.1252 -0.1408 -0.1343
  573BOLB   C4C13748  19.478  25.595  22.310 -0.0121 -0.2962  0.1511
  573BOLB   C1D13749  19.932  25.897  23.505 -0.2132 -0.0687  0.2548
  573BOLB   C2D13750  20.278  25.850  23.297 -0.1724 -0.0955 -0.0689
  573BOLB   C3D13751  20.772  25.861  23.129  0.0103 -0.0035  0.0480
  573BOLB   C4D13752  21.067  25.569  22.970  0.4367 -0.0653 -0.3395
  574BOLB   NC113753  12.205  16.553  24.452  0.2723 -0.1984 -0.0079
  574BOLB   PO113754  12.655  16.517  24.500 -0.3345  0.3214 -0.2199
  574BOLB   GL113755  12.630  16.487  24.934  0.2612 -0.0182  0.0483
  574BOLB   GL213756  12.421  16.520  24.966 -0.1510  0.0957 -0.2455
  574BOLB   C1A13757  12.890  16.281  25.329 -0.1261  0.0569 -0.0606
  574BOLB   C2A13758  12.760  16.243  25.767 -0.5646 -0.1935  0.1449
  574BOLB   C3A13759  12.876  16.158  26.230  0.3368 -0.1856  0.0094
  574BOLB   C4A13760  12.792  16.405  26.659  0.0795 -0.2457  0.1832
  574BOLB   C1B13761  12.534  16.679  25.384 -0.1321  0.1709  0.0302
  574BOLB   C2B13762  12.596  16.706  25.831  0.2250  0.1075  0.1021
  574BOLB   C3B13763  12.637  16.686  26.283 -0.2981 -0.0121 -0.0487
  574BOLB   C4B13764  12.673  16.945  26.587 -0.0882 -0.4700  0.3524
  574BOLB   NC213765  12.288  16.079  28.842  0.1155  0.0062  0.2335
  574BOLB   PO213766  11.927  16.138  28.804  0.3592 -0.0493 -0.0470
  574BOLB   GL313767  11.816  16.408  28.399 -0.0784 -0.0464  0.1177
  574BOLB   GL413768  11.770  16.715  28.358  0.1217 -0.0065 -0.2303
  574BOLB   C1C13769  12.029  16.274  28.040  0.0517  0.2394 -0.2965
  574BOLB   C2C13770  12.359  16.099  27.790  0.1330 -0.2614  0.0833
  574BOLB   C3C13771  12.700  16.125  27.477  0.0481 -0.0080 -0.1345
  574BOLB   C4C13772  12.943  16.259  27.103 -0.0520 -0.3413 -0.1121
  574BOLB   C1D13773  12.065  16.719  27.920  0.0327 -0.3527 -0.1436
  574BOLB   C2D13774  12.236  16.979  27.622  0.0548 -0.0745  0.2121
  574BOLB   C3D13775  12.211  16.959  27.234 -0.1889 -0.0331  0.3858
  574BOLB   C4D13776  12.281  17.146  26.807 -0.2457 -0.1477  0.0863
  575BOLB   NC113777  16.646  19.276  23.901  0.2403 -0.2638  0.0352
  575BOLB   PO113778  16.325  19.269  24.259  0.2384  0.1926 -0.1043
  575BOLB   GL113779  16.562  19.370  24.568  0.0481  0.0091  0.1585
  575BOLB   GL213780  16.877  19.538  24.474  0.1850  0.1354 -0.3658
  575BOLB   C1A13781  16.378  19.619  24.962 -0.0828  0.1978 -0.2570
  575BOLB   C2A13782  16.472  19.868  25.287  0.0872  0.1676  0.0443
  575BOLB   C3A13783  16.422  20.081  25.689 -0.0454  0.0748  0.2780
  575BOLB   C4A13784  16.577  19.954  26.040  0.1856  0.3343 -0.0804
  575BOLB   C1B13785  16.933  19.688  24.875  0.0362  0.2491 -0.1449
  575BOLB   C2B13786  16.992  19.885  25.239 -0.1481 -0.1110  0.1046
  575BOLB   C3B13787  16.884  19.991  25.640  0.1510 -0.3781  0.3049
  575BOLB   C4B13788  16.878  20.279  25.921 -0.1264 -0.0252 -0.0890
  575BOLB   NC213789  16.912  20.963  28.142 -0.0006  0.0585 -0.1440
  575BOLB   PO213790  16.819  20.596  28.366  0.0919 -0.2452  0.4061
  575BOLB   GL313791  16.835  20.261  28.046  0.3104  0.1967  0.1465
  575BOLB   GL413792  17.165  20.094  28.077  0.3704  0.3139  0.1845
  575BOLB   C1C13793  16.597  20.020  27.694  0.0286  0.2249 -0.2584
  575BOLB   C2C13794  16.600  20.197  27.292 -0.0695  0.0938 -0.1310
  575BOLB   C3C13795  16.550  19.925  26.906 -0.0602 -0.0717 -0.0842
  575BOLB   C4C13796  16.680  19.892  26.390 -0.1741 -0.1291  0.3119
  575BOLB   C1D13797  17.080  20.086  27.561 -0.0093  0.2120  0.2130
  575BOLB   C2D13798  17.060  20.165  27.096 -0.1302 -0.1642 -0.1750
  575BOLB   C3D13799  17.045  20.030  26.693  0.2272 -0.2968  0.0210
  575BOLB   C4D13800  17.188  19.989  26.263  0.0581 -0.1550 -0.0024
  576BOLB   NC113801  17.553  23.679  21.418  0.0089 -0.1102  0.0620
  576BOLB   PO113802  17.137  23.830  21.225 -0.0676 -0.2406 -0.1075
  576BOLB   GL113803  17.178  24.090  21.587 -0.0368 -0.0697  0.0711
  576BOLB   GL213804  17.373  24.309  21.670 -0.3344 -0.0001 -0.1794
  576BOLB   C1A13805  16.980  24.313  21.934 -0.3638  0.0800  0.0457
  576BOLB   C2A13806  16.778  24.556  22.315  0.0016  0.0200 -0.0934
  576BOLB   C3A13807  16.718  24.826  22.717  0.4099  0.1155  0.5454
  576BOLB   C4A13808  16.634  25.148  22.957 -0.0112 -0.1506 -0.2033
  576BOLB   C1B13809  17.306  24.667  21.965 -0.1823  0.0649 -0.2739
  576BOLB   C2B13810  17.442  24.924  22.281  0.0246  0.0410 -0.1815
  576BOLB   C3B13811  17.074  25.089  22.462  0.1419 -0.0591  0.0330
  576BOLB   C4B13812  17.037  25.362  22.827 -0.2862 -0.1945 -0.0075
  576BOLB   NC213813  16.495  25.163  25.658 -0.2116 -0.0146 -0.0874
  576BOLB   PO213814  16.622  25.535  25.424 -0.0097 -0.0227 -0.1925
  576BOLB   GL313815  16.539  25.750  25.011 -0.0721  0.0627  0.1730
  576BOLB   GL413816  16.230  25.763  25.024 -0.2527  0.0143 -0.0465
  576BOLB   C1C13817  16.445  25.715  24.524  0.1050 -0.0973  0.0076
  576BOLB   C2C13818  16.375  25.550  24.175  0.1070  0.0883 -0.3248
  576BOLB   C3C13819  16.326  25.372  23.849  0.1329 -0.0540 -0.0614
  576BOLB   C4C13820  16.629  25.308  23.402  0.0852 -0.0995  0.2096
  576BOLB   C1D13821  16.058  25.437  24.669  0.0052 -0.2381 -0.1131
  576BOLB   C2D13822  15.794  25.034  24.550  0.0543 -0.0314  0.2499
  576BOLB   C3D13823  15.843  24.724  24.280 -0.2091 -0.0713 -0.1352
  576BOLB   C4D13824  15.767  24.583  23.957  0.1045  0.2501  0.2059
  577BOLB   NC113825  18.298  14.456  24.359 -0.0956  0.3441 -0.1675
  577BOLB   PO113826  18.668  14.662  24.351 -0.2104 -0.1517  0.0196
  577BOLB   GL113827  18.857  14.756  24.680  0.3376  0.3860  0.1811
  577BOLB   GL213828  18.579  14.617  24.837  0.2317 -0.2028 -0.0317
  577BOLB   C1A13829  18.995  14.843  25.201 -0.1050  0.0295  0.1434
  577BOLB   C2A13830  19.073  14.827  25.704 -0.2084  0.0053  0.1108
  577BOLB   C3A13831  19.291  14.844  26.082 -0.1378  0.3526  0.2780
  577BOLB   C4A13832  19.339  14.443  26.379 -0.0523  0.0806 -0.2306
  577BOLB   C1B13833  18.618  14.281  25.112 -0.2188 -0.0362  0.0584
  577BOLB   C2B13834  18.628  13.934  25.417 -0.3508  0.1485  0.2869
  577BOLB   C3B13835  18.538  13.501  25.525  0.2081  0.1725 -0.1385
  577BOLB   C4B13836  18.803  13.273  25.815  0.0931  0.2553  0.2653
  577BOLB   NC213837  19.318  12.091  28.203 -0.1054  0.2708  0.3890
  577BOLB   PO213838  19.404  12.440  27.965  0.1215  0.1505 -0.0335
  577BOLB   GL313839  19.433  12.475  27.536 -0.0263 -0.1442 -0.1663
  577BOLB   GL413840  19.331  12.282  27.283 -0.3425  0.0764  0.0012
  577BOLB   C1C13841  19.479  12.895  27.252 -0.3282 -0.1485  0.0196
  577BOLB   C2C13842  19.512  13.350  27.164 -0.0480 -0.0173  0.0418
  577BOLB   C3C13843  19.508  13.666  26.920 -0.4101 -0.2305 -0.3944
  577BOLB   C4C13844  19.322  13.939  26.581  0.0908 -0.1987  0.0421
  577BOLB   C1D13845  19.189  12.620  26.979  0.1352  0.0959 -0.0045
  577BOLB   C2D13846  19.170  12.695  26.509 -0.0100 -0.1217 -0.4232
  577BOLB   C3D13847  19.035  12.683  26.125  0.3402 -0.2936 -0.3681
  577BOLB   C4D13848  19.189  12.705  25.784  0.1322  0.1660 -0.0130
  578BOLB   NC113849  16.603  18.317  24.635 -0.3631 -0.5421  0.1017
  578BOLB   PO113850  16.661  17.983  24.509 -0.1705  0.2325  0.1000
  578BOLB   GL113851  16.934  18.015  24.860 -0.2738 -0.3522 -0.1367
  578BOLB   GL213852  16.977  17.741  25.131  0.1494 -0.1512 -0.0752
  578BOLB   C1A13853  17.276  18.164  25.242 -0.1304  0.1620  0.0872
  578BOLB   C2A13854  17.413  18.368  25.404 -0.0117 -0.3531  0.1232
  578BOLB   C3A13855  17.308  18.536  25.737  0.1314  0.2768 -0.1378
  578BOLB   C4A13856  17.188  18.679  26.166 -0.0803  0.1286  0.0006
  578BOLB   C1B13857  16.906  17.606  25.599 -0.0962 -0.1462 -0.1347
  578BOLB   C2B13858  16.789  17.606  26.072 -0.0060 -0.0640 -0.1047
  578BOLB   C3B13859  16.437  17.520  26.380  0.1519  0.2904 -0.0690
  578BOLB   C4B13860  16.374  17.534  26.813 -0.2684 -0.0023  0.1068
  578BOLB   NC213861  17.635  18.065  28.587 -0.0492 -0.0545 -0.2485
  578BOLB   PO213862  17.605  18.471  28.569 -0.1497 -0.0092 -0.1185
  578BOLB   GL313863  17.634  18.355  28.188  0.3442 -0.0667  0.0106
  578BOLB   GL413864  17.975  18.218  28.190  0.0846  0.2097  0.0231
  578BOLB   C1C13865  17.300  18.277  27.924 -0.2712  0.0864  0.1829
  578BOLB   C2C13866  17.242  18.328  27.489 -0.1843 -0.0616  0.1800
  578BOLB   C3C13867  17.372  18.431  27.063 -0.1136  0.2691  0.2856
  578BOLB   C4C13868  17.310  18.531  26.550 -0.1274  0.0097 -0.2954
  578BOLB   C1D13869  17.842  17.860  27.980 -0.0325 -0.2424  0.0432
  578BOLB   C2D13870  17.444  17.792  27.713 -0.0246 -0.2525  0.0315
  578BOLB   C3D13871  16.996  17.854  27.565  0.2355 -0.1462  0.1942
  578BOLB   C4D13872  16.811  18.134  27.195  0.0228 -0.3586 -0.1037
  579BOLB   NC113873  12.105  23.511  21.949 -0.2377  0.1385 -0.3731
  579BOLB   PO113874  11.790  23.642  22.129  0.2964 -0.0221  0.3557
  579BOLB   GL113875  11.797  24.135  22.357 -0.3834 -0.1240 -0.0776
  579BOLB   GL213876  12.163  24.261  22.303  0.1144  0.2666 -0.0264
  579BOLB   C1A13877  11.618  24.327  22.765  0.0297  0.1494  0.0980
  579BOLB   C2A13878  11.558  24.581  23.073  0.1653  0.2194  0.0887
  579BOLB   C3A13879  11.675  24.826  23.253 -0.0377  0.0156  0.0339
  579BOLB   C4A13880  11.959  24.950  23.535 -0.2581  0.0174 -0.2363
  579BOLB   C1B13881  12.323  24.538  22.687 -0.2632  0.0930 -0.0887
  579BOLB   C2B13882  12.036  24.443  23.027 -0.2531 -0.0452 -0.1874
  579BOLB   C3B13883  11.779  24.220  23.314 -0.2342  0.1543 -0.3515
  579BOLB   C4B13884  11.696  24.491  23.691 -0.0583  0.0963 -0.0044
  579BOLB   NC213885  13.451  26.618  24.852  0.1901  0.4514 -0.0835
  579BOLB   PO213886  13.423  26.303  25.250 -0.0124 -0.2947  0.0674
  579BOLB   GL313887  13.101  26.215  24.776 -0.1796  0.0452 -0.4513
  579BOLB   GL413888  12.907  26.458  24.641  0.0552  0.1877 -0.3123
  579BOLB   C1C13889  12.872  25.831  24.572 -0.1381  0.0201 -0.2811
  579BOLB   C2C13890  12.528  25.753  24.330  0.0846  0.1428 -0.4213
  579BOLB   C3C13891  12.211  25.531  24.064  0.0010  0.3376 -0.0178
  579BOLB   C4C13892  12.084  25.203  23.839 -0.2967  0.1694 -0.0245
  579BOLB   C1D13893  12.994  26.335  24.242  0.1406  0.0712 -0.0662
  579BOLB   C2D13894  12.734  26.199  23.945 -0.0875 -0.1396  0.0222
  579BOLB   C3D13895  12.681  25.888  23.602  0.0899  0.0442 -0.0715
  579BOLB   C4D13896  12.633  25.611  23.285 -0.0797 -0.0460 -0.0883
  580BOLB   NC113897  10.728  21.831  22.767  0.1600  0.1679 -0.0392
  580BOLB   PO113898  11.150  21.626  22.807  0.2423  0.0036  0.2064
  580BOLB   GL113899  10.959  21.689  23.266 -0.0513  0.1701  0.2868
  580BOLB   GL213900  11.069  21.862  23.416  0.0333  0.1348 -0.1213
  580BOLB   C1A13901  10.682  21.650  23.639  0.0286 -0.1572  0.3514
  580BOLB   C2A13902  10.463  21.851  23.953 -0.0563  0.2615 -0.2229
  580BOLB   C3A13903  10.273  21.910  24.324  0.2258 -0.1746 -0.1317
  580BOLB   C4A13904  10.212  21.998  24.760 -0.0419  0.0818  0.1390
  580BOLB   C1B13905  10.930  22.034  23.863  0.1303 -0.2009  0.3346
  580BOLB   C2B13906  11.021  22.250  24.226 -0.2024 -0.4352 -0.1833
  580BOLB   C3B13907  10.915  22.546  24.567  0.1375  0.0837 -0.2442
  580BOLB   C4B13908  10.997  22.620  24.990  0.1883 -0.0242 -0.0376
  580BOLB   NC213909  10.164  23.001  26.837  0.0909 -0.0426 -0.0776
  580BOLB   PO213910   9.704  22.915  26.787  0.3074 -0.2810  0.2285
  580BOLB   GL313911   9.905  22.813  26.442  0.3651 -0.0092  0.0834
  580BOLB   GL413912  10.124  22.603  26.445  0.4484  0.0607 -0.0027
  580BOLB   C1C13913   9.917  22.948  25.949  0.2123 -0.1209 -0.0435
  580BOLB   C2C13914   9.994  22.627  25.637 -0.1283 -0.4253 -0.1047
  580BOLB   C3C13915  10.212  22.216  25.632  0.0226 -0.1123  0.2308
  580BOLB   C4C13916  10.284  22.004  25.214 -0.1765  0.0308 -0.3441
  580BOLB   C1D13917  10.373  22.667  25.985  0.2359  0.0361  0.1406
  580BOLB   C2D13918  10.669  22.483  25.803 -0.2781  0.2240 -0.1493
  580BOLB   C3D13919  10.829  22.087  25.863 -0.3593  0.1083 -0.2179
  580BOLB   C4D13920  10.662  21.710  25.891  0.0040 -0.3112 -0.0377
  581BOLB   NC113921  17.983  16.284  24.443 -0.0744 -0.1518 -0.1152
  581BOLB   PO113922  17.926  16.164  24.875  0.0578 -0.0508 -0.1459
  581BOLB   GL113923  18.155  15.921  25.189 -0.4180 -0.2306 -0.3589
  581BOLB   GL213924  17.879  15.764  25.245 -0.0476  0.1456 -0.0478
  581BOLB   C1A13925  18.331  16.031  25.510 -0.0307  0.1984  0.1808
  581BOLB   C2A13926  18.698  16.162  25.940  0.2136  0.1915  0.1279
  581BOLB   C3A13927  18.815  16.013  26.285  0.2255  0.0090 -0.1150
  581BOLB   C4A13928  19.058  16.172  26.549  0.1264  0.0961  0.0033
  581BOLB   C1B13929  17.840  15.616  25.755  0.5169  0.0378  0.2809
  581BOLB   C2B13930  17.875  15.584  26.205 -0.2280  0.0293  0.2324
  581BOLB   C3B13931  17.924  15.343  26.542  0.0068  0.3210 -0.0788
  581BOLB   C4B13932  18.066  15.249  26.897 -0.0026 -0.2373 -0.0498
  581BOLB   NC213933  19.318  16.681  28.564  0.1150 -0.1476  0.0646
  581BOLB   PO213934  19.467  17.136  28.632  0.1147  0.2059 -0.3015
  581BOLB   GL313935  19.467  16.985  28.147  0.0529 -0.1617  0.1369
  581BOLB   GL413936  19.583  17.219  27.919  0.1444  0.2009 -0.0951
  581BOLB   C1C13937  19.656  16.773  27.776  0.1905  0.0583  0.2845
  581BOLB   C2C13938  19.838  16.367  27.526 -0.0850 -0.2468  0.1843
  581BOLB   C3C13939  19.547  16.194  27.253 -0.1634  0.2211  0.1228
  581BOLB   C4C13940  19.328  16.091  26.846 -0.0280  0.0919 -0.2694
  581BOLB   C1D13941  19.356  17.186  27.539 -0.4826  0.0348  0.3208
  581BOLB   C2D13942  19.288  16.880  27.251  0.1661  0.1867  0.1267
  581BOLB   C3D13943  18.992  16.654  26.995 -0.1618  0.1187 -0.1078
  581BOLB   C4D13944  18.641  16.433  26.773 -0.0313  0.2347 -0.2552
  582BOLB   NC113945   9.118  21.798  22.264 -0.2158  0.0678  0.2904
  582BOLB   PO113946   9.408  21.723  22.543  0.0082 -0.0145 -0.0072
  582BOLB   GL113947   9.380  21.963  22.788 -0.0209  0.2793  0.0626
  582BOLB   GL213948   9.682  21.996  22.973 -0.1673  0.1831 -0.0452
  582BOLB   C1A13949   9.195  22.017  23.141 -0.0537  0.2070  0.2456
  582BOLB   C2A13950   8.797  22.014  23.347 -0.2058  0.4813  0.0122
  582BOLB   C3A13951   8.296  21.815  23.660 -0.0692  0.0520  0.1031
  582BOLB   C4A13952   7.881  21.637  23.828  0.3387 -0.1435  0.0322
  582BOLB   C1B13953   9.598  22.169  23.372 -0.0657 -0.0466 -0.2880
  582BOLB   C2B13954   9.630  22.013  23.742  0.2666  0.2927 -0.0414
  582BOLB   C3B13955   9.785  21.999  24.195 -0.0581 -0.1232  0.1595
  582BOLB   C4B13956   9.892  22.284  24.559  0.2727  0.2898  0.1318
  582BOLB   NC213957   7.728  22.591  25.632  0.0756 -0.0869  0.1259
  582BOLB   PO213958   7.815  22.453  25.993 -0.3284 -0.1785 -0.1896
  582BOLB   GL313959   7.974  22.146  25.692  0.2466  0.2728  0.0229
  582BOLB   GL413960   8.077  21.807  25.835  0.1603 -0.1211  0.0578
  582BOLB   C1C13961   7.746  22.035  25.383 -0.2397  0.0473 -0.1574
  582BOLB   C2C13962   7.912  21.920  25.077  0.1818 -0.1850  0.0560
  582BOLB   C3C13963   7.980  21.808  24.673 -0.1262  0.0137 -0.3330
  582BOLB   C4C13964   7.743  21.636  24.202 -0.1815  0.1394  0.2126
  582BOLB   C1D13965   8.534  21.856  25.847  0.2146  0.1052  0.0941
  582BOLB   C2D13966   9.040  21.652  25.882  0.2503 -0.1952  0.0516
  582BOLB   C3D13967   9.191  21.636  25.454 -0.1178  0.0764  0.2277
  582BOLB   C4D13968   9.374  21.622  25.025  0.3294  0.0131 -0.0139
  583BOLB   NC113969  11.403  18.962  24.059  0.0629 -0.1018  0.2370
  583BOLB   PO113970  11.120  18.602  23.728  0.0117 -0.0834  0.2321
  583BOLB   GL113971  10.832  18.596  24.155  0.1258 -0.1465 -0.0667
  583BOLB   GL213972  10.592  18.952  24.201 -0.3179 -0.0591 -0.0924
  583BOLB   C1A13973  10.743  18.561  24.603 -0.0118  0.2544 -0.1101
  583BOLB   C2A13974  10.540  18.579  25.007  0.1577 -0.1626 -0.2689
  583BOLB   C3A13975  10.615  18.640  25.416 -0.3538 -0.1098  0.1857
  583BOLB   C4A13976  10.543  18.836  25.755 -0.2146  0.0693 -0.2030
  583BOLB   C1B13977  10.503  18.986  24.708 -0.1914 -0.1220  0.2058
  583BOLB   C2B13978  10.273  19.049  24.828 -0.1874 -0.2519  0.0798
  583BOLB   C3B13979  10.041  19.128  25.259  0.0764  0.0999 -0.1033
  583BOLB   C4B13980   9.978  19.053  25.669  0.2109  0.1606 -0.2946
  583BOLB   NC213981  10.624  19.957  28.058 -0.0817  0.1452  0.1373
  583BOLB   PO213982  10.906  19.823  27.857 -0.0494  0.0697 -0.1226
  583BOLB   GL313983  10.975  19.628  27.415  0.2121  0.3320 -0.0533
  583BOLB   GL413984  10.924  19.772  27.099  0.0119 -0.1003  0.0810
  583BOLB   C1C13985  10.544  19.421  27.310  0.1504  0.0271 -0.1526
  583BOLB   C2C13986  10.283  19.192  26.968 -0.0436  0.4393  0.1526
  583BOLB   C3C13987  10.262  19.193  26.525  0.0891 -0.0095  0.1016
  583BOLB   C4C13988  10.317  19.034  26.162  0.0173  0.2774 -0.0656
  583BOLB   C1D13989  11.408  19.565  26.958  0.2278  0.3843 -0.0800
  583BOLB   C2D13990  11.695  19.661  26.572 -0.4515 -0.1538  0.1913
  583BOLB   C3D13991  11.897  19.753  26.139  0.1782 -0.3812  0.0538
  583BOLB   C4D13992  11.872  19.844  25.620  0.0997 -0.0022  0.2083
  584BOLB   NC113993  20.244  24.421  20.223  0.0435  0.0696  0.3038
  584BOLB   PO113994  20.683  24.372  20.268  0.2445  0.0714 -0.2601
  584BOLB   GL113995  20.508  24.362  20.659  0.0762 -0.2327 -0.1675
  584BOLB   GL213996  20.637  24.185  20.931  0.3078 -0.0099 -0.1867
  584BOLB   C1A13997  20.136  24.464  20.984  0.0389 -0.0924 -0.6608
  584BOLB   C2A13998  20.018  24.626  21.413 -0.1602  0.2908  0.1775
  584BOLB   C3A13999  19.800  24.681  21.689  0.0884 -0.1867  0.0429
  584BOLB   C4A14000  19.665  25.065  21.806 -0.0116 -0.1817 -0.1351
  584BOLB   C1B14001  20.659  24.693  21.068 -0.0317 -0.0815  0.1795
  584BOLB   C2B14002  20.805  25.101  21.052  0.1706 -0.0190  0.3070
  584BOLB   C3B14003  21.057  25.291  21.087  0.0851 -0.0920 -0.0108
  584BOLB   C4B14004  21.163  25.562  21.328  0.1649  0.1741  0.1808
  584BOLB   NC214005  20.512  27.017  23.513 -0.1858  0.1734 -0.5360
  584BOLB   PO214006  20.522  26.595  23.775 -0.1162  0.1927  0.4092
  584BOLB   GL314007  20.410  26.383  23.517  0.1288 -0.1264 -0.6802
  584BOLB   GL414008  20.345  26.121  23.734 -0.0808 -0.1447  0.2875
  584BOLB   C1C14009  20.505  26.316  23.087  0.0735 -0.0413 -0.1954
  584BOLB   C2C14010  20.500  25.969  22.723 -0.0558  0.2644 -0.0707
  584BOLB   C3C14011  20.031  25.830  22.507  0.2433  0.2000  0.0962
  584BOLB   C4C14012  19.877  25.458  22.097  0.2567  0.2920 -0.0057
  584BOLB   C1D14013  20.675  25.759  23.621 -0.2695 -0.0332 -0.0456
  584BOLB   C2D14014  20.735  25.287  23.309  0.0125  0.5046  0.2502
  584BOLB   C3D14015  20.488  24.946  23.006  0.2627  0.2383 -0.0111
  584BOLB   C4D14016  20.412  24.489  22.968 -0.0592  0.3052 -0.0996
  585BOLB   NC114017  22.175  13.391  22.309 -0.1998 -0.1086 -0.0883
  585BOLB   PO114018  22.544  13.583  22.598 -0.0566 -0.0692  0.0706
  585BOLB   GL114019  22.662  13.277  22.940 -0.1502 -0.0192  0.2231
  585BOLB   GL214020  22.604  13.483  23.226  0.0413 -0.4854  0.1395
  585BOLB   C1A14021  22.677  13.014  23.301  0.2790 -0.1321  0.2494
  585BOLB   C2A14022  23.013  13.018  23.577 -0.2806  0.0157 -0.0310
  585BOLB   C3A14023  23.260  12.739  23.612 -0.0609  0.5065 -0.0287
  585BOLB   C4A14024  23.423  12.484  23.884  0.0222  0.2703 -0.1329
  585BOLB   C1B14025  22.777  13.483  23.530 -0.0899  0.0050  0.3578
  585BOLB   C2B14026  22.951  13.345  23.919 -0.1172 -0.0627 -0.1273
  585BOLB   C3B14027  22.837  13.219  24.319  0.1285  0.0551  0.0768
  585BOLB   C4B14028  22.683  13.233  24.680 -0.2787  0.0333 -0.0935
  585BOLB   NC214029  24.374  10.436  24.888 -0.1756 -0.0097 -0.1171
  585BOLB   PO214030  24.373  10.699  25.176 -0.2015 -0.3889  0.0377
  585BOLB   GL314031  24.054  11.032  25.199 -0.1181  0.2122  0.0794
  585BOLB   GL414032  24.266  11.114  24.875  0.2186  0.1540  0.0608
  585BOLB   C1C14033  23.848  11.462  25.061 -0.0862 -0.1795  0.2034
  585BOLB   C2C14034  23.624  11.838  24.968  0.3257 -0.0914  0.1092
  585BOLB   C3C14035  23.459  12.054  24.649 -0.1176 -0.0653 -0.1596
  585BOLB   C4C14036  23.504  12.325  24.302 -0.1681 -0.2513 -0.3304
  585BOLB   C1D14037  24.231  11.212  24.420 -0.1604  0.1324  0.0255
  585BOLB   C2D14038  24.114  11.187  23.986 -0.0055 -0.1372  0.0161
  585BOLB   C3D14039  23.801  11.141  23.661 -0.1511 -0.1643  0.2443
  585BOLB   C4D14040  23.738  10.806  23.363  0.0333  0.5261 -0.1816
  586BOLB   NC114041  12.244  21.790  23.108  0.2446 -0.1214 -0.2046
  586BOLB   PO114042  12.355  22.262  23.132 -0.3178  0.1834 -0.0788
  586BOLB   GL114043  12.361  22.276  23.523 -0.0471  0.0057 -0.2559
  586BOLB   GL214044  12.243  21.952  23.565  0.0386 -0.0667  0.0811
  586BOLB   C1A14045  12.292  22.407  23.873  0.1233 -0.2744  0.0863
  586BOLB   C2A14046  12.351  22.686  24.269  0.1905 -0.2179 -0.1792
  586BOLB   C3A14047  12.278  22.822  24.605 -0.6316 -0.0431 -0.1542
  586BOLB   C4A14048  12.426  22.879  24.967  0.3147  0.1469  0.0839
  586BOLB   C1B14049  12.139  21.950  24.008  0.0248  0.0946 -0.0475
  586BOLB   C2B14050  11.937  22.017  24.449 -0.0684  0.1217  0.1880
  586BOLB   C3B14051  11.519  22.141  24.557  0.1571 -0.2345 -0.0463
  586BOLB   C4B14052  11.245  22.239  24.801  0.1005 -0.2469  0.0529
  586BOLB   NC214053  13.246  24.209  26.944  0.4483  0.3510  0.0842
  586BOLB   PO214054  13.413  23.796  27.083  0.0448  0.3067 -0.2050
  586BOLB   GL314055  13.238  23.650  26.641  0.2863  0.1202  0.0410
  586BOLB   GL414056  13.426  23.602  26.340 -0.1874 -0.0383  0.1152
  586BOLB   C1C14057  12.926  23.555  26.277  0.1262 -0.0000 -0.1986
  586BOLB   C2C14058  12.656  23.236  26.170 -0.0551  0.0756 -0.1187
  586BOLB   C3C14059  12.638  23.141  25.739  0.1128 -0.0823 -0.1733
  586BOLB   C4C14060  12.620  22.983  25.271  0.1392  0.3610  0.1707
  586BOLB   C1D14061  13.278  23.206  25.986  0.0654 -0.0115 -0.1540
  586BOLB   C2D14062  13.270  23.052  25.751 -0.0633 -0.2842 -0.0200
  586BOLB   C3D14063  13.335  22.656  25.722 -0.0868 -0.1134  0.2407
  586BOLB   C4D14064  13.682  22.392  25.656  0.3001  0.4672 -0.4294
  587BOLB   NC114065   8.275  15.400  23.054 -0.1194 -0.1422  0.0988
  587BOLB   PO114066   8.567  15.740  23.130 -0.0957 -0.2700 -0.4185
  587BOLB   GL114067   8.886  15.740  23.459 -0.1584 -0.2471 -0.2150
  587BOLB   GL214068   8.897  15.518  23.677 -0.1091 -0.1980  0.1348
  587BOLB   C1A14069   9.062  15.940  23.816 -0.0872  0.0014 -0.0057
  587BOLB   C2A14070   8.989  15.916  24.231 -0.1362 -0.0587 -0.1282
  587BOLB   C3A14071   8.758  15.899  24.610  0.0082 -0.0590  0.3125
  587BOLB   C4A14072   8.690  15.764  25.012 -0.0225 -0.2330 -0.0152
  587BOLB   C1B14073   9.049  15.447  24.103 -0.0997 -0.2072  0.0950
  587BOLB   C2B14074   9.001  15.487  24.461  0.2645  0.3150 -0.0514
  587BOLB   C3B14075   9.183  15.461  24.888  0.1241  0.2361 -0.1759
  587BOLB   C4B14076   9.061  15.347  25.265  0.3200 -0.0995 -0.0759
  587BOLB   NC214077   7.340  15.237  26.953  0.0252  0.3179 -0.2473
  587BOLB   PO214078   7.561  14.871  26.946  0.0988  0.3625  0.0370
  587BOLB   GL314079   7.764  14.960  26.629 -0.0245  0.1859  0.2146
  587BOLB   GL414080   8.091  15.012  26.656  0.3177 -0.1166 -0.0619
  587BOLB   C1C14081   7.983  15.063  26.201 -0.1720  0.0683 -0.1062
  587BOLB   C2C14082   8.229  15.143  25.969 -0.0989 -0.0968 -0.3538
  587BOLB   C3C14083   8.575  15.393  25.748  0.1959  0.1437 -0.0955
  587BOLB   C4C14084   8.622  15.716  25.456  0.0190  0.1358 -0.0498
  587BOLB   C1D14085   8.240  14.686  26.436 -0.2072 -0.0838  0.1325
  587BOLB   C2D14086   8.313  14.609  26.077 -0.0311 -0.1895  0.2676
  587BOLB   C3D14087   8.447  14.711  25.770  0.0028 -0.1344 -0.0534
  587BOLB   C4D14088   8.463  14.986  25.427  0.3252 -0.0285  0.1576
  588BOLB   NC114089  11.970   9.249  22.494 -0.1173  0.2550  0.0158
  588BOLB   PO114090  12.245   9.285  22.997 -0.3500  0.1462  0.0625
  588BOLB   GL114091  12.375   9.231  23.464  0.0188 -0.2838 -0.0804
  588BOLB   GL214092  12.607   9.002  23.624  0.3915 -0.3319  0.0839
  588BOLB   C1A14093  12.326   9.407  23.885  0.0023  0.2650 -0.3417
  588BOLB   C2A14094  12.162   9.359  24.281  0.1476 -0.0002  0.1891
  588BOLB   C3A14095  12.107   9.310  24.699 -0.2079  0.1171 -0.0669
  588BOLB   C4A14096  12.337   9.076  24.962 -0.0117 -0.0771 -0.1416
  588BOLB   C1B14097  12.732   9.070  23.998  0.0869 -0.1172 -0.0694
  588BOLB   C2B14098  12.861   9.249  24.424 -0.0801 -0.0575  0.0550
  588BOLB   C3B14099  12.929   9.228  24.785 -0.4109  0.0934  0.0558
  588BOLB   C4B14100  13.224   8.981  24.939  0.0353  0.0392  0.4451
  588BOLB   NC214101  12.273   8.046  27.029 -0.2124 -0.0820  0.2320
  588BOLB   PO214102  12.571   7.926  26.678  0.1912  0.0306 -0.0251
  588BOLB   GL314103  12.971   8.115  26.575  0.1916 -0.2912 -0.2983
  588BOLB   GL414104  13.186   7.941  26.389  0.3099  0.1770 -0.1444
  588BOLB   C1C14105  12.847   8.428  26.321 -0.0443 -0.1943  0.1316
  588BOLB   C2C14106  12.772   8.662  26.024 -0.0079 -0.0328  0.0563
  588BOLB   C3C14107  12.621   8.627  25.674 -0.3460 -0.0175 -0.0062
  588BOLB   C4C14108  12.406   8.827  25.367  0.1050  0.1544 -0.0314
  588BOLB   C1D14109  13.035   8.055  26.072  0.2497  0.2721  0.1092
  588BOLB   C2D14110  12.838   8.188  25.706  0.0044 -0.1256 -0.3519
  588BOLB   C3D14111  12.479   8.195  25.463  0.2601  0.0983 -0.2522
  588BOLB   C4D14112  12.383   8.353  25.049 -0.2131  0.0510  0.0280
  589BOLB   NC114113  12.555  13.064  24.482 -0.1527  0.1164  0.0573
  589BOLB   PO114114  12.596  13.579  24.639 -0.1164 -0.2010  0.0189
  589BOLB   GL114115  12.322  13.391  24.882  0.3768 -0.1046  0.2756
  589BOLB   GL214116  12.421  13.119  25.039 -0.4452 -0.0567  0.3611
  589BOLB   C1A14117  12.026  13.401  25.164 -0.0873 -0.1954 -0.0800
  589BOLB   C2A14118  11.863  13.414  25.609  0.2574 -0.1391  0.1344
  589BOLB   C3A14119  11.908  13.248  26.022 -0.0138  0.2212  0.2130
  589BOLB   C4A14120  11.779  12.901  26.214 -0.1118  0.0740  0.0248
  589BOLB   C1B14121  12.420  13.259  25.388 -0.0586 -0.0402  0.1731
  589BOLB   C2B14122  12.573  12.997  25.781 -0.2041  0.0452 -0.0270
  589BOLB   C3B14123  12.714  12.951  26.233 -0.0754  0.0030 -0.0792
  589BOLB   C4B14124  12.569  13.116  26.725  0.3141  0.1742  0.2062
  589BOLB   NC214125  10.961  12.909  29.148  0.1044  0.0043  0.3161
  589BOLB   PO214126  11.072  12.873  28.674 -0.0626  0.0023 -0.3040
  589BOLB   GL314127  11.458  12.742  28.315 -0.0541  0.0049  0.1064
  589BOLB   GL414128  11.666  12.833  28.232 -0.0720 -0.2368 -0.0376
  589BOLB   C1C14129  11.456  12.781  27.764  0.0728  0.2870 -0.0079
  589BOLB   C2C14130  11.561  12.571  27.394  0.3125  0.1694  0.0017
  589BOLB   C3C14131  11.786  12.617  26.998  0.1252  0.2441  0.2894
  589BOLB   C4C14132  11.785  12.640  26.544  0.3122 -0.0639 -0.3758
  589BOLB   C1D14133  11.911  12.848  27.827 -0.2885  0.2785 -0.2550
  589BOLB   C2D14134  12.122  13.043  27.466 -0.1975  0.2621  0.1048
  589BOLB   C3D14135  12.415  12.844  27.146 -0.3630 -0.2607  0.1394
  589BOLB   C4D14136  12.251  12.579  26.789 -0.2780 -0.3219  0.2564
  590BOLB   NC114137  19.235  18.891  23.065 -0.2067  0.2557  0.2067
  590BOLB   PO114138  19.480  18.935  23.543  0.1287  0.1714  0.3868
  590BOLB   GL114139  19.763  19.161  23.931  0.0975  0.1036 -0.2533
  590BOLB   GL214140  19.539  19.443  24.162 -0.2064  0.1718 -0.0673
  590BOLB   C1A14141  19.921  19.047  24.365 -0.2173  0.1455 -0.1167
  590BOLB   C2A14142  19.897  18.855  24.731  0.0846  0.2149 -0.1254
  590BOLB   C3A14143  19.900  18.821  25.103 -0.0361  0.0211 -0.1775
  590BOLB   C4A14144  20.115  19.246  25.283 -0.0980 -0.2270  0.0978
  590BOLB   C1B14145  19.551  19.787  24.479  0.2984  0.0729  0.0207
  590BOLB   C2B14146  19.770  20.121  24.863 -0.3626 -0.0498 -0.3632
  590BOLB   C3B14147  19.926  19.959  25.293 -0.2796  0.0906 -0.2019
  590BOLB   C4B14148  19.993  19.998  25.837 -0.0847 -0.2592  0.4956
  590BOLB   NC214149  20.720  19.266  27.131  0.0039  0.1011  0.1602
  590BOLB   PO214150  21.027  19.560  27.312 -0.0551  0.1700  0.0694
  590BOLB   GL314151  20.794  19.731  26.966  0.2012  0.0526  0.1105
  590BOLB   GL414152  20.464  19.740  27.097  0.1856  0.1218 -0.2343
  590BOLB   C1C14153  20.873  19.762  26.494  0.1524  0.2824  0.2208
  590BOLB   C2C14154  20.850  19.937  26.027 -0.0375  0.0297 -0.2138
  590BOLB   C3C14155  20.618  19.690  25.725 -0.1252  0.0825 -0.0264
  590BOLB   C4C14156  20.264  19.631  25.368  0.1024  0.3430 -0.3353
  590BOLB   C1D14157  20.442  19.900  26.652 -0.0480  0.1995  0.2610
  590BOLB   C2D14158  20.277  19.759  26.231 -0.3491  0.0451  0.1146
  590BOLB   C3D14159  20.197  19.571  25.925  0.0621  0.3799  0.0704
  590BOLB   C4D14160  19.797  19.584  25.570  0.3660 -0.0634 -0.0994
  591BOLB   NC114161  12.093  17.316  24.011 -0.0972 -0.1044 -0.1934
  591BOLB   PO114162  12.373  17.383  24.446  0.1771  0.1315  0.1579
  591BOLB   GL114163  12.163  17.423  24.949  0.0833  0.0989 -0.1159
  591BOLB   GL214164  11.895  17.656  24.960  0.0410  0.1655  0.1287
  591BOLB   C1A14165  11.975  17.347  25.361 -0.0932  0.0464  0.0663
  591BOLB   C2A14166  11.971  17.394  25.804  0.3787 -0.2631 -0.0403
  591BOLB   C3A14167  11.786  17.183  26.195 -0.0120  0.2423  0.3056
  591BOLB   C4A14168  11.653  16.938  26.524  0.1331  0.1786  0.4118
  591BOLB   C1B14169  11.918  17.873  25.319 -0.1710 -0.1190  0.2638
  591BOLB   C2B14170  12.089  18.077  25.787 -0.0138  0.1035  0.0763
  591BOLB   C3B14171  12.140  18.218  26.250  0.1491 -0.1480 -0.0378
  591BOLB   C4B14172  12.048  18.068  26.545 -0.2891  0.1476 -0.1929
  591BOLB   NC214173  11.010  16.260  28.577  0.0238 -0.1861 -0.1978
  591BOLB   PO214174  11.034  16.644  28.565  0.1400 -0.0334 -0.1405
  591BOLB   GL314175  11.319  16.469  28.212  0.2406  0.2899 -0.2119
  591BOLB   GL414176  11.119  16.053  28.109  0.0011 -0.0986 -0.2730
  591BOLB   C1C14177  11.530  16.245  27.851  0.0714 -0.2664  0.1777
  591BOLB   C2C14178  11.789  16.385  27.604  0.5218 -0.0360  0.0862
  591BOLB   C3C14179  11.882  16.624  27.300 -0.1163  0.3495  0.0529
  591BOLB   C4C14180  11.799  16.968  26.998 -0.2157 -0.0946 -0.2229
  591BOLB   C1D14181  11.293  15.790  27.848 -0.3002 -0.2303  0.0442
  591BOLB   C2D14182  11.471  15.901  27.471  0.2107 -0.0738  0.0273
  591BOLB   C3D14183  11.568  16.157  27.083  0.2634 -0.2572 -0.2149
  591BOLB   C4D14184  11.620  16.519  26.809 -0.4615  0.1165 -0.1881
  592BOLB   NC114185  17.314   9.258  20.685  0.0918  0.0438  0.3929
  592BOLB   PO114186  17.652   9.218  20.813 -0.2390  0.0254 -0.1149
  592BOLB   GL114187  17.688   8.983  21.031 -0.0037  0.1133  0.0633
  592BOLB   GL214188  17.344   8.825  20.991  0.2072 -0.0723  0.2833
  592BOLB   C1A14189  17.608   9.008  21.472 -0.2126  0.0764 -0.1589
  592BOLB   C2A14190  17.611   8.675  21.880  0.0783  0.0904  0.0607
  592BOLB   C3A14191  17.895   8.428  22.095 -0.2226 -0.0426  0.2006
  592BOLB   C4A14192  18.224   8.116  22.123 -0.0970 -0.2044 -0.1317
  592BOLB   C1B14193  17.627   8.541  21.231 -0.0915  0.0629 -0.0131
  592BOLB   C2B14194  17.583   8.278  21.450  0.1593  0.0173 -0.1383
  592BOLB   C3B14195  17.712   8.091  21.770 -0.0364 -0.1723  0.0609
  592BOLB   C4B14196  17.935   7.786  21.913  0.0735 -0.0686  0.0716
  592BOLB   NC214197  19.752   5.898  22.833  0.2714 -0.0218  0.1600
  592BOLB   PO214198  19.433   6.215  23.091  0.2651 -0.2916 -0.1127
  592BOLB   GL314199  19.326   6.407  22.810  0.2850 -0.1869  0.1861
  592BOLB   GL414200  19.413   6.367  22.521  0.0913 -0.1367  0.1567
  592BOLB   C1C14201  19.046   6.774  22.695 -0.2844 -0.3508 -0.2674
  592BOLB   C2C14202  18.682   7.070  22.656  0.0738  0.1984 -0.0695
  592BOLB   C3C14203  18.374   7.424  22.499  0.0464  0.2311  0.1262
  592BOLB   C4C14204  18.172   7.692  22.355 -0.1817 -0.0697 -0.0490
  592BOLB   C1D14205  18.975   6.360  22.486  0.0725  0.0810 -0.0491
  592BOLB   C2D14206  18.644   6.367  22.233 -0.2238 -0.1438  0.1764
  592BOLB   C3D14207  18.371   6.381  21.872  0.2481 -0.0565 -0.3633
  592BOLB   C4D14208  18.006   6.406  21.612 -0.0095 -0.2615  0.0223
  593BOLB   NC114209  22.796  11.616  21.021 -0.3393 -0.4889 -0.0708
  593BOLB   PO114210  22.432  11.802  21.092  0.1603 -0.1280 -0.5298
  593BOLB   GL114211  22.581  11.567  21.521  0.1821  0.0216  0.2933
  593BOLB   GL214212  22.552  11.804  21.829  0.2341  0.1173  0.0617
  593BOLB   C1A14213  22.719  11.128  21.548  0.1413  0.1270 -0.1901
  593BOLB   C2A14214  23.042  10.836  21.484 -0.2724  0.0407  0.0797
  593BOLB   C3A14215  23.161  10.412  21.685 -0.1217 -0.0834  0.1601
  593BOLB   C4A14216  23.329  10.225  22.067  0.3185  0.0761 -0.0692
  593BOLB   C1B14217  22.867  11.611  22.052 -0.0663 -0.0535 -0.0542
  593BOLB   C2B14218  22.980  11.377  22.319 -0.1358 -0.0007 -0.1842
  593BOLB   C3B14219  23.279  11.092  22.337  0.1177 -0.0012  0.0870
  593BOLB   C4B14220  23.356  10.579  22.366 -0.1333  0.2211 -0.0581
  593BOLB   NC214221  24.274   9.064  24.356  0.0163 -0.4633 -0.0275
  593BOLB   PO214222  24.050   9.211  24.000  0.0449 -0.3602  0.1866
  593BOLB   GL314223  23.975   9.321  23.615  0.1926 -0.0257 -0.1952
  593BOLB   GL414224  24.231   9.421  23.600  0.1926 -0.1006 -0.1442
  593BOLB   C1C14225  23.679   9.429  23.233 -0.0305  0.0911 -0.0390
  593BOLB   C2C14226  23.794   9.428  22.850  0.3756 -0.1045 -0.1768
  593BOLB   C3C14227  23.846   9.721  22.539  0.0114 -0.4254  0.0317
  593BOLB   C4C14228  23.607   9.952  22.260 -0.0641 -0.4683  0.2219
  593BOLB   C1D14229  23.979   9.809  23.563 -0.1851 -0.2017 -0.1184
  593BOLB   C2D14230  23.732  10.160  23.378  0.2663  0.0402  0.3609
  593BOLB   C3D14231  23.589  10.383  22.981  0.0242 -0.1983 -0.3498
  593BOLB   C4D14232  23.171  10.492  22.810  0.3570  0.0321 -0.3934
  594BOLB   NC114233  12.284  22.920  22.477  0.4331 -0.0307  0.1433
  594BOLB   PO114234  12.677  22.888  22.392  0.0012 -0.2668 -0.1087
  594BOLB   GL114235  12.673  23.196  22.775 -0.1964  0.1073 -0.0001
  594BOLB   GL214236  12.298  23.325  22.787 -0.0218  0.0506 -0.0802
  594BOLB   C1A14237  12.675  23.208  23.176  0.1024  0.1338 -0.1911
  594BOLB   C2A14238  12.848  23.387  23.541 -0.0409  0.1790  0.2286
  594BOLB   C3A14239  13.015  23.695  23.858  0.0373  0.1158  0.0256
  594BOLB   C4A14240  13.272  23.861  24.178 -0.4107  0.1872 -0.5147
  594BOLB   C1B14241  12.130  23.464  23.172  0.0827  0.2803  0.0850
  594BOLB   C2B14242  12.182  23.791  23.405 -0.3111  0.1077 -0.2214
  594BOLB   C3B14243  12.209  24.167  23.674  0.1453  0.4016  0.0042
  594BOLB   C4B14244  12.160  24.507  23.683  0.0731 -0.0887  0.0601
  594BOLB   NC214245  13.520  25.252  26.254 -0.0556  0.2711  0.0679
  594BOLB   PO214246  13.870  25.040  26.290  0.2394 -0.2599  0.1060
  594BOLB   GL314247  13.690  24.688  26.092  0.1656  0.0205  0.2142
  594BOLB   GL414248  13.533  24.485  26.320  0.2495  0.1014  0.0725
  594BOLB   C1C14249  13.545  24.557  25.639 -0.0179 -0.0814  0.0829
  594BOLB   C2C14250  13.641  24.394  25.251 -0.0574  0.0028  0.1748
  594BOLB   C3C14251  13.533  24.042  24.963 -0.3953 -0.2268  0.3150
  594BOLB   C4C14252  13.270  23.892  24.600  0.0364 -0.0221  0.1027
  594BOLB   C1D14253  13.763  24.127  26.148 -0.0908 -0.0029  0.0608
  594BOLB   C2D14254  13.784  23.694  26.029  0.0249  0.0421  0.1782
  594BOLB   C3D14255  13.772  23.269  26.237 -0.0312  0.1102  0.1830
  594BOLB   C4D14256  14.076  22.917  26.265 -0.1519  0.0873 -0.0056
  595BOLB   NC114257  21.162  20.389  21.967 -0.0359 -0.0510 -0.0967
  595BOLB   PO114258  21.307  20.381  22.392  0.0093  0.1050  0.0068
  595BOLB   GL114259  21.497  20.568  22.893  0.4672  0.0048  0.0218
  595BOLB   GL214260  21.749  20.450  23.100  0.2814  0.3396  0.3480
  595BOLB   C1A14261  21.335  20.768  23.280 -0.3288  0.0652 -0.3181
  595BOLB   C2A14262  21.217  20.813  23.703  0.0970 -0.1066 -0.2429
  595BOLB   C3A14263  21.208  21.042  24.146  0.2371 -0.0931  0.0692
  595BOLB   C4A14264  21.342  21.167  24.591 -0.2466 -0.6160  0.0114
  595BOLB   C1B14265  21.766  20.745  23.498 -0.1347 -0.0875  0.1533
  595BOLB   C2B14266  21.752  20.998  23.789  0.0908  0.2638 -0.0479
  595BOLB   C3B14267  21.454  21.365  23.894  0.1351  0.0613  0.0159
  595BOLB   C4B14268  21.315  21.697  24.037  0.1398  0.1293  0.0506
  595BOLB   NC214269  21.867  20.837  26.751 -0.0502  0.1968  0.0003
  595BOLB   PO214270  21.882  21.264  26.923 -0.0801 -0.0523  0.1094
  595BOLB   GL314271  21.677  21.256  26.574 -0.1912  0.1746  0.4514
  595BOLB   GL414272  21.324  21.217  26.605  0.1844 -0.1775  0.2458
  595BOLB   C1C14273  21.569  21.343  26.145 -0.1355  0.0768 -0.1356
  595BOLB   C2C14274  21.532  21.122  25.790  0.1637  0.0804 -0.2811
  595BOLB   C3C14275  21.532  21.267  25.347  0.0890 -0.0167 -0.3582
  595BOLB   C4C14276  21.524  21.395  24.925  0.2201  0.2373 -0.0983
  595BOLB   C1D14277  21.060  21.167  26.259 -0.1087  0.0632 -0.0840
  595BOLB   C2D14278  21.057  20.914  25.852 -0.3236  0.1325  0.1413
  595BOLB   C3D14279  21.210  20.896  25.418  0.0092 -0.1402 -0.1128
  595BOLB   C4D14280  21.442  20.903  25.034  0.0659 -0.1173 -0.2394
  596BOLB   NC114281  13.873  16.662  24.703 -0.0882  0.1776 -0.1517
  596BOLB   PO114282  13.567  16.542  24.862  0.1666  0.0945  0.2531
  596BOLB   GL114283  13.669  16.619  25.231 -0.1617  0.0528  0.1048
  596BOLB   GL214284  13.884  16.428  25.420  0.0170  0.2632 -0.1981
  596BOLB   C1A14285  13.689  16.830  25.567  0.0075  0.3004 -0.2412
  596BOLB   C2A14286  13.602  16.813  26.011  0.2084 -0.2225  0.1780
  596BOLB   C3A14287  13.649  16.989  26.426 -0.0937  0.2416  0.1107
  596BOLB   C4A14288  13.597  17.181  26.852 -0.1768 -0.1502  0.0234
  596BOLB   C1B14289  13.790  16.455  25.801 -0.3073 -0.1573 -0.0783
  596BOLB   C2B14290  13.922  16.513  26.223  0.1113  0.1296 -0.1914
  596BOLB   C3B14291  13.665  16.570  26.676  0.0524  0.0688  0.2087
  596BOLB   C4B14292  13.363  16.456  26.966 -0.2209  0.1174 -0.0456
  596BOLB   NC214293  13.060  17.364  28.875  0.1041  0.0321  0.2542
  596BOLB   PO214294  13.031  17.790  29.118 -0.1977  0.1083  0.0135
  596BOLB   GL314295  13.382  17.734  28.723  0.1213  0.0775  0.1355
  596BOLB   GL414296  13.422  18.039  28.419 -0.0235  0.1342  0.0181
  596BOLB   C1C14297  13.183  17.454  28.301  0.1787 -0.0562  0.3558
  596BOLB   C2C14298  13.400  17.294  27.952  0.3387 -0.1319 -0.1713
  596BOLB   C3C14299  13.409  17.120  27.657  0.2308 -0.0116 -0.0883
  596BOLB   C4C14300  13.709  17.233  27.305  0.1140 -0.0455 -0.1258
  596BOLB   C1D14301  13.756  18.110  28.089  0.0970 -0.2087 -0.0459
  596BOLB   C2D14302  14.125  17.914  28.024  0.0023 -0.0905  0.1720
  596BOLB   C3D14303  14.382  17.622  27.763 -0.1556 -0.1205 -0.1500
  596BOLB   C4D14304  14.546  17.413  27.361 -0.0816 -0.1235  0.3959
  597BOLB   NC114305  21.432  10.842  19.348  0.2696 -0.0216 -0.2399
  597BOLB   PO114306  21.297  10.389  19.161 -0.3514 -0.1065 -0.3304
  597BOLB   GL114307  21.472  10.019  19.063  0.1539 -0.0077 -0.0155
  597BOLB   GL214308  21.260   9.924  19.043  0.2868  0.0773 -0.0411
  597BOLB   C1A14309  21.751   9.719  19.074  0.1920 -0.4335 -0.1178
  597BOLB   C2A14310  21.882   9.293  19.210  0.0406 -0.0566  0.1527
  597BOLB   C3A14311  21.954   8.842  19.009 -0.1898 -0.0573  0.0924
  597BOLB   C4A14312  22.097   8.484  19.052 -0.0311 -0.0167 -0.2060
  597BOLB   C1B14313  21.320   9.517  19.288 -0.1548  0.0153  0.0791
  597BOLB   C2B14314  21.064   9.162  19.421 -0.3557  0.0286  0.1902
  597BOLB   C3B14315  21.150   8.720  19.524 -0.1055  0.0888  0.0559
  597BOLB   C4B14316  21.183   8.300  19.727  0.1779  0.0899 -0.2337
  597BOLB   NC214317  23.118   6.586  18.477 -0.0231 -0.1632  0.1245
  597BOLB   PO214318  23.565   6.693  18.561 -0.2442 -0.0724 -0.3164
  597BOLB   GL314319  23.397   7.113  18.649  0.0046 -0.0470  0.4233
  597BOLB   GL414320  23.510   7.358  18.724  0.0451 -0.1649  0.1432
  597BOLB   C1C14321  23.088   7.191  18.913 -0.1385  0.0233  0.2120
  597BOLB   C2C14322  22.822   7.536  19.007 -0.4229  0.1436  0.0357
  597BOLB   C3C14323  22.625   7.926  18.947 -0.0200  0.1332 -0.0195
  597BOLB   C4C14324  22.262   8.043  19.077 -0.4253  0.0988 -0.1681
  597BOLB   C1D14325  23.312   7.760  18.833 -0.2018 -0.0533 -0.0440
  597BOLB   C2D14326  23.116   8.044  18.822  0.1051 -0.0247 -0.0093
  597BOLB   C3D14327  23.127   8.438  18.652 -0.0356 -0.0384  0.3422
  597BOLB   C4D14328  22.976   8.876  18.766 -0.0409 -0.2369  0.1209
  598BOLB   NC114329  10.124  12.357  22.776 -0.0344  0.3638  0.2159
  598BOLB   PO114330   9.898  12.299  23.242  0.2635 -0.3660 -0.4569
  598BOLB   GL114331   9.969  11.971  23.558 -0.3938 -0.1006 -0.2014
  598BOLB   GL214332  10.279  11.851  23.532 -0.0391  0.0136  0.0153
  598BOLB   C1A14333  10.095  11.836  24.024  0.1024  0.0363 -0.3031
  598BOLB   C2A14334  10.301  11.619  24.415  0.2574 -0.1771 -0.0913
  598BOLB   C3A14335  10.305  11.628  24.855  0.1119  0.0021 -0.3544
  598BOLB   C4A14336  10.149  11.609  25.305  0.0912 -0.1694 -0.3241
  598BOLB   C1B14337  10.387  11.437  23.800 -0.0589 -0.3336 -0.1182
  598BOLB   C2B14338  10.429  11.123  24.078 -0.1630  0.1145  0.2918
  598BOLB   C3B14339  10.350  11.117  24.450 -0.3139  0.1452 -0.1119
  598BOLB   C4B14340   9.968  11.211  24.655  0.0596  0.2607 -0.0171
  598BOLB   NC214341   9.140  11.177  27.363  0.1446 -0.2233  0.0035
  598BOLB   PO214342   9.071  11.550  27.429 -0.0593 -0.1873 -0.2293
  598BOLB   GL314343   9.258  11.607  27.051  0.0619  0.2434  0.1365
  598BOLB   GL414344   9.145  11.807  26.849 -0.4312 -0.0916 -0.2752
  598BOLB   C1C14345   9.432  11.451  26.619 -0.0638 -0.1000  0.0017
  598BOLB   C2C14346   9.693  11.242  26.406  0.1424 -0.0954  0.0713
  598BOLB   C3C14347   9.904  11.469  26.087  0.1803 -0.3066  0.0423
  598BOLB   C4C14348  10.050  11.766  25.764 -0.0123  0.1725 -0.1731
  598BOLB   C1D14349   9.146  12.265  26.675 -0.1892  0.1096 -0.0052
  598BOLB   C2D14350   9.202  12.368  26.283  0.0295  0.3822  0.0367
  598BOLB   C3D14351   9.162  12.304  25.888 -0.0608  0.0174  0.1803
  598BOLB   C4D14352   9.019  12.654  25.625  0.0080  0.0824 -0.0155
  599BOLB   NC114353  22.049  14.902  22.777 -0.1942  0.0706  0.2291
  599BOLB   PO114354  21.896  14.583  23.109 -0.0923 -0.0929  0.1775
  599BOLB   GL114355  21.908  14.654  23.504  0.0011  0.1641 -0.1870
  599BOLB   GL214356  21.720  14.712  23.762  0.0577  0.1574  0.0702
  599BOLB   C1A14357  21.993  14.330  23.795 -0.2218  0.4587 -0.2733
  599BOLB   C2A14358  22.133  14.006  24.057  0.0722  0.0085 -0.2205
  599BOLB   C3A14359  22.140  13.808  24.455 -0.3357 -0.1314 -0.2589
  599BOLB   C4A14360  22.378  13.655  24.822  0.2575  0.0575  0.0042
  599BOLB   C1B14361  21.603  14.446  24.087  0.0551  0.2378 -0.0154
  599BOLB   C2B14362  21.724  14.330  24.550 -0.0168  0.2701 -0.0783
  599BOLB   C3B14363  21.661  14.208  24.909  0.0508  0.0455 -0.2563
  599BOLB   C4B14364  21.614  14.318  25.338  0.0703  0.1469 -0.1857
  599BOLB   NC214365  22.814  12.962  27.470 -0.5879  0.1780  0.1255
  599BOLB   PO214366  22.549  12.629  27.228 -0.0601 -0.3638  0.1913
  599BOLB   GL314367  22.631  12.908  27.006  0.2217 -0.1957 -0.5059
  599BOLB   GL414368  22.378  13.237  27.038  0.0041  0.0615  0.2757
  599BOLB   C1C14369  22.593  13.077  26.505  0.2916 -0.1204 -0.2805
  599BOLB   C2C14370  22.597  13.159  26.079  0.0075  0.0805  0.2730
  599BOLB   C3C14371  22.520  13.271  25.608 -0.0116  0.0447  0.0348
  599BOLB   C4C14372  22.502  13.376  25.214  0.2364 -0.0325 -0.0733
  599BOLB   C1D14373  21.957  13.320  26.905  0.3363 -0.2582  0.2121
  599BOLB   C2D14374  21.746  13.678  26.912  0.0128 -0.3422 -0.5916
  599BOLB   C3D14375  21.862  14.044  26.698  0.2826 -0.0335  0.0126
  599BOLB   C4D14376  22.215  14.084  26.474 -0.0777  0.0294 -0.0567
  600BOLB   NC114377  10.043  26.360  21.022  0.0144 -0.0824  0.1369
  600BOLB   PO114378   9.727  25.942  21.051 -0.5115  0.1162 -0.0132
  600BOLB   GL114379   9.981  25.795  21.350  0.0339 -0.0986  0.0079
  600BOLB   GL214380   9.979  25.477  21.227 -0.2208 -0.0302 -0.2409
  600BOLB   C1A14381  10.120  25.961  21.684  0.2921  0.2471  0.1213
  600BOLB   C2A14382  10.432  25.867  21.984 -0.0790  0.1490  0.0780
  600BOLB   C3A14383  10.797  25.937  22.245  0.1889 -0.1098  0.0101
  600BOLB   C4A14384  11.139  26.003  22.624  0.3899  0.1082 -0.0468
  600BOLB   C1B14385  10.430  25.698  21.234  0.0666  0.2035 -0.0683
  600BOLB   C2B14386  10.633  25.923  21.504  0.1781 -0.0825 -0.3392
  600BOLB   C3B14387  11.109  25.837  21.783  0.2492  0.0934  0.2222
  600BOLB   C4B14388  11.361  25.536  22.032  0.2606  0.0386 -0.4584
  600BOLB   NC214389  11.817  26.502  24.969 -0.0065  0.2328  0.2570
  600BOLB   PO214390  12.079  26.769  24.723 -0.0050 -0.1725 -0.2035
  600BOLB   GL314391  11.797  26.561  24.391 -0.3165  0.4806 -0.0175
  600BOLB   GL414392  11.504  26.479  24.537 -0.4421  0.0343  0.2471
  600BOLB   C1C14393  11.844  26.263  24.021  0.1534  0.0301 -0.1193
  600BOLB   C2C14394  11.925  26.237  23.635  0.1375  0.1612  0.1725
  600BOLB   C3C14395  11.767  26.267  23.187 -0.0854  0.0273  0.4610
  600BOLB   C4C14396  11.482  26.162  22.798 -0.2202 -0.1865 -0.0969
  600BOLB   C1D14397  11.565  26.043  24.441  0.3279  0.0261  0.1507
  600BOLB   C2D14398  11.465  25.617  24.265  0.1043  0.3294  0.0488
  600BOLB   C3D14399  11.236  25.162  24.212 -0.1191 -0.1046 -0.3117
  600BOLB   C4D14400  11.095  24.844  23.968 -0.0455  0.1188  0.1344
  601BOLB   NC114401  18.609  18.365  24.222 -0.0266  0.1022  0.2318
  601BOLB   PO114402  18.332  18.577  24.227  0.1528  0.1799 -0.0874
  601BOLB   GL114403  18.458  18.563  24.663  0.0817  0.2967 -0.2524
  601BOLB   GL214404  18.659  18.294  24.794 -0.0028  0.2646  0.1146
  601BOLB   C1A14405  18.543  18.796  24.973  0.1898 -0.0083 -0.2178
  601BOLB   C2A14406  18.545  18.925  25.324 -0.1365  0.1102  0.0029
  601BOLB   C3A14407  18.531  18.935  25.768  0.3740  0.0765 -0.0884
  601BOLB   C4A14408  18.458  18.768  26.155 -0.1339 -0.0824 -0.4605
  601BOLB   C1B14409  18.980  18.369  25.143 -0.0017  0.2126  0.0092
  601BOLB   C2B14410  18.992  18.499  25.619  0.1492  0.3408 -0.0408
  601BOLB   C3B14411  18.958  18.438  26.099  0.2934 -0.3423  0.1888
  601BOLB   C4B14412  18.921  18.815  26.362 -0.0234 -0.0229 -0.1690
  601BOLB   NC214413  18.033  19.274  28.358  0.0827  0.1018  0.1793
  601BOLB   PO214414  18.377  18.923  28.501  0.2404 -0.2348 -0.0418
  601BOLB   GL314415  18.443  18.967  28.000  0.1661 -0.0760  0.1970
  601BOLB   GL414416  18.241  19.216  27.889 -0.4028  0.0891 -0.1184
  601BOLB   C1C14417  18.530  18.700  27.601 -0.1588  0.2359 -0.1131
  601BOLB   C2C14418  18.697  18.358  27.332 -0.0885 -0.2667 -0.0485
  601BOLB   C3C14419  18.644  18.426  26.905  0.0389  0.1675 -0.1944
  601BOLB   C4C14420  18.527  18.651  26.606  0.0684 -0.0109  0.1592
  601BOLB   C1D14421  18.008  18.885  27.657 -0.0670  0.0645  0.1543
  601BOLB   C2D14422  17.653  18.643  27.834 -0.4349 -0.0165 -0.0415
  601BOLB   C3D14423  17.734  18.258  27.679  0.2541  0.0491  0.0324
  601BOLB   C4D14424  17.778  18.170  27.142  0.0400 -0.0660 -0.3150
  602BOLB   NC114425  10.840  15.786  24.254 -0.0096  0.1825  0.0307
  602BOLB   PO114426  11.305  15.988  24.305 -0.0731 -0.0956  0.0626
  602BOLB   GL114427  11.266  16.080  24.733 -0.1477 -0.0377  0.2077
  602BOLB   GL214428  10.969  15.830  24.862 -0.1676 -0.3203 -0.1454
  602BOLB   C1A14429  11.376  16.075  25.152  0.1442  0.0277 -0.2463
  602BOLB   C2A14430  11.205  16.217  25.606 -0.2170  0.1549  0.0343
  602BOLB   C3A14431  10.992  15.929  25.765  0.1646  0.1398  0.0383
  602BOLB   C4A14432  10.815  15.661  26.023  0.0936 -0.0612 -0.2200
  602BOLB   C1B14433  10.829  15.725  25.330  0.0958  0.2105 -0.1548
  602BOLB   C2B14434  10.572  15.721  25.585  0.1212  0.0249 -0.2586
  602BOLB   C3B14435  10.280  15.657  25.907  0.3524  0.0223  0.0944
  602BOLB   C4B14436  10.247  15.310  26.144 -0.1385 -0.0079  0.0384
  602BOLB   NC214437  10.569  14.678  28.559  0.0060  0.0063  0.0159
  602BOLB   PO214438  10.794  15.029  28.343  0.1858 -0.2305  0.1491
  602BOLB   GL314439  10.787  14.988  27.825 -0.1443  0.1618 -0.2154
  602BOLB   GL414440  10.622  14.641  27.669 -0.0739 -0.0088 -0.2880
  602BOLB   C1C14441  10.823  15.150  27.522  0.1436 -0.1253 -0.0922
  602BOLB   C2C14442  10.870  15.185  27.098 -0.0957  0.2804 -0.5399
  602BOLB   C3C14443  10.692  15.110  26.696 -0.1093 -0.0077 -0.1481
  602BOLB   C4C14444  10.740  15.382  26.384  0.1303 -0.1742 -0.1595
  602BOLB   C1D14445  10.428  14.837  27.321 -0.0177 -0.0378  0.2422
  602BOLB   C2D14446  10.215  14.838  26.990 -0.2683 -0.0470  0.1480
  602BOLB   C3D14447  10.313  14.828  26.577  0.0235 -0.0021 -0.1444
  602BOLB   C4D14448  10.642  14.737  26.326 -0.1130  0.0482 -0.0325
  603BOLB   NC114449  15.688  20.837  23.759 -0.0604 -0.1445  0.0697
  603BOLB   PO114450  15.774  21.148  23.856  0.0112 -0.0607  0.2112
  603BOLB   GL114451  16.044  21.055  24.148 -0.2038  0.0926  0.4612
  603BOLB   GL214452  15.985  20.897  24.427 -0.1661 -0.1810 -0.0834
  603BOLB   C1A14453  16.091  21.411  24.500  0.2215  0.1015 -0.0219
  603BOLB   C2A14454  16.264  21.477  24.897  0.0368  0.0478 -0.2977
  603BOLB   C3A14455  16.307  21.646  25.295  0.2427 -0.2660 -0.0903
  603BOLB   C4A14456  16.544  21.501  25.534  0.2835 -0.2856 -0.1747
  603BOLB   C1B14457  16.022  20.966  24.864 -0.0015 -0.1040 -0.0393
  603BOLB   C2B14458  15.883  21.295  25.181 -0.3631  0.1639  0.0260
  603BOLB   C3B14459  15.810  21.690  25.407 -0.1709  0.3163  0.0279
  603BOLB   C4B14460  15.786  21.823  25.814 -0.3284  0.2911  0.2122
  603BOLB   NC214461  15.976  22.110  28.358 -0.1796  0.5942 -0.1987
  603BOLB   PO214462  15.710  21.936  28.020  0.0222 -0.0715 -0.2694
  603BOLB   GL314463  15.556  21.701  27.563 -0.0998  0.0588  0.1235
  603BOLB   GL414464  15.353  21.651  27.361  0.3339  0.2238 -0.0079
  603BOLB   C1C14465  15.875  21.496  27.169 -0.1115 -0.1515 -0.1217
  603BOLB   C2C14466  16.111  21.491  26.753  0.0096  0.2136  0.2638
  603BOLB   C3C14467  16.355  21.312  26.333  0.0684 -0.0600 -0.2721
  603BOLB   C4C14468  16.613  21.285  25.970 -0.0385 -0.2041  0.3586
  603BOLB   C1D14469  15.143  21.770  26.970 -0.0456  0.3113  0.1066
  603BOLB   C2D14470  14.947  21.691  26.582 -0.0539 -0.0488 -0.3280
  603BOLB   C3D14471  14.734  21.456  26.443  0.0766 -0.1250  0.0569
  603BOLB   C4D14472  14.636  21.103  26.206 -0.0255 -0.1432 -0.0989
  604BOLB   NC114473  21.339  16.885  23.442 -0.2312  0.2451 -0.2036
  604BOLB   PO114474  21.418  16.436  23.536 -0.0036  0.3066  0.1476
  604BOLB   GL114475  21.551  16.455  23.991 -0.1858 -0.1916  0.0596
  604BOLB   GL214476  21.620  16.750  23.990  0.1870  0.1388  0.0788
  604BOLB   C1A14477  21.586  16.137  24.376 -0.1697 -0.2325  0.1290
  604BOLB   C2A14478  21.702  16.144  24.737  0.1628  0.1083 -0.1119
  604BOLB   C3A14479  22.113  16.008  24.999 -0.0361  0.0334 -0.1688
  604BOLB   C4A14480  22.249  15.885  25.442  0.1871 -0.1917 -0.1334
  604BOLB   C1B14481  21.613  16.623  24.466 -0.0019  0.1611 -0.0738
  604BOLB   C2B14482  21.999  16.523  24.807 -0.1289  0.0074 -0.2809
  604BOLB   C3B14483  22.353  16.591  25.107  0.2017 -0.1075  0.1311
  604BOLB   C4B14484  22.776  16.655  25.132  0.0365 -0.1481 -0.1041
  604BOLB   NC214485  23.373  16.238  27.649  0.4410 -0.0567  0.1354
  604BOLB   PO214486  23.042  15.897  27.616  0.0652 -0.0339  0.5755
  604BOLB   GL314487  22.793  15.795  27.230 -0.1176  0.3059  0.0267
  604BOLB   GL414488  22.590  15.999  27.175 -0.0160  0.1176  0.0687
  604BOLB   C1C14489  22.671  15.501  26.930  0.0823 -0.0355 -0.2698
  604BOLB   C2C14490  22.481  15.481  26.548  0.2323 -0.0684 -0.0240
  604BOLB   C3C14491  22.509  15.744  26.201  0.1747 -0.0017 -0.1028
  604BOLB   C4C14492  22.263  15.810  25.860  0.0692  0.0247 -0.1576
  604BOLB   C1D14493  22.391  16.067  26.784  0.3976 -0.1645 -0.1916
  604BOLB   C2D14494  22.210  16.100  26.321 -0.4238  0.3244 -0.2149
  604BOLB   C3D14495  22.175  16.403  25.821 -0.1350  0.0233  0.2932
  604BOLB   C4D14496  22.466  16.390  25.502 -0.1049 -0.0479 -0.3298
  605BOLB   NC114497  17.764  17.479  24.636  0.1232  0.0661 -0.4083
  605BOLB   PO114498  18.221  17.545  24.430  0.2767 -0.1360 -0.0277
  605BOLB   GL114499  18.462  17.427  24.696  0.1017  0.1938  0.0342
  605BOLB   GL214500  18.425  17.036  24.827  0.4361  0.2130  0.4503
  605BOLB   C1A14501  18.605  17.597  25.041 -0.3985 -0.2322  0.1963
  605BOLB   C2A14502  18.862  17.883  25.266 -0.3412 -0.0887 -0.2807
  605BOLB   C3A14503  18.938  17.997  25.656  0.0333  0.1677  0.0097
  605BOLB   C4A14504  19.244  18.077  25.940 -0.0191  0.1043  0.0540
  605BOLB   C1B14505  18.693  17.142  25.196  0.1054  0.1126  0.0486
  605BOLB   C2B14506  18.688  17.507  25.522  0.0680  0.1817 -0.1169
  605BOLB   C3B14507  18.598  17.747  25.823  0.0839  0.0907 -0.3093
  605BOLB   C4B14508  18.815  17.917  26.199 -0.1638  0.0527 -0.3292
  605BOLB   NC214509  20.510  19.210  28.036 -0.4317  0.0038  0.0150
  605BOLB   PO214510  20.303  18.810  27.897 -0.0733 -0.0443  0.1543
  605BOLB   GL314511  20.078  18.615  27.615  0.3300  0.2711 -0.4451
  605BOLB   GL414512  20.192  18.369  27.562 -0.0429 -0.0107  0.2338
  605BOLB   C1C14513  19.725  18.628  27.349 -0.0418  0.0949 -0.0902
  605BOLB   C2C14514  19.653  18.386  26.935 -0.0325 -0.3370  0.0892
  605BOLB   C3C14515  19.526  18.129  26.761 -0.1033 -0.1505  0.1398
  605BOLB   C4C14516  19.242  18.067  26.359  0.1293 -0.3748 -0.0261
  605BOLB   C1D14517  20.131  18.409  27.069 -0.1246 -0.1454 -0.2854
  605BOLB   C2D14518  19.898  18.661  26.616  0.1416 -0.0423  0.4690
  605BOLB   C3D14519  19.822  18.978  26.451  0.1277 -0.0805 -0.1252
  605BOLB   C4D14520  19.718  19.310  26.793  0.3523  0.1408 -0.0216
  606BOLB   NC114521  14.625   8.141  21.802 -0.0535  0.3062 -0.0762
  606BOLB   PO114522  14.951   8.113  21.473  0.0031  0.1274  0.2797
  606BOLB   GL114523  15.121   7.937  21.830  0.0071  0.1931 -0.1010
  606BOLB   GL214524  14.894   7.673  21.833 -0.0836  0.2395 -0.1796
  606BOLB   C1A14525  15.276   7.746  22.155 -0.0914 -0.0553 -0.0182
  606BOLB   C2A14526  15.776   7.613  22.236 -0.1684 -0.1183  0.0767
  606BOLB   C3A14527  16.005   7.368  22.538  0.0108  0.3062 -0.0612
  606BOLB   C4A14528  16.372   7.261  22.810  0.0739  0.1698  0.0790
  606BOLB   C1B14529  15.334   7.384  21.862  0.0191 -0.2023 -0.0455
  606BOLB   C2B14530  15.633   7.154  22.013 -0.2580  0.0624  0.2536
  606BOLB   C3B14531  15.975   6.841  22.337  0.1108 -0.2110 -0.0459
  606BOLB   C4B14532  16.083   6.678  22.718  0.5478  0.1705  0.1057
  606BOLB   NC214533  18.522   6.201  23.952  0.1083  0.1381 -0.0243
  606BOLB   PO214534  18.244   6.361  24.275 -0.1679  0.1070  0.0681
  606BOLB   GL314535  18.030   6.692  24.111 -0.1288  0.1833  0.1431
  606BOLB   GL414536  18.076   7.009  23.971 -0.1291  0.1012  0.0497
  606BOLB   C1C14537  17.842   6.605  23.722 -0.0697  0.1189  0.2593
  606BOLB   C2C14538  17.409   6.720  23.553 -0.1033  0.0828  0.3032
  606BOLB   C3C14539  17.106   6.832  23.209  0.1255  0.2099  0.0466
  606BOLB   C4C14540  16.641   6.952  23.153  0.1593 -0.2208 -0.1257
  606BOLB   C1D14541  17.616   7.116  23.818 -0.1156  0.0655 -0.4717
  606BOLB   C2D14542  17.515   7.196  23.431  0.4651  0.0980 -0.1672
  606BOLB   C3D14543  17.249   7.475  23.266  0.3601  0.0312 -0.0095
  606BOLB   C4D14544  17.019   7.483  22.899 -0.3773  0.0746  0.1703
  607BOLB   NC114545   9.387  24.843  21.726  0.0064 -0.2262 -0.0621
  607BOLB   PO114546   9.517  24.368  21.695  0.0067 -0.4949 -0.2185
  607BOLB   GL114547   9.635  24.544  22.136  0.0099 -0.0324 -0.1241
  607BOLB   GL214548   9.824  24.818  21.932 -0.0912  0.0391 -0.3144
  607BOLB   C1A14549  10.012  24.474  22.424  0.0285  0.2329  0.1028
  607BOLB   C2A14550  10.174  24.651  22.822 -0.0257 -0.1867  0.1307
  607BOLB   C3A14551  10.367  24.953  23.169 -0.2991 -0.0319 -0.0096
  607BOLB   C4A14552  10.648  25.077  23.570  0.1508  0.0767  0.0244
  607BOLB   C1B14553  10.006  24.944  22.348 -0.1592  0.3130 -0.1997
  607BOLB   C2B14554  10.395  24.909  22.522  0.0092  0.0626 -0.3466
  607BOLB   C3B14555  10.576  25.195  22.677 -0.2570 -0.2807 -0.2242
  607BOLB   C4B14556  10.846  25.159  23.141  0.2976 -0.0112  0.0704
  607BOLB   NC214557  11.600  27.576  24.085 -0.1939  0.2721 -0.1276
  607BOLB   PO214558  11.505  27.270  24.380  0.0815  0.2287 -0.1541
  607BOLB   GL314559  11.465  26.930  24.192  0.0628  0.0997 -0.0670
  607BOLB   GL414560  11.562  27.071  23.921  0.5037 -0.1421  0.3042
  607BOLB   C1C14561  11.445  26.530  24.014 -0.1405 -0.1058  0.2880
  607BOLB   C2C14562  11.433  26.131  23.765  0.0669  0.2123 -0.1186
  607BOLB   C3C14563  11.155  25.745  23.868  0.1194  0.2572 -0.2485
  607BOLB   C4C14564  10.990  25.375  23.690 -0.1735 -0.0203  0.1868
  607BOLB   C1D14565  11.839  26.799  23.897 -0.2010 -0.0783 -0.0774
  607BOLB   C2D14566  12.137  26.661  23.973 -0.1662 -0.3309  0.0898
  607BOLB   C3D14567  12.433  26.576  23.751  0.1035 -0.0003  0.1072
  607BOLB   C4D14568  12.736  26.442  23.525  0.1461 -0.0104  0.1226
  608BOLB   NC114569  14.379   9.789  22.650  0.0854 -0.1336  0.3317
  608BOLB   PO114570  14.503  10.162  22.924  0.0928  0.1021 -0.6018
  608BOLB   GL114571  14.697  10.012  23.247 -0.4070 -0.0240 -0.1235
  608BOLB   GL214572  15.051   9.995  23.239  0.1882  0.0629 -0.0051
  608BOLB   C1A14573  14.735   9.844  23.633 -0.0799 -0.1356  0.0321
  608BOLB   C2A14574  14.954   9.637  23.974 -0.0071  0.0975 -0.0887
  608BOLB   C3A14575  14.991   9.548  24.430 -0.0442  0.0240 -0.0553
  608BOLB   C4A14576  15.151   9.557  24.877  0.0254  0.2587  0.2225
  608BOLB   C1B14577  14.949  10.363  23.575  0.2126  0.0456 -0.2595
  608BOLB   C2B14578  15.104  10.605  23.987 -0.0627 -0.1873  0.0488
  608BOLB   C3B14579  15.240  10.479  24.297  0.0636  0.0100 -0.1440
  608BOLB   C4B14580  15.048  10.310  24.702 -0.1505  0.1804  0.1737
  608BOLB   NC214581  14.853   7.786  26.722 -0.1973 -0.2505  0.1845
  608BOLB   PO214582  15.187   7.948  26.881 -0.0200  0.2493  0.0323
  608BOLB   GL314583  15.253   8.226  26.434  0.0488 -0.1946 -0.0751
  608BOLB   GL414584  14.897   8.122  26.317 -0.0295  0.2836 -0.4081
  608BOLB   C1C14585  15.241   8.441  26.066 -0.1762  0.2598  0.0459
  608BOLB   C2C14586  15.155   8.769  25.829 -0.0803  0.1398  0.3513
  608BOLB   C3C14587  15.200   9.121  25.656  0.0300 -0.2465 -0.2960
  608BOLB   C4C14588  15.201   9.439  25.337 -0.2130 -0.0316  0.0251
  608BOLB   C1D14589  14.908   8.121  25.956 -0.1365  0.2267 -0.1937
  608BOLB   C2D14590  14.812   8.421  25.680  0.1363 -0.0850 -0.0424
  608BOLB   C3D14591  14.921   8.624  25.306  0.1933  0.4105 -0.1244
  608BOLB   C4D14592  14.808   8.730  24.991 -0.0772  0.2492  0.1799
  609BOLB   NC114593  12.734  24.097  20.878 -0.1474 -0.2583 -0.1935
  609BOLB   PO114594  12.877  24.510  21.096 -0.0405 -0.2140  0.0284
  609BOLB   GL114595  12.992  24.694  21.511 -0.1455  0.3055 -0.0833
  609BOLB   GL214596  13.261  24.453  21.650 -0.0681 -0.0485 -0.1124
  609BOLB   C1A14597  13.217  25.024  21.692 -0.0659 -0.2295 -0.2568
  609BOLB   C2A14598  13.307  25.437  21.836  0.1841 -0.1968 -0.0710
  609BOLB   C3A14599  13.498  25.643  22.186  0.1963  0.2078  0.3515
  609BOLB   C4A14600  13.524  25.984  22.508 -0.1333 -0.0946  0.0537
  609BOLB   C1B14601  13.086  24.649  21.997  0.3396 -0.1440 -0.0048
  609BOLB   C2B14602  12.897  24.914  22.389 -0.0377 -0.3571  0.1406
  609BOLB   C3B14603  12.882  25.355  22.614 -0.1089 -0.0112  0.0741
  609BOLB   C4B14604  13.120  25.765  22.681  0.0498  0.1983  0.4483
  609BOLB   NC214605  14.321  28.403  23.310  0.2580  0.1666  0.0377
  609BOLB   PO214606  14.004  28.062  23.271  0.2227  0.2276 -0.0699
  609BOLB   GL314607  13.999  27.730  22.965  0.0315  0.1221  0.0364
  609BOLB   GL414608  14.216  27.745  22.690  0.2797 -0.0602  0.1290
  609BOLB   C1C14609  13.746  27.395  22.855  0.0621  0.1353  0.2836
  609BOLB   C2C14610  13.516  27.115  22.808  0.1797 -0.0795  0.3275
  609BOLB   C3C14611  13.398  26.839  22.562  0.0219 -0.0168  0.0266
  609BOLB   C4C14612  13.404  26.440  22.364  0.1898  0.1191 -0.0446
  609BOLB   C1D14613  14.272  27.298  22.572  0.0741  0.0049 -0.0030
  609BOLB   C2D14614  14.583  27.065  22.474 -0.0701 -0.0674 -0.0307
  609BOLB   C3D14615  14.859  26.699  22.673  0.0846  0.1809 -0.0458
  609BOLB   C4D14616  15.247  26.542  22.744  0.0520 -0.2475 -0.0055
  610BOLB   NC114617  10.871  19.486  23.550 -0.0051  0.2712  0.0136
  610BOLB   PO114618  11.274  19.427  23.543  0.1387  0.1167  0.1097
  610BOLB   GL114619  11.096  19.578  24.027  0.1108 -0.1011 -0.2090
  610BOLB   GL214620  11.324  19.817  24.197  0.4539 -0.1488  0.2201
  610BOLB   C1A14621  11.029  19.360  24.457  0.2255 -0.1229 -0.0244
  610BOLB   C2A14622  10.996  19.038  24.632 -0.0076 -0.1446  0.1116
  610BOLB   C3A14623  10.990  18.825  25.041 -0.1410  0.1414 -0.2083
  610BOLB   C4A14624  11.195  19.129  25.401  0.2904 -0.0055  0.0786
  610BOLB   C1B14625  11.084  19.842  24.635 -0.2942 -0.0266 -0.2166
  610BOLB   C2B14626  11.020  20.026  25.080  0.1354 -0.0566  0.1147
  610BOLB   C3B14627  11.056  20.296  25.354 -0.0852  0.1328  0.2031
  610BOLB   C4B14628  11.013  20.403  25.822 -0.1664  0.1097 -0.2532
  610BOLB   NC214629   9.485  19.698  27.249 -0.0669  0.2677  0.2264
  610BOLB   PO214630   9.853  19.646  27.400 -0.1920 -0.2722 -0.2371
  610BOLB   GL314631  10.109  19.632  27.156  0.2290  0.0286 -0.2743
  610BOLB   GL414632   9.908  19.748  26.867  0.0136 -0.2822 -0.4480
  610BOLB   C1C14633  10.450  19.652  26.823 -0.0344 -0.0965  0.0904
  610BOLB   C2C14634  10.494  19.704  26.330  0.0595  0.0136  0.2241
  610BOLB   C3C14635  10.632  19.423  26.009  0.4306  0.1918  0.1368
  610BOLB   C4C14636  10.982  19.360  25.749 -0.0409 -0.1990 -0.2024
  610BOLB   C1D14637   9.983  19.582  26.465 -0.3304  0.0923  0.1619
  610BOLB   C2D14638  10.140  19.482  26.018  0.3664 -0.2523  0.1162
  610BOLB   C3D14639  10.339  19.400  25.618  0.0500 -0.2430 -0.2089
  610BOLB   C4D14640  10.520  19.123  25.287 -0.0444 -0.1179 -0.1870
  611BOLB   NC114641  17.549  20.040  23.373  0.2385 -0.0142  0.0232
  611BOLB   PO114642  17.327  20.151  23.767 -0.3509  0.1986  0.1413
  611BOLB   GL114643  17.426  20.440  24.088 -0.1592  0.2956  0.4334
  611BOLB   GL214644  17.130  20.421  24.231 -0.0043  0.2103 -0.0337
  611BOLB   C1A14645  17.454  20.762  24.533 -0.1119 -0.1686 -0.0865
  611BOLB   C2A14646  17.639  20.911  24.860 -0.1725  0.2205 -0.1076
  611BOLB   C3A14647  17.632  20.854  25.231 -0.2319 -0.4352  0.2164
  611BOLB   C4A14648  17.769  20.663  25.589 -0.1541 -0.2390  0.3097
  611BOLB   C1B14649  17.217  20.153  24.622  0.4481  0.2908 -0.2830
  611BOLB   C2B14650  17.285  20.431  25.004 -0.0177  0.0042  0.0252
  611BOLB   C3B14651  17.247  20.384  25.447  0.0808  0.0528  0.0503
  611BOLB   C4B14652  17.304  20.616  25.862  0.1819 -0.0437  0.3087
  611BOLB   NC214653  17.351  22.569  27.002 -0.0624  0.0392  0.1955
  611BOLB   PO214654  17.268  22.191  27.310 -0.3235 -0.2155 -0.1152
  611BOLB   GL314655  17.371  21.839  27.024  0.1621 -0.2269 -0.3183
  611BOLB   GL414656  17.394  21.856  26.651  0.2481 -0.3778 -0.2686
  611BOLB   C1C14657  17.824  21.634  26.943 -0.0344 -0.2270 -0.2663
  611BOLB   C2C14658  17.993  21.267  26.694  0.2871 -0.0590  0.1686
  611BOLB   C3C14659  17.969  21.042  26.429  0.1443  0.3635  0.1854
  611BOLB   C4C14660  17.852  20.739  26.032 -0.1093  0.2671 -0.0964
  611BOLB   C1D14661  17.055  21.896  26.477  0.0526 -0.1817 -0.1911
  611BOLB   C2D14662  16.709  21.754  26.147 -0.1457  0.2796 -0.0163
  611BOLB   C3D14663  16.320  21.892  25.861  0.1314  0.0298  0.0628
  611BOLB   C4D14664  16.265  22.292  25.702 -0.0994 -0.2195 -0.2852
  612BOLB   NC114665  17.659  13.442  23.516 -0.2676 -0.2360  0.0187
  612BOLB   PO114666  17.854  13.063  23.741  0.1931 -0.3950 -0.1062
  612BOLB   GL114667  18.153  13.064  24.146 -0.0139 -0.1550  0.0884
  612BOLB   GL214668  17.878  13.176  24.227 -0.1645  0.2552  0.1605
  612BOLB   C1A14669  18.031  12.695  24.465 -0.4533 -0.2184 -0.3510
  612BOLB   C2A14670  18.032  12.516  24.858  0.0229 -0.0750 -0.1313
  612BOLB   C3A14671  18.100  12.237  25.184  0.1470 -0.1418 -0.3768
  612BOLB   C4A14672  18.136  11.845  25.498  0.0878  0.1375  0.0361
  612BOLB   C1B14673  17.962  13.149  24.664  0.1500  0.2032 -0.1421
  612BOLB   C2B14674  18.148  12.984  25.045  0.2056 -0.0600 -0.3180
  612BOLB   C3B14675  18.521  12.988  25.197 -0.2117 -0.1073 -0.0134
  612BOLB   C4B14676  18.722  12.733  25.593  0.1210  0.0074  0.0966
  612BOLB   NC214677  18.219   9.653  26.393  0.0997 -0.2670 -0.0665
  612BOLB   PO214678  17.871   9.657  26.631 -0.1328  0.2748 -0.2698
  612BOLB   GL314679  17.835   9.975  26.254 -0.1744  0.0492  0.0187
  612BOLB   GL414680  17.510  10.013  26.121 -0.1029 -0.3236  0.0244
  612BOLB   C1C14681  17.826  10.410  25.956 -0.0396 -0.4118 -0.2673
  612BOLB   C2C14682  17.710  10.849  26.095 -0.1157  0.0061 -0.0295
  612BOLB   C3C14683  17.887  11.197  26.161 -0.1225 -0.0580  0.0242
  612BOLB   C4C14684  18.032  11.491  25.813 -0.2411  0.3843 -0.0574
  612BOLB   C1D14685  17.207  10.041  25.680 -0.0623 -0.1033 -0.2839
  612BOLB   C2D14686  16.896  10.058  25.337 -0.2903 -0.2456  0.2855
  612BOLB   C3D14687  16.692   9.657  25.206  0.1012  0.1689 -0.0644
  612BOLB   C4D14688  16.697   9.280  25.424 -0.0192  0.4576 -0.3255
  613BOLB   NC114689  14.511  22.921  22.761  0.1846 -0.2397 -0.0160
  613BOLB   PO114690  15.056  22.832  22.872  0.0246  0.3920  0.1480
  613BOLB   GL114691  14.923  23.049  23.261  0.0196 -0.1541 -0.1476
  613BOLB   GL214692  14.554  23.117  23.379 -0.0312 -0.1277  0.1197
  613BOLB   C1A14693  15.011  23.451  23.473 -0.1193 -0.3381  0.2673
  613BOLB   C2A14694  14.900  23.946  23.548  0.1034 -0.2265  0.0553
  613BOLB   C3A14695  14.822  24.157  23.910  0.0959  0.1776 -0.1119
  613BOLB   C4A14696  15.022  24.553  24.130  0.0770  0.0989 -0.0995
  613BOLB   C1B14697  14.712  23.184  23.828 -0.3091 -0.2814 -0.1037
  613BOLB   C2B14698  15.089  23.226  24.127  0.1070 -0.1370  0.0755
  613BOLB   C3B14699  15.167  23.398  24.472 -0.1465  0.3806  0.2744
  613BOLB   C4B14700  15.491  23.695  24.418 -0.0979 -0.1445 -0.1862
  613BOLB   NC214701  16.121  26.091  25.706  0.3059  0.0720  0.0346
  613BOLB   PO214702  16.167  25.530  25.725 -0.0058 -0.1426 -0.0477
  613BOLB   GL314703  16.036  25.362  25.392  0.2950 -0.1578  0.3683
  613BOLB   GL414704  16.260  25.329  25.135 -0.0437  0.0606  0.0919
  613BOLB   C1C14705  15.749  25.454  25.036  0.1786 -0.1038  0.1110
  613BOLB   C2C14706  15.458  25.181  24.915 -0.0551 -0.1292  0.0629
  613BOLB   C3C14707  15.331  24.821  24.737 -0.2761  0.3993  0.1323
  613BOLB   C4C14708  15.334  24.583  24.486  0.1666  0.1708 -0.2474
  613BOLB   C1D14709  15.927  24.945  25.053  0.0308  0.3446 -0.0476
  613BOLB   C2D14710  16.008  24.509  25.064 -0.2196 -0.2551 -0.3373
  613BOLB   C3D14711  16.192  24.088  24.993  0.2571 -0.1191 -0.2353
  613BOLB   C4D14712  16.445  23.728  25.028  0.1222 -0.1084 -0.0401
  614BOLB   NC114713   9.982  10.543  22.752 -0.0985 -0.1457 -0.1576
  614BOLB   PO114714  10.356  10.354  23.129 -0.1020 -0.0886 -0.1973
  614BOLB   GL114715  10.201  10.279  23.444  0.1968  0.2152  0.1629
  614BOLB   GL214716  10.267  10.002  23.596 -0.0188 -0.0350  0.0619
  614BOLB   C1A14717   9.934  10.373  23.849  0.1762 -0.2288  0.0615
  614BOLB   C2A14718   9.844  10.371  24.206 -0.1754  0.5524  0.1261
  614BOLB   C3A14719   9.710  10.553  24.566 -0.0557  0.0625  0.0012
  614BOLB   C4A14720   9.663  10.583  24.981  0.4271 -0.1208  0.3467
  614BOLB   C1B14721  10.252   9.739  23.845  0.3050  0.2396  0.3169
  614BOLB   C2B14722  10.335   9.606  24.203  0.0216  0.2166 -0.2181
  614BOLB   C3B14723   9.980   9.510  24.562 -0.5063  0.1273 -0.0000
  614BOLB   C4B14724   9.794   9.440  24.904  0.4202 -0.1437 -0.2676
  614BOLB   NC214725   8.829   9.527  27.183  0.1067 -0.1702 -0.0745
  614BOLB   PO214726   9.190   9.602  27.228 -0.2092  0.0218 -0.3093
  614BOLB   GL314727   9.016   9.948  26.896  0.2989 -0.0075  0.1162
  614BOLB   GL414728   8.809   9.767  26.779  0.0804 -0.4285  0.0527
  614BOLB   C1C14729   9.170  10.344  26.610  0.0637 -0.0137  0.2847
  614BOLB   C2C14730   9.364  10.479  26.246  0.0886 -0.2358  0.0134
  614BOLB   C3C14731   9.621  10.525  25.878 -0.0785  0.3518 -0.0539
  614BOLB   C4C14732   9.700  10.470  25.429 -0.3780 -0.0245  0.1662
  614BOLB   C1D14733   8.818   9.706  26.301 -0.1702 -0.1568  0.4469
  614BOLB   C2D14734   8.940   9.811  25.861  0.4215 -0.0833  0.0573
  614BOLB   C3D14735   9.055   9.773  25.354  0.0305  0.1083  0.3916
  614BOLB   C4D14736   9.282   9.686  24.914 -0.0824  0.0634 -0.1075
  615BOLB   NC114737  13.572  23.035  22.591  0.2106  0.3699 -0.1321
  615BOLB   PO114738  13.591  23.130  22.163 -0.2000  0.1454  0.0577
  615BOLB   GL114739  13.416  23.536  22.262 -0.0242  0.1790  0.2648
  615BOLB   GL214740  13.584  23.583  22.504 -0.1539 -0.0928 -0.0779
  615BOLB   C1A14741  13.211  23.888  22.586  0.1076 -0.2012 -0.1116
  615BOLB   C2A14742  13.237  24.233  22.796 -0.3270  0.0449 -0.1515
  615BOLB   C3A14743  13.433  24.575  22.944 -0.0627  0.1560  0.3453
  615BOLB   C4A14744  13.635  24.571  23.305 -0.2635 -0.2945 -0.0484
  615BOLB   C1B14745  13.666  23.907  22.805  0.0504 -0.2532 -0.3059
  615BOLB   C2B14746  13.515  24.101  23.203 -0.0212 -0.1282  0.2624
  615BOLB   C3B14747  13.219  24.294  23.279 -0.0123  0.2777 -0.2383
  615BOLB   C4B14748  12.964  24.423  23.415 -0.2505 -0.0345 -0.1337
  615BOLB   NC214749  14.170  26.511  24.886 -0.1048  0.1190 -0.3129
  615BOLB   PO214750  13.907  26.272  24.963  0.0740  0.3061  0.0035
  615BOLB   GL314751  14.074  25.928  24.819 -0.0812 -0.0549  0.1910
  615BOLB   GL414752  13.797  25.815  25.155  0.0175 -0.4054 -0.1608
  615BOLB   C1C14753  13.788  25.613  24.546 -0.2093 -0.1538  0.1488
  615BOLB   C2C14754  13.658  25.330  24.279  0.2838  0.0460  0.2272
  615BOLB   C3C14755  13.532  25.191  23.995  0.3429  0.0907  0.0403
  615BOLB   C4C14756  13.623  24.732  23.796 -0.1669  0.0713  0.3448
  615BOLB   C1D14757  13.531  25.734  24.968 -0.0841  0.0371  0.1372
  615BOLB   C2D14758  13.267  25.586  24.573 -0.3114 -0.0215  0.0507
  615BOLB   C3D14759  13.126  25.581  24.180  0.0276  0.1472 -0.0784
  615BOLB   C4D14760  13.053  25.467  23.711  0.1307 -0.0766  0.2461
  616BOLB   NC114761  13.764  19.506  23.922 -0.0589  0.3190 -0.2352
  616BOLB   PO114762  13.599  19.548  24.349  0.1683  0.3248 -0.3556
  616BOLB   GL114763  13.532  19.471  24.843 -0.2042 -0.0966 -0.0965
  616BOLB   GL214764  13.822  19.502  25.038  0.1899  0.1087 -0.2235
  616BOLB   C1A14765  13.426  19.513  25.310 -0.0319 -0.2270  0.5389
  616BOLB   C2A14766  13.228  19.720  25.680  0.1039  0.0146 -0.0224
  616BOLB   C3A14767  13.342  19.685  26.076 -0.0612  0.2152  0.2482
  616BOLB   C4A14768  13.683  19.783  26.452 -0.2580 -0.1044  0.0952
  616BOLB   C1B14769  13.990  19.535  25.477  0.0904 -0.1456  0.1622
  616BOLB   C2B14770  14.336  19.622  25.758  0.5412  0.2098  0.3113
  616BOLB   C3B14771  14.589  19.808  26.055  0.1406  0.0999 -0.1396
  616BOLB   C4B14772  14.573  20.081  26.223 -0.1450 -0.1981  0.0634
  616BOLB   NC214773  14.469  20.221  28.432 -0.0261 -0.3400 -0.0614
  616BOLB   PO214774  14.855  19.972  28.585 -0.0338 -0.3422 -0.2703
  616BOLB   GL314775  14.956  19.958  28.134  0.0266  0.2614  0.2289
  616BOLB   GL414776  15.167  19.983  27.890 -0.1977 -0.1804 -0.2299
  616BOLB   C1C14777  14.670  19.682  27.865  0.4717 -0.1240 -0.1681
  616BOLB   C2C14778  14.584  19.601  27.401  0.1383  0.0008  0.1218
  616BOLB   C3C14779  14.374  19.667  26.985  0.0019 -0.2606  0.0245
  616BOLB   C4C14780  13.940  19.825  26.803  0.1429 -0.0401  0.1408
  616BOLB   C1D14781  15.107  19.863  27.478  0.0189 -0.1802 -0.3002
  616BOLB   C2D14782  15.089  19.842  27.040  0.0269 -0.0483  0.4885
  616BOLB   C3D14783  15.112  20.228  26.854 -0.2312  0.0490 -0.0075
  616BOLB   C4D14784  14.810  20.488  26.920  0.2332 -0.1310  0.1379
  617BOLB   NC114785  11.016  14.180  24.110 -0.0067 -0.0258 -0.0381
  617BOLB   PO114786  11.251  14.076  24.394  0.0092  0.0673 -0.3871
  617BOLB   GL114787  10.960  13.956  24.586 -0.0799 -0.0396 -0.0435
  617BOLB   GL214788  11.191  13.692  24.737 -0.1440 -0.2609  0.0011
  617BOLB   C1A14789  10.774  13.737  25.030 -0.2661  0.0394  0.2894
  617BOLB   C2A14790  10.712  13.555  25.373 -0.0191 -0.1181  0.0956
  617BOLB   C3A14791  10.276  13.504  25.456 -0.0672  0.0256  0.1042
  617BOLB   C4A14792  10.175  13.422  25.855 -0.2293  0.0139 -0.2005
  617BOLB   C1B14793  11.177  13.380  25.103  0.3421  0.1493 -0.0730
  617BOLB   C2B14794  11.087  12.919  25.293 -0.1533  0.0612 -0.1542
  617BOLB   C3B14795  11.204  12.652  25.694 -0.3375 -0.1722 -0.0176
  617BOLB   C4B14796  10.918  12.305  25.923 -0.0945 -0.1767  0.1418
  617BOLB   NC214797   8.497  13.525  27.793  0.0132 -0.0634  0.0286
  617BOLB   PO214798   8.330  13.275  27.463  0.0596 -0.0430 -0.0928
  617BOLB   GL314799   8.607  13.064  27.192  0.3849 -0.0961  0.0470
  617BOLB   GL414800   8.567  12.967  27.018  0.2161 -0.0143  0.0915
  617BOLB   C1C14801   9.100  13.139  27.060 -0.1132  0.1742  0.0620
  617BOLB   C2C14802   9.374  13.030  26.905  0.2214 -0.2351  0.1799
  617BOLB   C3C14803   9.704  13.104  26.556  0.2064  0.0279 -0.1302
  617BOLB   C4C14804   9.975  13.306  26.238  0.0212 -0.0586 -0.0335
  617BOLB   C1D14805   8.460  12.915  26.637  0.1641 -0.0739  0.0781
  617BOLB   C2D14806   8.388  12.879  26.281 -0.0821  0.1374 -0.1736
  617BOLB   C3D14807   8.204  12.688  25.975  0.3004 -0.0267 -0.2136
  617BOLB   C4D14808   7.885  12.650  25.738 -0.0182  0.2896 -0.2382
  618BOLB   NC114809  17.305  14.062  24.079  0.0558 -0.2696  0.0155
  618BOLB   PO114810  17.434  13.756  24.343 -0.1512 -0.2101  0.0672
  618BOLB   GL114811  17.765  13.590  24.572  0.0375  0.3916 -0.0009
  618BOLB   GL214812  18.093  13.562  24.481 -0.2265 -0.0511  0.0118
  618BOLB   C1A14813  17.942  13.437  25.030 -0.4591 -0.2865  0.3055
  618BOLB   C2A14814  18.045  13.287  25.534 -0.0974 -0.0665  0.2201
  618BOLB   C3A14815  18.378  13.050  25.722 -0.2216  0.2703  0.0056
  618BOLB   C4A14816  18.565  12.874  26.023  0.3958 -0.1429  0.2923
  618BOLB   C1B14817  18.416  13.334  24.723 -0.3792  0.0351  0.0283
  618BOLB   C2B14818  18.635  13.486  25.063 -0.1077 -0.0527  0.2507
  618BOLB   C3B14819  18.951  13.304  25.254  0.0774  0.0961 -0.2723
  618BOLB   C4B14820  19.201  12.937  25.390  0.1695 -0.2329  0.0098
  618BOLB   NC214821  19.045  11.491  28.271 -0.0527 -0.1106 -0.0151
  618BOLB   PO214822  19.170  11.708  27.904  0.1654 -0.0012  0.0427
  618BOLB   GL314823  19.363  11.802  27.576  0.1883 -0.2657  0.3912
  618BOLB   GL414824  19.430  11.584  27.161  0.1688  0.0512  0.1665
  618BOLB   C1C14825  18.943  11.971  27.272 -0.0165 -0.0565 -0.2728
  618BOLB   C2C14826  18.957  12.205  26.982  0.4626  0.0962 -0.2815
  618BOLB   C3C14827  18.779  12.263  26.571 -0.0492 -0.1145 -0.0064
  618BOLB   C4C14828  18.529  12.563  26.397 -0.0645  0.3253 -0.1211
  618BOLB   C1D14829  19.162  11.726  26.871  0.0172 -0.0279  0.0821
  618BOLB   C2D14830  18.946  11.761  26.475 -0.1536  0.0305  0.2009
  618BOLB   C3D14831  18.534  11.647  26.361  0.1326 -0.2453 -0.3750
  618BOLB   C4D14832  18.078  11.720  26.278  0.1693 -0.2252 -0.0729
  619BOLB   NC114833  15.267  23.682  22.062 -0.0560  0.3080 -0.0465
  619BOLB   PO114834  15.146  23.999  21.706 -0.0133 -0.2176  0.2427
  619BOLB   GL114835  15.243  24.218  22.023 -0.1184  0.3735  0.2802
  619BOLB   GL214836  15.437  24.142  22.248 -0.2846  0.1749  0.1182
  619BOLB   C1A14837  15.301  24.615  22.223  0.2017  0.1249 -0.1344
  619BOLB   C2A14838  15.368  24.882  22.527 -0.2938  0.0273  0.2451
  619BOLB   C3A14839  15.409  25.267  22.712 -0.5082 -0.1319 -0.1342
  619BOLB   C4A14840  15.581  25.572  23.006  0.3077 -0.0498  0.0784
  619BOLB   C1B14841  15.758  24.531  22.425 -0.0678 -0.2358  0.2045
  619BOLB   C2B14842  15.960  24.774  22.631  0.0098 -0.2941  0.0669
  619BOLB   C3B14843  16.219  24.815  22.903 -0.1973 -0.5792  0.0280
  619BOLB   C4B14844  16.204  25.072  23.315  0.0389  0.0127  0.1827
  619BOLB   NC214845  16.713  27.735  24.113  0.2721 -0.2990 -0.2518
  619BOLB   PO214846  16.727  27.238  24.116 -0.1287  0.1426  0.2316
  619BOLB   GL314847  16.846  26.893  23.780  0.1984  0.1571  0.2526
  619BOLB   GL414848  17.017  26.557  23.843 -0.0222 -0.2999 -0.2441
  619BOLB   C1C14849  16.515  26.575  23.523 -0.1919 -0.1707  0.0123
  619BOLB   C2C14850  16.366  26.302  23.586 -0.2593 -0.3434 -0.1241
  619BOLB   C3C14851  16.084  26.086  23.402  0.4054  0.0275  0.1010
  619BOLB   C4C14852  15.698  25.862  23.305  0.1616  0.1710  0.0652
  619BOLB   C1D14853  17.054  26.145  23.841 -0.1677  0.0514 -0.0796
  619BOLB   C2D14854  17.054  25.728  23.626 -0.0206  0.1482  0.0696
  619BOLB   C3D14855  17.044  25.499  23.327 -0.2124  0.0294  0.1888
  619BOLB   C4D14856  16.705  25.654  23.090 -0.0729 -0.0597  0.1824
  620BOLB   NC114857  21.521  22.019  21.850 -0.0014  0.1774 -0.0059
  620BOLB   PO114858  21.302  21.812  22.163 -0.3467 -0.3091 -0.0911
  620BOLB   GL114859  21.540  21.940  22.480 -0.0442 -0.2607 -0.1443
  620BOLB   GL214860  21.445  21.950  22.660  0.0158  0.1251  0.0647
  620BOLB   C1A14861  21.889  21.869  22.815 -0.2229  0.2254 -0.1703
  620BOLB   C2A14862  22.005  21.776  23.283  0.1294 -0.0704  0.0456
  620BOLB   C3A14863  22.144  21.849  23.706  0.2112  0.1094 -0.3748
  620BOLB   C4A14864  22.161  22.216  23.913  0.0032  0.0145 -0.5937
  620BOLB   C1B14865  21.524  22.024  23.121 -0.1471  0.0525  0.3333
  620BOLB   C2B14866  21.780  22.182  23.509  0.0139  0.2643 -0.2139
  620BOLB   C3B14867  21.975  22.525  23.547 -0.1065 -0.0822  0.1719
  620BOLB   C4B14868  21.917  22.971  23.678  0.0613  0.0800 -0.0866
  620BOLB   NC214869  22.198  24.384  25.662  0.0407  0.0163 -0.3720
  620BOLB   PO214870  21.773  24.464  25.357 -0.0658  0.4217  0.2619
  620BOLB   GL314871  21.921  24.108  25.095  0.0307  0.4367  0.0862
  620BOLB   GL414872  21.672  24.169  24.926  0.1715 -0.0489  0.0729
  620BOLB   C1C14873  22.068  23.793  24.825  0.2538 -0.0116 -0.1086
  620BOLB   C2C14874  21.934  23.326  24.633 -0.1154 -0.2365 -0.1958
  620BOLB   C3C14875  22.017  23.097  24.225  0.0834 -0.1183 -0.1253
  620BOLB   C4C14876  22.133  22.662  24.074  0.0415 -0.0692 -0.1658
  620BOLB   C1D14877  21.527  23.772  24.696  0.4402  0.2477  0.1257
  620BOLB   C2D14878  21.359  23.571  24.396 -0.0484  0.2540  0.2392
  620BOLB   C3D14879  21.495  23.142  24.144 -0.3015 -0.2921 -0.0125
  620BOLB   C4D14880  21.605  22.667  23.871 -0.1845  0.1668 -0.1291
  621BOLB   NC114881  16.849  20.184  23.898  0.0536 -0.1967 -0.0196
  621BOLB   PO114882  16.757  20.573  23.529 -0.0773 -0.1209  0.2238
  621BOLB   GL114883  16.659  20.671  23.965  0.1423  0.3564  0.1283
  621BOLB   GL214884  16.404  20.662  24.231 -0.2663 -0.2633  0.1526
  621BOLB   C1A14885  16.953  20.871  24.278  0.0043  0.1586  0.1221
  621BOLB   C2A14886  17.004  20.996  24.637  0.0882 -0.0682  0.3400
  621BOLB   C3A14887  17.242  21.224  25.046 -0.0292 -0.1841 -0.0368
  621BOLB   C4A14888  17.437  21.254  25.423  0.1778  0.2110  0.2170
  621BOLB   C1B14889  16.463  20.970  24.451 -0.1721  0.0883  0.1494
  621BOLB   C2B14890  16.490  21.084  24.807 -0.0442 -0.0629  0.0751
  621BOLB   C3B14891  16.723  21.380  25.060 -0.1387 -0.1457  0.1660
  621BOLB   C4B14892  16.959  21.485  25.351  0.0412  0.0292 -0.1464
  621BOLB   NC214893  16.645  21.694  27.810  0.1385 -0.2376 -0.2170
  621BOLB   PO214894  16.939  21.497  27.558 -0.1995  0.3514  0.0448
  621BOLB   GL314895  16.882  21.253  27.250  0.1663 -0.4330 -0.0396
  621BOLB   GL414896  17.033  21.389  26.968 -0.3526  0.0867 -0.0653
  621BOLB   C1C14897  17.064  20.901  26.952 -0.2157 -0.1673  0.2339
  621BOLB   C2C14898  17.242  20.953  26.521 -0.0369 -0.2288 -0.1069
  621BOLB   C3C14899  17.528  21.028  26.205  0.0818  0.2261  0.0177
  621BOLB   C4C14900  17.547  21.221  25.810 -0.2652  0.0514 -0.0140
  621BOLB   C1D14901  17.041  21.405  26.592  0.0010 -0.0982 -0.1664
  621BOLB   C2D14902  17.100  21.453  26.163  0.3288  0.1099  0.4328
  621BOLB   C3D14903  17.135  21.667  25.766  0.1897 -0.0915  0.0501
  621BOLB   C4D14904  17.320  21.834  25.342  0.0158  0.1229 -0.1456
  622BOLB   NC114905  13.109  19.637  24.184  0.3297 -0.0202  0.2268
  622BOLB   PO114906  12.729  19.587  24.025 -0.0328 -0.0155  0.3466
  622BOLB   GL114907  12.676  19.802  24.360  0.0767 -0.0337 -0.1171
  622BOLB   GL214908  12.915  19.813  24.565 -0.2809  0.1470  0.3041
  622BOLB   C1A14909  12.635  20.258  24.446 -0.3132  0.4246  0.1519
  622BOLB   C2A14910  12.512  20.585  24.705  0.1632 -0.3009  0.0644
  622BOLB   C3A14911  12.237  20.719  25.008 -0.0740  0.1987  0.2217
  622BOLB   C4A14912  11.835  20.900  25.203 -0.0972  0.1060 -0.2435
  622BOLB   C1B14913  12.658  19.886  24.833  0.0567  0.0876  0.0521
  622BOLB   C2B14914  12.595  20.218  25.140 -0.2132  0.0204 -0.0863
  622BOLB   C3B14915  12.424  20.492  25.480  0.3490 -0.0219  0.0266
  622BOLB   C4B14916  12.275  20.936  25.486 -0.0340 -0.0939  0.0106
  622BOLB   NC214917  10.450  21.979  26.901 -0.0422 -0.1229  0.1063
  622BOLB   PO214918  10.850  22.082  26.989 -0.0493 -0.3686 -0.0342
  622BOLB   GL314919  10.864  21.932  26.534  0.3178  0.0294  0.2653
  622BOLB   GL414920  10.710  21.635  26.414 -0.1053 -0.1732  0.0957
  622BOLB   C1C14921  11.086  21.843  26.185 -0.0919 -0.0311 -0.1072
  622BOLB   C2C14922  11.125  21.538  25.878 -0.0339  0.5922  0.0315
  622BOLB   C3C14923  11.412  21.218  25.827  0.3770  0.1394  0.0396
  622BOLB   C4C14924  11.721  21.064  25.583  0.0856 -0.0071 -0.3244
  622BOLB   C1D14925  11.086  21.375  26.445  0.2466  0.1619  0.0785
  622BOLB   C2D14926  11.518  21.086  26.411 -0.2011  0.3350  0.0543
  622BOLB   C3D14927  11.903  21.130  26.152 -0.2788 -0.1235  0.1708
  622BOLB   C4D14928  12.232  21.209  25.892  0.1830  0.1335  0.1377
  623BOLB   NC114929  10.887  16.063  23.504 -0.0527  0.0013 -0.1465
  623BOLB   PO114930  10.986  16.113  23.906  0.0095 -0.0353  0.2557
  623BOLB   GL114931  10.830  16.291  24.271 -0.0236 -0.1453 -0.0040
  623BOLB   GL214932  10.490  16.503  24.232  0.0259  0.0617  0.2309
  623BOLB   C1A14933  10.756  16.215  24.707 -0.2103  0.1673  0.0322
  623BOLB   C2A14934  10.845  16.212  25.189  0.0679 -0.1277  0.0382
  623BOLB   C3A14935  10.719  16.388  25.551 -0.1824 -0.2056 -0.1587
  623BOLB   C4A14936  10.538  16.100  25.976 -0.0929 -0.0193  0.3303
  623BOLB   C1B14937  10.132  16.186  24.525 -0.5058  0.1929  0.4688
  623BOLB   C2B14938   9.812  16.046  24.855 -0.2699  0.0216 -0.2256
  623BOLB   C3B14939   9.408  15.985  25.102 -0.0161 -0.2138  0.2196
  623BOLB   C4B14940   9.080  15.863  25.366 -0.1520  0.4063  0.5303
  623BOLB   NC214941   9.741  16.320  28.243  0.2708  0.0630 -0.1896
  623BOLB   PO214942   9.999  15.950  28.307  0.0999  0.3481  0.1246
  623BOLB   GL314943  10.142  16.029  27.850  0.0523 -0.1222 -0.0772
  623BOLB   GL414944   9.839  16.130  27.618 -0.1289  0.2324 -0.0761
  623BOLB   C1C14945  10.452  16.214  27.603  0.0894 -0.0636  0.0289
  623BOLB   C2C14946  10.608  16.078  27.250 -0.0416 -0.0514 -0.3032
  623BOLB   C3C14947  10.448  16.085  26.836 -0.0954  0.0338 -0.0481
  623BOLB   C4C14948  10.549  16.215  26.414  0.1693 -0.1582 -0.1776
  623BOLB   C1D14949  10.051  16.354  27.299 -0.2967 -0.2651  0.1946
  623BOLB   C2D14950  10.361  16.521  27.211  0.1412  0.0508 -0.2639
  623BOLB   C3D14951  10.861  16.490  27.148  0.1047  0.0002  0.1298
  623BOLB   C4D14952  11.333  16.564  27.254  0.1612  0.0117  0.2339
  624BOLB   NC114953  11.023  23.987  21.657  0.1972  0.0210 -0.1846
  624BOLB   PO114954  11.389  23.947  21.912 -0.2430  0.2557 -0.1465
  624BOLB   GL114955  11.389  23.821  22.394 -0.0421 -0.0159 -0.0770
  624BOLB   GL214956  11.612  23.732  22.603  0.2327  0.1755 -0.1938
  624BOLB   C1A14957  11.176  23.882  22.755 -0.2491  0.1442 -0.0156
  624BOLB   C2A14958  11.343  24.039  23.140  0.2347  0.1097  0.0580
  624BOLB   C3A14959  11.314  24.132  23.554  0.1769 -0.0174 -0.0508
  624BOLB   C4A14960  11.184  24.431  23.785 -0.0369  0.2257 -0.1153
  624BOLB   C1B14961  11.818  23.961  22.918  0.2368  0.0273  0.0409
  624BOLB   C2B14962  12.258  24.045  22.958 -0.2711  0.1259  0.1492
  624BOLB   C3B14963  12.505  24.233  23.270  0.2727 -0.0271  0.0214
  624BOLB   C4B14964  12.465  24.612  23.182 -0.4616 -0.2368 -0.0796
  624BOLB   NC214965  10.923  25.856  25.131 -0.0129 -0.3201 -0.0230
  624BOLB   PO214966  10.573  25.720  25.369 -0.4395 -0.2426  0.5081
  624BOLB   GL314967  10.914  25.300  25.269  0.2872 -0.0966  0.2326
  624BOLB   GL414968  11.254  25.208  25.350  0.1358  0.2031  0.3276
  624BOLB   C1C14969  11.010  25.212  24.854  0.1941 -0.1645 -0.2373
  624BOLB   C2C14970  11.355  25.199  24.714  0.0505 -0.1080 -0.1214
  624BOLB   C3C14971  11.496  24.832  24.477 -0.1526 -0.1334  0.1209
  624BOLB   C4C14972  11.433  24.555  24.113  0.1898 -0.2534 -0.1380
  624BOLB   C1D14973  11.443  24.913  25.095 -0.1923  0.1149  0.2141
  624BOLB   C2D14974  11.826  24.974  24.892 -0.1666  0.0300  0.0300
  624BOLB   C3D14975  11.967  24.587  24.688  0.0698  0.2025 -0.0192
  624BOLB   C4D14976  11.978  24.517  24.192  0.3342  0.0941 -0.1950
  625BOLB   NC114977  14.938  19.815  24.561 -0.0555  0.0122 -0.0066
  625BOLB   PO114978  14.575  20.079  24.377 -0.1029  0.5396  0.0243
  625BOLB   GL114979  14.641  20.282  24.762  0.0352  0.0853 -0.2135
  625BOLB   GL214980  14.875  20.203  24.950 -0.0979 -0.0882 -0.0603
  625BOLB   C1A14981  14.530  20.607  25.014  0.0053  0.0963 -0.0276
  625BOLB   C2A14982  14.448  20.644  25.493  0.0093 -0.2413  0.2207
  625BOLB   C3A14983  14.140  20.385  25.799  0.1943  0.2031  0.1162
  625BOLB   C4A14984  13.811  20.534  25.964  0.2798 -0.3791  0.3640
  625BOLB   C1B14985  14.949  20.374  25.283  0.1060  0.0906  0.0941
  625BOLB   C2B14986  15.126  20.296  25.726  0.1367 -0.0882  0.3476
  625BOLB   C3B14987  15.055  20.276  26.050  0.1577  0.0874  0.0134
  625BOLB   C4B14988  14.982  20.283  26.399 -0.0899  0.0953  0.2844
  625BOLB   NC214989  12.470  21.855  27.622  0.3725 -0.0168 -0.3523
  625BOLB   PO214990  12.867  22.154  27.578  0.3856 -0.2882  0.1948
  625BOLB   GL314991  13.004  21.783  27.283  0.0593  0.0030 -0.1364
  625BOLB   GL414992  12.686  21.614  27.170 -0.3270 -0.2529  0.3174
  625BOLB   C1C14993  13.052  21.550  26.846 -0.3312  0.0769  0.0490
  625BOLB   C2C14994  13.052  21.438  26.434 -0.4745  0.0935  0.1052
  625BOLB   C3C14995  13.287  21.158  26.128  0.3317 -0.1180  0.3223
  625BOLB   C4C14996  13.560  20.824  25.915  0.1055 -0.1098  0.0698
  625BOLB   C1D14997  12.821  21.241  27.208  0.0239 -0.0640  0.1876
  625BOLB   C2D14998  12.952  20.894  26.976 -0.3482  0.2355  0.1187
  625BOLB   C3D14999  13.144  20.554  26.888  0.1444  0.0416  0.1536
  625BOLB   C4D15000  13.213  20.079  26.641  0.1499 -0.2594  0.0838
  626BOLB   NC115001   9.939  21.926  22.519 -0.0763 -0.1456 -0.0958
  626BOLB   PO115002  10.109  21.788  22.973  0.1243 -0.1872  0.2281
  626BOLB   GL115003  10.157  21.733  23.401 -0.1988  0.1361 -0.0234
  626BOLB   GL215004  10.198  22.032  23.530 -0.1577 -0.2911 -0.0904
  626BOLB   C1A15005  10.009  21.662  23.863 -0.2057 -0.2577  0.1021
  626BOLB   C2A15006   9.929  21.548  24.212  0.0331  0.5072  0.1663
  626BOLB   C3A15007   9.791  21.746  24.620  0.4591 -0.0362  0.3836
  626BOLB   C4A15008   9.854  21.826  25.080 -0.0354 -0.1243 -0.2604
  626BOLB   C1B15009  10.118  22.236  23.913  0.0060  0.2977 -0.1934
  626BOLB   C2B15010  10.101  22.637  24.102 -0.0487 -0.0829 -0.1233
  626BOLB   C3B15011  10.069  22.832  24.461 -0.1699  0.1126 -0.1690
  626BOLB   C4B15012  10.495  22.842  24.719 -0.1383 -0.1046  0.1510
  626BOLB   NC215013   9.198  21.665  27.100  0.2305 -0.1677 -0.0857
  626BOLB   PO215014   9.036  22.096  26.920 -0.2971  0.1296  0.0012
  626BOLB   GL315015   9.274  21.984  26.587  0.0619 -0.0789 -0.1443
  626BOLB   GL415016   9.375  22.132  26.231 -0.0882 -0.3083 -0.1415
  626BOLB   C1C15017   9.178  21.632  26.366 -0.0502 -0.5188  0.1570
  626BOLB   C2C15018   9.360  21.433  26.186 -0.2606  0.2198  0.0128
  626BOLB   C3C15019   9.515  21.542  25.789  0.0223  0.1445 -0.1302
  626BOLB   C4C15020   9.674  21.707  25.453 -0.0000  0.2205  0.1154
  626BOLB   C1D15021   9.666  21.842  26.329  0.2248 -0.0255 -0.3539
  626BOLB   C2D15022   9.854  21.526  26.374 -0.4486 -0.2379 -0.0405
  626BOLB   C3D15023   9.944  21.287  25.939 -0.2093  0.1669 -0.2210
  626BOLB   C4D15024   9.859  21.230  25.499 -0.2362 -0.1276  0.0456
  627BOLB   NC115025  16.758  16.725  25.247  0.1953  0.1713 -0.0894
  627BOLB   PO115026  16.504  16.383  25.087  0.2634 -0.0513 -0.2224
  627BOLB   GL115027  16.574  16.224  25.422  0.0456  0.3792 -0.0470
  627BOLB   GL215028  16.445  16.032  25.528 -0.0708 -0.2493  0.2501
  627BOLB   C1A15029  16.782  16.327  25.797  0.2050  0.1846  0.1426
  627BOLB   C2A15030  16.884  16.138  26.229  0.1961 -0.0094  0.0560
  627BOLB   C3A15031  16.706  16.089  26.580  0.1449 -0.0855  0.0985
  627BOLB   C4A15032  16.751  15.783  26.730  0.0160 -0.1950 -0.1045
  627BOLB   C1B15033  16.444  16.040  25.949  0.3006  0.0487  0.0848
  627BOLB   C2B15034  16.474  15.747  26.278  0.1000 -0.2004  0.1440
  627BOLB   C3B15035  16.446  15.267  26.358  0.2790  0.2646 -0.2619
  627BOLB   C4B15036  16.595  14.869  26.265  0.0749  0.1803  0.0700
  627BOLB   NC215037  16.794  15.361  28.893 -0.1511 -0.2279 -0.1927
  627BOLB   PO215038  17.140  15.328  28.861  0.2743 -0.0242  0.1365
  627BOLB   GL315039  17.167  15.515  28.399  0.0440 -0.0827 -0.0679
  627BOLB   GL415040  17.029  15.785  28.488 -0.0362 -0.1035  0.1151
  627BOLB   C1C15041  17.223  15.354  28.051  0.3126  0.0604  0.2516
  627BOLB   C2C15042  17.476  15.480  27.643 -0.0539 -0.1216 -0.0833
  627BOLB   C3C15043  17.370  15.559  27.293  0.6675  0.0898  0.4614
  627BOLB   C4C15044  17.034  15.654  26.935 -0.1163 -0.3018  0.0003
  627BOLB   C1D15045  16.812  15.744  28.136  0.2782 -0.0492 -0.2718
  627BOLB   C2D15046  16.483  15.776  27.931 -0.2633 -0.0085  0.1601
  627BOLB   C3D15047  16.266  15.378  27.655  0.1544 -0.3510 -0.0930
  627BOLB   C4D15048  16.142  15.137  27.264  0.2906 -0.0330  0.0460
  628BOLB   NC115049  18.581  10.712  22.212 -0.1342  0.2443  0.0883
  628BOLB   PO115050  18.558  11.082  22.221 -0.2299  0.1569 -0.1648
  628BOLB   GL115051  18.734  10.838  22.647 -0.0850 -0.3352  0.1264
  628BOLB   GL215052  18.638  10.517  22.668 -0.0696 -0.1914  0.0393
  628BOLB   C1A15053  18.950  10.678  23.155  0.0260  0.0595  0.0112
  628BOLB   C2A15054  19.165  10.657  23.538 -0.0276 -0.3807  0.4228
  628BOLB   C3A15055  19.341  10.252  23.675 -0.0105  0.1754 -0.2196
  628BOLB   C4A15056  19.476  10.058  23.885 -0.0750 -0.1714 -0.0754
  628BOLB   C1B15057  18.520  10.180  22.889 -0.1506  0.0837 -0.0856
  628BOLB   C2B15058  18.633   9.854  23.200 -0.2264 -0.1930  0.1843
  628BOLB   C3B15059  18.739   9.502  23.373 -0.0140  0.0036 -0.1963
  628BOLB   C4B15060  18.556   9.062  23.369 -0.0121 -0.0706 -0.2671
  628BOLB   NC215061  21.333   9.165  25.349 -0.2651  0.3474  0.3244
  628BOLB   PO215062  21.011   9.130  25.652  0.1278 -0.1575 -0.0761
  628BOLB   GL315063  20.664   9.405  25.477 -0.0768  0.1099  0.2644
  628BOLB   GL415064  20.392   9.509  25.689 -0.0103  0.1394 -0.0260
  628BOLB   C1C15065  20.480   9.538  25.192  0.0655 -0.1874  0.0372
  628BOLB   C2C15066  20.087   9.757  25.027  0.0861  0.0673  0.4247
  628BOLB   C3C15067  19.988   9.844  24.702 -0.1889  0.1842 -0.0100
  628BOLB   C4C15068  19.821  10.043  24.360  0.4091 -0.1622 -0.1888
  628BOLB   C1D15069  20.605   9.946  25.462 -0.0909  0.0621 -0.4762
  628BOLB   C2D15070  20.860  10.423  25.268  0.0159  0.0302  0.1955
  628BOLB   C3D15071  21.080  10.683  25.105 -0.0168 -0.0542  0.0228
  628BOLB   C4D15072  21.073  10.800  24.665  0.0692 -0.0264  0.4690
  629BOLB   NC115073   9.467  23.201  21.894 -0.0282  0.0895  0.0595
  629BOLB   PO115074   9.091  23.092  22.186 -0.0719  0.0333  0.2598
  629BOLB   GL115075   9.569  23.237  22.402 -0.0830  0.2835  0.0835
  629BOLB   GL215076   9.658  23.537  22.396  0.2279 -0.1360 -0.4096
  629BOLB   C1A15077   9.725  23.276  22.844  0.0431 -0.1787 -0.0199
  629BOLB   C2A15078  10.153  23.021  23.026  0.0066 -0.1626  0.0282
  629BOLB   C3A15079  10.205  23.115  23.499  0.2928  0.0606  0.1724
  629BOLB   C4A15080  10.290  23.280  23.885  0.2226 -0.0746 -0.1179
  629BOLB   C1B15081  10.024  23.692  22.554 -0.3815  0.5038 -0.2375
  629BOLB   C2B15082  10.217  23.676  23.102  0.0598  0.1775  0.0441
  629BOLB   C3B15083  10.523  23.729  23.501  0.1771  0.0619 -0.5448
  629BOLB   C4B15084  10.600  23.684  23.838 -0.1281  0.0301  0.1892
  629BOLB   NC215085   8.484  23.898  25.799  0.0478 -0.0687  0.3825
  629BOLB   PO215086   8.900  23.838  25.752 -0.2242 -0.0630  0.1928
  629BOLB   GL315087   9.129  23.517  25.635 -0.2730 -0.0345  0.1751
  629BOLB   GL415088   9.075  23.371  25.929 -0.3357  0.2247 -0.1625
  629BOLB   C1C15089   9.510  23.303  25.471 -0.0807 -0.1981  0.1557
  629BOLB   C2C15090   9.756  23.345  25.113 -0.0200  0.1705  0.0227
  629BOLB   C3C15091   9.991  23.369  24.743  0.1244  0.1834  0.0592
  629BOLB   C4C15092  10.107  23.277  24.283  0.0879  0.2271 -0.1804
  629BOLB   C1D15093   9.349  23.050  25.848 -0.0959  0.0653 -0.0434
  629BOLB   C2D15094   9.550  22.845  25.575 -0.0939  0.2838  0.0570
  629BOLB   C3D15095   9.514  22.871  25.152  0.0664 -0.0422  0.0757
  629BOLB   C4D15096   9.627  22.703  24.712  0.0296  0.0468 -0.0593
  630BOLB   NC115097  13.236  23.680  21.560  0.1143 -0.0215 -0.0582
  630BOLB   PO115098  13.339  23.920  21.876  0.1767  0.1061  0.0074
  630BOLB   GL115099  13.507  24.270  22.061  0.2512 -0.0767  0.1856
  630BOLB   GL215100  13.869  24.485  21.906  0.0380  0.1359  0.2389
  630BOLB   C1A15101  13.903  24.234  22.346  0.0039  0.2375 -0.6268
  630BOLB   C2A15102  13.969  24.331  22.834  0.0078 -0.1245  0.0506
  630BOLB   C3A15103  14.209  24.525  23.172  0.0065  0.0933 -0.1276
  630BOLB   C4A15104  14.124  24.669  23.597 -0.1257  0.0663 -0.0833
  630BOLB   C1B15105  13.638  24.832  21.990  0.3423  0.1209 -0.0145
  630BOLB   C2B15106  13.374  25.094  22.280 -0.2353  0.2196 -0.2750
  630BOLB   C3B15107  13.415  25.393  22.625  0.1573 -0.1125 -0.0324
  630BOLB   C4B15108  13.614  25.498  23.031 -0.1608  0.2620 -0.0177
  630BOLB   NC215109  14.042  25.343  25.885  0.2402  0.1135 -0.0324
  630BOLB   PO215110  13.749  25.607  25.929 -0.1657 -0.2302 -0.0358
  630BOLB   GL315111  13.664  25.450  25.551  0.0754  0.0583 -0.2822
  630BOLB   GL415112  13.556  25.119  25.646  0.0491  0.3497 -0.5531
  630BOLB   C1C15113  13.623  25.318  25.187 -0.1384  0.0734  0.1913
  630BOLB   C2C15114  13.786  25.164  24.747  0.0579  0.2412  0.2431
  630BOLB   C3C15115  13.787  24.816  24.409  0.0686 -0.0197 -0.1633
  630BOLB   C4C15116  14.017  24.686  24.088 -0.2640 -0.0648  0.1275
  630BOLB   C1D15117  13.226  24.913  25.396 -0.0464  0.1091 -0.0861
  630BOLB   C2D15118  12.961  24.853  24.909  0.0524 -0.1502 -0.0667
  630BOLB   C3D15119  12.887  24.626  24.490 -0.3816  0.0995  0.2540
  630BOLB   C4D15120  12.920  24.190  24.254 -0.0529 -0.0925 -0.0557
  631BOLB   NC115121  17.020  14.045  24.554  0.1849  0.0061  0.2454
  631BOLB   PO115122  16.957  14.462  24.326 -0.2120 -0.3757 -0.0346
  631BOLB   GL115123  17.085  14.435  24.850  0.0383 -0.0419  0.1005
  631BOLB   GL215124  17.263  14.807  25.079  0.4457 -0.1542 -0.2459
  631BOLB   C1A15125  17.285  14.262  25.160 -0.2381  0.1868  0.1615
  631BOLB   C2A15126  17.199  13.969  25.373  0.0719 -0.0391  0.1658
  631BOLB   C3A15127  17.061  13.636  25.682 -0.2483  0.1774 -0.1052
  631BOLB   C4A15128  17.037  13.282  25.996 -0.0868 -0.3098  0.1481
  631BOLB   C1B15129  17.292  14.957  25.485  0.2332  0.3053  0.2681
  631BOLB   C2B15130  17.394  14.894  25.870 -0.0870  0.1229  0.1873
  631BOLB   C3B15131  17.599  14.833  26.249 -0.0934 -0.3627 -0.0129
  631BOLB   C4B15132  17.807  14.838  26.716  0.1696 -0.0372  0.1900
  631BOLB   NC215133  18.281  11.959  27.912 -0.0133 -0.2811 -0.1403
  631BOLB   PO215134  18.533  12.373  27.800  0.0883  0.4111  0.0698
  631BOLB   GL315135  18.182  12.478  27.620  0.0727  0.1219  0.2183
  631BOLB   GL415136  17.955  12.279  27.511  0.2330 -0.2768  0.0898
  631BOLB   C1C15137  18.045  12.635  27.247  0.2518  0.2632  0.0633
  631BOLB   C2C15138  18.074  12.696  26.748 -0.1910 -0.1957 -0.2150
  631BOLB   C3C15139  17.812  12.959  26.491  0.0565 -0.5190 -0.1025
  631BOLB   C4C15140  17.432  13.159  26.287 -0.2840 -0.3716 -0.1897
  631BOLB   C1D15141  17.555  12.658  27.432 -0.1720  0.0730 -0.2220
  631BOLB   C2D15142  17.187  12.766  27.201  0.3976  0.0607  0.2019
  631BOLB   C3D15143  16.863  12.723  26.810 -0.2255 -0.2041 -0.1912
  631BOLB   C4D15144  16.571  12.683  26.536  0.0224 -0.7995 -0.2669
  632BOLB   NC115145  20.514  11.335  22.110  0.4038 -0.2316 -0.2588
  632BOLB   PO115146  20.700  11.620  22.087 -0.2056 -0.2056 -0.0943
  632BOLB   GL115147  20.836  11.502  22.487  0.2570  0.0931 -0.1501
  632BOLB   GL215148  20.892  11.151  22.475 -0.1230 -0.1668  0.1107
  632BOLB   C1A15149  20.755  11.532  22.871 -0.0580 -0.1586  0.1679
  632BOLB   C2A15150  20.789  11.418  23.329  0.2661 -0.0610 -0.2491
  632BOLB   C3A15151  20.685  11.235  23.705  0.4821  0.1081  0.2664
  632BOLB   C4A15152  20.529  10.817  23.801 -0.2589  0.0371 -0.1421
  632BOLB   C1B15153  20.712  10.973  22.827 -0.3643 -0.2539  0.1586
  632BOLB   C2B15154  20.676  10.843  23.222  0.0126 -0.2079  0.5080
  632BOLB   C3B15155  20.706  10.470  23.369  0.0117 -0.1404 -0.2475
  632BOLB   C4B15156  20.824  10.033  23.517 -0.0238 -0.1375  0.1086
  632BOLB   NC215157  21.628  10.281  26.170 -0.0952 -0.0068  0.1195
  632BOLB   PO215158  21.432  10.057  25.888 -0.2222  0.0501  0.2950
  632BOLB   GL315159  21.409   9.986  25.426  0.0543 -0.0652  0.4635
  632BOLB   GL415160  21.387   9.668  25.285 -0.0689  0.0648 -0.0551
  632BOLB   C1C15161  21.298  10.205  25.101  0.0133 -0.0235 -0.1137
  632BOLB   C2C15162  20.874  10.337  24.744  0.0109 -0.0592  0.0313
  632BOLB   C3C15163  20.766  10.168  24.317 -0.1625 -0.3640 -0.1663
  632BOLB   C4C15164  20.654  10.389  24.028 -0.2165  0.1238  0.5998
  632BOLB   C1D15165  20.965   9.827  25.141  0.1881  0.0348  0.0578
  632BOLB   C2D15166  20.792   9.813  24.680 -0.0724 -0.0601 -0.0218
  632BOLB   C3D15167  20.501   9.791  24.438  0.1374  0.1451  0.0955
  632BOLB   C4D15168  20.671   9.732  23.977 -0.0981 -0.0837 -0.1955
  633BOLB   NC115169   9.847  19.491  22.767 -0.0387 -0.1161  0.1397
  633BOLB   PO115170   9.617  19.313  23.200  0.0477  0.0430  0.0170
  633BOLB   GL115171   9.511  19.408  23.552  0.1955 -0.2768  0.3268
  633BOLB   GL215172   9.765  19.359  23.834 -0.1570  0.1686  0.0339
  633BOLB   C1A15173   9.158  19.364  23.789  0.0336  0.2668  0.0959
  633BOLB   C2A15174   8.757  19.338  23.966  0.0837 -0.4994  0.2243
  633BOLB   C3A15175   8.839  19.047  24.163 -0.1652 -0.1095 -0.2284
  633BOLB   C4A15176   8.584  18.603  24.162 -0.2264  0.1679  0.4178
  633BOLB   C1B15177   9.467  19.454  24.146 -0.0114 -0.1580 -0.2158
  633BOLB   C2B15178   9.030  19.524  24.330 -0.1928 -0.3857  0.0264
  633BOLB   C3B15179   8.809  19.243  24.677 -0.2096  0.2680 -0.0149
  633BOLB   C4B15180   8.338  19.286  24.877  0.0356  0.0985  0.0904
  633BOLB   NC215181   7.377  19.722  26.413 -0.0720  0.2392 -0.0423
  633BOLB   PO215182   7.620  19.338  26.348  0.1797  0.1218  0.0464
  633BOLB   GL315183   7.755  19.190  26.035  0.2144  0.0475  0.4056
  633BOLB   GL415184   7.992  19.459  25.971 -0.2410  0.2362  0.1019
  633BOLB   C1C15185   7.929  19.018  25.660  0.5458 -0.1101  0.1226
  633BOLB   C2C15186   8.145  18.797  25.323 -0.4571  0.3043  0.0132
  633BOLB   C3C15187   8.275  18.699  24.921 -0.0700  0.0930  0.0347
  633BOLB   C4C15188   8.330  18.373  24.459  0.1500 -0.0332 -0.0089
  633BOLB   C1D15189   8.357  19.354  25.865 -0.0141  0.0240  0.0125
  633BOLB   C2D15190   8.614  18.941  25.761  0.2820 -0.2172 -0.1035
  633BOLB   C3D15191   8.851  18.470  25.839  0.0990 -0.1893 -0.2060
  633BOLB   C4D15192   9.184  18.218  26.015 -0.3578 -0.0580 -0.1178
  634BOLB   NC115193  10.811  20.270  23.449 -0.0088 -0.0910 -0.0398
  634BOLB   PO115194  10.576  20.559  23.391 -0.3687  0.2375 -0.0905
  634BOLB   GL115195  10.456  20.612  23.840 -0.3718  0.2928  0.2307
  634BOLB   GL215196  10.568  20.883  23.750 -0.0287 -0.0988  0.0041
  634BOLB   C1A15197  10.267  20.684  24.219  0.1084  0.2147 -0.4558
  634BOLB   C2A15198  10.137  20.637  24.596  0.4884  0.0038  0.2562
  634BOLB   C3A15199   9.863  20.443  24.795 -0.0438 -0.0061 -0.2492
  634BOLB   C4A15200   9.499  20.199  24.785  0.0851  0.0515 -0.1047
  634BOLB   C1B15201  10.700  21.267  23.984 -0.0478  0.1320  0.2584
  634BOLB   C2B15202  10.711  21.501  24.500 -0.2824  0.2035 -0.1150
  634BOLB   C3B15203  10.687  21.912  24.554 -0.1053 -0.1211 -0.1654
  634BOLB   C4B15204  10.704  22.214  24.905  0.2432 -0.1166 -0.0856
  634BOLB   NC215205   8.736  19.428  27.132  0.1627 -0.0659  0.2920
  634BOLB   PO215206   9.094  19.479  26.933  0.1333 -0.1347 -0.1702
  634BOLB   GL315207   9.148  19.858  26.709  0.0755  0.0696 -0.0781
  634BOLB   GL415208   9.375  19.652  26.375 -0.0111 -0.2901 -0.2795
  634BOLB   C1C15209   8.994  19.867  26.175  0.0644  0.3274 -0.2036
  634BOLB   C2C15210   9.193  19.802  25.767 -0.0716  0.1690  0.4074
  634BOLB   C3C15211   9.362  19.717  25.405  0.0233  0.1435 -0.1250
  634BOLB   C4C15212   9.517  19.807  25.056 -0.1362 -0.1007  0.0322
  634BOLB   C1D15213   9.680  20.011  26.507  0.2266  0.2206 -0.3665
  634BOLB   C2D15214  10.039  20.070  26.255  0.2507  0.0222  0.0011
  634BOLB   C3D15215  10.101  20.394  26.023  0.0421  0.0979 -0.0418
  634BOLB   C4D15216  10.114  20.416  25.604 -0.0961  0.2180 -0.0921
  635BOLB   NC115217  13.172  22.131  22.761  0.3405  0.0033 -0.2001
  635BOLB   PO115218  13.552  22.548  22.750  0.0715 -0.1514  0.1316
  635BOLB   GL115219  13.677  22.871  23.077 -0.4575 -0.2147  0.1242
  635BOLB   GL215220  13.291  22.978  23.045 -0.1196 -0.1837  0.3219
  635BOLB   C1A15221  14.078  23.029  23.341  0.0830 -0.2112 -0.2404
  635BOLB   C2A15222  14.155  23.276  23.689 -0.1903 -0.1316  0.2105
  635BOLB   C3A15223  14.225  23.455  24.037  0.2999 -0.0987 -0.0822
  635BOLB   C4A15224  14.070  23.449  24.442  0.1757  0.0996  0.0108
  635BOLB   C1B15225  13.408  23.184  23.451 -0.4196 -0.0669  0.3092
  635BOLB   C2B15226  13.508  23.465  23.765  0.2302 -0.2567  0.3112
  635BOLB   C3B15227  13.737  23.662  23.996 -0.0592  0.0706 -0.0106
  635BOLB   C4B15228  13.740  23.830  24.414 -0.0512 -0.4353 -0.0207
  635BOLB   NC215229  15.038  24.596  26.618 -0.0375  0.5505 -0.1440
  635BOLB   PO215230  14.662  24.485  26.639  0.0280  0.0205 -0.0267
  635BOLB   GL315231  14.643  24.383  26.311  0.0723  0.0897  0.1031
  635BOLB   GL415232  14.573  24.046  26.367  0.1995  0.2823  0.3023
  635BOLB   C1C15233  14.666  24.255  25.821  0.5528 -0.1908  0.1809
  635BOLB   C2C15234  14.512  24.033  25.440  0.2454 -0.1342  0.2572
  635BOLB   C3C15235  14.287  23.833  25.164  0.0418  0.0917  0.2531
  635BOLB   C4C15236  14.139  23.724  24.753 -0.0466 -0.1592 -0.1472
  635BOLB   C1D15237  14.279  23.905  26.072 -0.3317  0.1755 -0.0047
  635BOLB   C2D15238  14.265  23.723  25.736  0.2519 -0.2831 -0.1465
  635BOLB   C3D15239  14.327  23.371  25.293 -0.0357 -0.0474 -0.1879
  635BOLB   C4D15240  14.333  23.245  24.848 -0.1194  0.1923  0.3435
  636BOLB   NC115241  19.097  22.206  21.502 -0.0395  0.0746  0.1198
  636BOLB   PO115242  18.929  22.515  21.936 -0.1399 -0.2777 -0.2798
  636BOLB   GL115243  18.823  22.881  22.134 -0.1211 -0.0062  0.0381
  636BOLB   GL215244  19.090  22.994  22.338 -0.1761  0.1007 -0.1446
  636BOLB   C1A15245  18.696  23.285  22.329 -0.1113 -0.2990  0.2261
  636BOLB   C2A15246  18.690  23.569  22.629  0.2771  0.1880  0.0495
  636BOLB   C3A15247  18.839  23.923  22.901 -0.0297 -0.1045 -0.0701
  636BOLB   C4A15248  18.967  24.033  23.340 -0.2569 -0.1540 -0.1790
  636BOLB   C1B15249  19.100  23.257  22.686 -0.0916 -0.0420  0.2398
  636BOLB   C2B15250  19.093  23.473  23.084  0.0004 -0.1783  0.1496
  636BOLB   C3B15251  18.832  23.536  23.420  0.2365  0.1784 -0.0969
  636BOLB   C4B15252  18.749  23.827  23.750  0.0480  0.0670 -0.2230
  636BOLB   NC215253  19.771  25.739  25.255  0.0306 -0.3869  0.1353
  636BOLB   PO215254  19.591  25.802  24.938 -0.0652 -0.0035  0.0519
  636BOLB   GL315255  19.695  25.657  24.488  0.0569 -0.1961 -0.3268
  636BOLB   GL415256  19.401  25.544  24.498 -0.1706  0.3171  0.0394
  636BOLB   C1C15257  19.691  25.494  24.094  0.0795  0.3467  0.1577
  636BOLB   C2C15258  19.624  25.093  23.842 -0.6131  0.0088 -0.0651
  636BOLB   C3C15259  19.399  24.760  23.877  0.2346 -0.0967 -0.1793
  636BOLB   C4C15260  19.252  24.302  23.664 -0.0395 -0.0727 -0.1422
  636BOLB   C1D15261  19.579  25.130  24.362 -0.3986  0.0647 -0.0590
  636BOLB   C2D15262  19.476  24.720  24.375  0.4223 -0.1357 -0.0738
  636BOLB   C3D15263  19.554  24.441  24.217 -0.0338  0.0332 -0.0511
  636BOLB   C4D15264  19.607  24.062  24.152 -0.0451 -0.0452  0.1340
  637BOLB   NC115265  12.129  11.993  23.395 -0.1119  0.0747 -0.2136
  637BOLB   PO115266  11.931  12.255  23.768 -0.0991  0.1045 -0.1224
  637BOLB   GL115267  11.882  12.199  24.234 -0.1706  0.2289 -0.0917
  637BOLB   GL215268  12.163  12.142  24.533 -0.1771  0.0370 -0.0382
  637BOLB   C1A15269  11.738  12.392  24.614 -0.0612  0.0331 -0.1067
  637BOLB   C2A15270  11.572  12.166  25.050 -0.0681  0.0576  0.0343
  637BOLB   C3A15271  11.442  12.092  25.416  0.2148  0.0368 -0.0447
  637BOLB   C4A15272  11.373  12.075  25.846  0.0041  0.1177  0.0273
  637BOLB   C1B15273  11.973  11.988  24.928 -0.0577 -0.2555 -0.3692
  637BOLB   C2B15274  11.791  11.664  25.272  0.1251 -0.2164 -0.1297
  637BOLB   C3B15275  11.610  11.639  25.735 -0.0216  0.3078  0.1497
  637BOLB   C4B15276  11.780  11.362  26.166  0.2925 -0.1388 -0.3067
  637BOLB   NC215277  10.457  11.112  28.144  0.0248 -0.0659 -0.0503
  637BOLB   PO215278  10.313  11.103  27.739  0.1043  0.2718  0.2228
  637BOLB   GL315279  10.377  11.156  27.353  0.0195 -0.3168 -0.0040
  637BOLB   GL415280  10.685  11.241  27.353 -0.0162 -0.1852 -0.3353
  637BOLB   C1C15281  10.318  11.313  26.905  0.1709  0.0744 -0.0718
  637BOLB   C2C15282  10.487  11.636  26.743  0.3877 -0.1363  0.1890
  637BOLB   C3C15283  10.812  11.789  26.519 -0.1505  0.0977 -0.1520
  637BOLB   C4C15284  11.010  11.824  26.067 -0.1188  0.5114 -0.3039
  637BOLB   C1D15285  10.935  11.323  26.946  0.0716 -0.2453  0.1738
  637BOLB   C2D15286  11.204  11.104  26.625  0.0341  0.3180 -0.1485
  637BOLB   C3D15287  11.497  10.948  26.215 -0.1029 -0.2905  0.2072
  637BOLB   C4D15288  11.739  10.772  25.928  0.0011  0.3747 -0.0943
  638BOLB   NC115289  12.976  18.746  23.668 -0.0833 -0.2542 -0.1087
  638BOLB   PO115290  12.842  19.088  24.015  0.2069  0.0976 -0.0899
  638BOLB   GL115291  12.803  19.217  24.481  0.0211  0.0037  0.1269
  638BOLB   GL215292  13.161  19.327  24.588  0.2411 -0.1362  0.0400
  638BOLB   C1A15293  12.554  19.368  24.812  0.0111  0.1607  0.1668
  638BOLB   C2A15294  12.291  19.379  25.169 -0.1009  0.1146 -0.0020
  638BOLB   C3A15295  12.219  19.506  25.656  0.0483 -0.1468  0.2017
  638BOLB   C4A15296  12.329  19.616  26.016  0.3299  0.0062  0.0670
  638BOLB   C1B15297  13.032  19.504  24.993  0.0302 -0.0598 -0.2889
  638BOLB   C2B15298  12.942  19.927  25.254 -0.2160  0.1071 -0.1098
  638BOLB   C3B15299  12.898  20.261  25.540 -0.2406 -0.4743 -0.1421
  638BOLB   C4B15300  12.675  20.357  25.902 -0.0097 -0.0464 -0.2975
  638BOLB   NC215301  12.318  21.085  28.372  0.2293  0.0807  0.0175
  638BOLB   PO215302  12.422  21.025  27.948  0.0564  0.1845  0.1020
  638BOLB   GL315303  12.322  20.831  27.578  0.0403 -0.0686  0.0722
  638BOLB   GL415304  12.474  20.512  27.515 -0.1353  0.2854  0.4437
  638BOLB   C1C15305  12.426  20.769  27.078 -0.1144  0.0719 -0.2466
  638BOLB   C2C15306  12.559  20.614  26.710  0.0935  0.1743  0.0599
  638BOLB   C3C15307  12.432  20.315  26.465 -0.0684  0.1252 -0.0733
  638BOLB   C4C15308  12.503  19.926  26.296 -0.1452  0.3192 -0.0117
  638BOLB   C1D15309  12.334  20.263  27.070  0.2595  0.0168 -0.0670
  638BOLB   C2D15310  12.078  20.504  26.734  0.5343 -0.0065  0.1874
  638BOLB   C3D15311  12.186  20.794  26.372 -0.0814  0.1581  0.2559
  638BOLB   C4D15312  12.526  20.773  26.050 -0.1363 -0.2721 -0.0760
  639BOLB   NC115313  15.111  15.174  24.889 -0.1074 -0.1802 -0.2427
  639BOLB   PO115314  15.125  15.546  25.106 -0.1633  0.3705  0.0326
  639BOLB   GL115315  15.175  15.913  25.503 -0.2417 -0.1849  0.2266
  639BOLB   GL215316  15.085  15.933  25.842  0.0028  0.0466  0.0582
  639BOLB   C1A15317  15.530  15.823  25.847  0.0670 -0.0589 -0.1958
  639BOLB   C2A15318  15.775  15.546  26.101  0.0160 -0.3009 -0.1648
  639BOLB   C3A15319  16.025  15.473  26.461  0.3656 -0.4869  0.0979
  639BOLB   C4A15320  16.269  15.498  26.771  0.0212  0.1576 -0.2880
  639BOLB   C1B15321  15.057  15.820  26.265 -0.0289  0.0375  0.0925
  639BOLB   C2B15322  15.113  15.881  26.758  0.2914 -0.2054  0.0599
  639BOLB   C3B15323  15.283  16.100  27.178  0.2451 -0.2344 -0.0906
  639BOLB   C4B15324  15.601  16.334  27.257 -0.0889  0.2880 -0.2399
  639BOLB   NC215325  17.959  16.050  28.492 -0.1468  0.0416  0.0780
  639BOLB   PO215326  18.002  15.992  28.088 -0.0674 -0.0510  0.1944
  639BOLB   GL315327  17.682  15.898  28.027 -0.0561 -0.1436 -0.1504
  639BOLB   GL415328  17.618  15.643  28.264 -0.0782  0.1052  0.1213
  639BOLB   C1C15329  17.267  15.872  27.980 -0.0257  0.3179 -0.0028
  639BOLB   C2C15330  17.044  15.715  27.684  0.3399 -0.0093  0.0037
  639BOLB   C3C15331  16.699  15.545  27.473  0.0350 -0.0944  0.0853
  639BOLB   C4C15332  16.431  15.630  27.158 -0.0049 -0.4181  0.5508
  639BOLB   C1D15333  17.900  15.398  28.000  0.1262  0.2864  0.1406
  639BOLB   C2D15334  17.696  15.075  27.815  0.2911  0.3123 -0.2551
  639BOLB   C3D15335  17.428  14.678  27.862  0.0779 -0.2313 -0.2526
  639BOLB   C4D15336  16.928  14.744  27.877 -0.0647  0.0074  0.0832
  640BOLB   NC115337  11.186   9.988  23.108  0.3075  0.0002 -0.1876
  640BOLB   PO115338  11.312   9.626  22.918  0.1320 -0.3229 -0.0655
  640BOLB   GL115339  11.242   9.599  23.422  0.0184 -0.0508 -0.0094
  640BOLB   GL215340  11.347   9.918  23.675 -0.1876  0.2308  0.1135
  640BOLB   C1A15341  11.263   9.423  23.854  0.2063 -0.2045  0.1773
  640BOLB   C2A15342  11.208   9.426  24.302 -0.1687 -0.1325 -0.0437
  640BOLB   C3A15343  11.420   9.476  24.741  0.0170 -0.0664 -0.0998
  640BOLB   C4A15344  11.526   9.721  25.056 -0.1757  0.1067  0.1690
  640BOLB   C1B15345  11.321   9.857  24.080 -0.0761 -0.0370 -0.3939
  640BOLB   C2B15346  11.177   9.845  24.514  0.1380  0.3871 -0.2673
  640BOLB   C3B15347  11.042   9.963  24.830 -0.1275  0.2348 -0.1403
  640BOLB   C4B15348  10.879   9.757  25.225  0.1640  0.0694 -0.2436
  640BOLB   NC215349  10.509   9.215  27.694  0.1680  0.0527  0.0269
  640BOLB   PO215350  10.845   9.348  27.462  0.0615  0.2202 -0.0327
  640BOLB   GL315351  11.014   9.411  27.031 -0.2228 -0.1926  0.1388
  640BOLB   GL415352  11.306   9.642  27.021 -0.0439 -0.2272  0.1047
  640BOLB   C1C15353  10.878   9.539  26.644 -0.2937 -0.0741  0.1852
  640BOLB   C2C15354  11.033   9.567  26.222 -0.3963  0.2008  0.1209
  640BOLB   C3C15355  11.128   9.613  25.747  0.2406  0.2056  0.1081
  640BOLB   C4C15356  11.377   9.688  25.480 -0.1430  0.1508 -0.0162
  640BOLB   C1D15357  11.497   9.776  26.661 -0.2387 -0.2957  0.1671
  640BOLB   C2D15358  11.380   9.919  26.255  0.1544  0.0074  0.3927
  640BOLB   C3D15359  11.473   9.883  25.956 -0.2202  0.1108 -0.2542
  640BOLB   C4D15360  11.502  10.328  25.675  0.2490 -0.0179  0.2356
  641BOLB   NC115361  21.691  12.004  22.188  0.1922 -0.0140 -0.1386
  641BOLB   PO115362  21.592  11.598  22.326 -0.1727 -0.0562 -0.1169
  641BOLB   GL115363  21.577  11.318  22.628 -0.0126  0.0133  0.0726
  641BOLB   GL215364  21.398  11.089  22.461  0.0521 -0.1385  0.0687
  641BOLB   C1A15365  21.613  11.281  23.051 -0.1036  0.1228 -0.0862
  641BOLB   C2A15366  21.917  11.313  23.404 -0.0751  0.0808  0.2960
  641BOLB   C3A15367  21.969  11.238  23.852  0.0984 -0.0759 -0.1369
  641BOLB   C4A15368  21.792  11.225  24.194  0.1647  0.3459 -0.3750
  641BOLB   C1B15369  21.397  10.813  22.838 -0.0354  0.1128  0.0353
  641BOLB   C2B15370  21.590  10.802  23.265 -0.0924  0.1256  0.2318
  641BOLB   C3B15371  21.578  10.468  23.585 -0.0410  0.1057  0.1188
  641BOLB   C4B15372  21.616  10.206  23.858 -0.2205  0.0139  0.3019
  641BOLB   NC215373  22.526   9.380  25.753 -0.1409 -0.1473  0.0710
  641BOLB   PO215374  22.194   9.637  25.585 -0.0719  0.1722  0.0246
  641BOLB   GL315375  22.136   9.742  25.039  0.1697 -0.2220  0.1769
  641BOLB   GL415376  21.786   9.843  25.004  0.0639 -0.1530  0.0070
  641BOLB   C1C15377  22.078   9.926  24.623 -0.2805 -0.2125 -0.0986
  641BOLB   C2C15378  21.673  10.141  24.653  0.3063  0.0200 -0.0813
  641BOLB   C3C15379  21.545  10.545  24.686 -0.0465 -0.2203  0.1716
  641BOLB   C4C15380  21.540  10.917  24.464  0.3335 -0.2544  0.2050
  641BOLB   C1D15381  21.860  10.260  25.100  0.0027 -0.0153  0.1596
  641BOLB   C2D15382  21.973  10.763  24.931 -0.0227 -0.0093  0.2226
  641BOLB   C3D15383  21.988  11.007  24.595 -0.0099  0.3205 -0.1412
  641BOLB   C4D15384  22.353  11.155  24.372  0.0293  0.0147 -0.2965
  642BOLB   NC115385   8.556  12.864  23.096 -0.1236 -0.1222 -0.1155
  642BOLB   PO115386   8.480  13.191  22.771  0.0353  0.0280  0.1438
  642BOLB   GL115387   8.267  13.242  23.125 -0.0583  0.0437 -0.0650
  642BOLB   GL215388   8.412  13.238  23.470 -0.0453 -0.2081  0.1018
  642BOLB   C1A15389   7.954  13.381  23.334 -0.0167  0.0877  0.1508
  642BOLB   C2A15390   7.723  13.510  23.716  0.1682 -0.1241  0.0130
  642BOLB   C3A15391   7.583  13.620  24.064  0.3068 -0.0230  0.2324
  642BOLB   C4A15392   7.257  13.858  24.373 -0.4216 -0.1017  0.1588
  642BOLB   C1B15393   8.197  13.550  23.741  0.0680  0.1008 -0.1465
  642BOLB   C2B15394   8.107  13.499  24.148  0.6047 -0.2180  0.1061
  642BOLB   C3B15395   7.830  13.712  24.502  0.0382 -0.0065 -0.3869
  642BOLB   C4B15396   7.601  14.152  24.668  0.2943 -0.1617  0.1451
  642BOLB   NC215397   6.287  13.169  26.705  0.2239 -0.0502  0.0144
  642BOLB   PO215398   6.589  13.160  26.500  0.3102  0.0349  0.0866
  642BOLB   GL315399   6.847  13.377  26.189 -0.2107  0.0087  0.0826
  642BOLB   GL415400   6.642  13.521  25.924 -0.1346 -0.0496 -0.1209
  642BOLB   C1C15401   7.105  13.251  25.875 -0.0793 -0.1597 -0.1529
  642BOLB   C2C15402   7.388  13.549  25.571 -0.0834 -0.0118 -0.2264
  642BOLB   C3C15403   7.232  13.784  25.322  0.0385  0.1904 -0.1531
  642BOLB   C4C15404   7.210  13.829  24.887  0.0062 -0.1594  0.3756
  642BOLB   C1D15405   6.853  13.479  25.498 -0.1971 -0.2468 -0.0654
  642BOLB   C2D15406   7.009  13.355  24.984 -0.1705 -0.2059  0.1428
  642BOLB   C3D15407   6.864  13.078  24.529  0.1137 -0.3106  0.2830
  642BOLB   C4D15408   7.065  12.754  24.365  0.2080 -0.0902  0.1139
  643BOLB   NC115409  12.337  19.257  24.020  0.0666  0.0238 -0.2651
  643BOLB   PO115410  12.073  19.653  23.954 -0.3291  0.1230 -0.0579
  643BOLB   GL115411  11.850  19.813  24.238  0.2993  0.1551  0.0173
  643BOLB   GL215412  11.730  20.130  24.145  0.1944 -0.1853 -0.0045
  643BOLB   C1A15413  11.601  19.853  24.569  0.0785 -0.2383  0.1593
  643BOLB   C2A15414  11.538  19.969  24.971 -0.3861 -0.0549  0.0682
  643BOLB   C3A15415  11.546  20.124  25.380  0.0818  0.1549 -0.1409
  643BOLB   C4A15416  11.181  19.894  25.736  0.0453 -0.0596 -0.1023
  643BOLB   C1B15417  11.630  20.364  24.629 -0.0826  0.0109 -0.0499
  643BOLB   C2B15418  11.494  20.613  25.057 -0.2381  0.0218 -0.0807
  643BOLB   C3B15419  11.418  20.657  25.493  0.0256  0.2942  0.1154
  643BOLB   C4B15420  11.363  20.755  25.861 -0.0903  0.0501 -0.1878
  643BOLB   NC215421  10.799  19.363  27.958 -0.0285  0.3755 -0.2759
  643BOLB   PO215422  10.375  19.285  27.997  0.0066 -0.3333 -0.1402
  643BOLB   GL315423  10.460  18.911  27.640 -0.1630  0.1581  0.2503
  643BOLB   GL415424  10.252  18.726  27.486 -0.2506  0.1972  0.0244
  643BOLB   C1C15425  10.624  18.965  27.219 -0.0936 -0.3747  0.0686
  643BOLB   C2C15426  10.855  19.292  26.906  0.1141 -0.3308  0.0076
  643BOLB   C3C15427  10.815  19.329  26.489 -0.1261  0.0646 -0.1706
  643BOLB   C4C15428  10.979  19.721  26.126 -0.1670  0.3243 -0.1230
  643BOLB   C1D15429  10.312  18.548  27.303 -0.0602  0.2377  0.3254
  643BOLB   C2D15430  10.460  18.470  27.004  0.1373  0.1965  0.2214
  643BOLB   C3D15431  10.683  18.296  26.670  0.0464 -0.1772  0.1261
  643BOLB   C4D15432  11.047  18.136  26.579  0.0766 -0.1432 -0.0915
  644BOLB   NC115433  11.444  19.737  23.225  0.1570  0.2040  0.0979
  644BOLB   PO115434  11.159  19.932  23.552  0.0154 -0.3608  0.2108
  644BOLB   GL115435  11.220  20.377  23.934  0.4707 -0.0118  0.1494
  644BOLB   GL215436  11.003  20.574  23.810 -0.0423  0.1819  0.0122
  644BOLB   C1A15437  11.210  20.319  24.367  0.0057  0.2935 -0.0484
  644BOLB   C2A15438  11.144  20.563  24.722  0.1745  0.1624 -0.1346
  644BOLB   C3A15439  10.964  20.860  25.070  0.2478  0.0138 -0.1300
  644BOLB   C4A15440  10.742  20.709  25.508  0.2036 -0.0371 -0.0732
  644BOLB   C1B15441  10.768  20.403  24.274 -0.0321 -0.1281  0.0673
  644BOLB   C2B15442  10.636  20.370  24.787  0.0347 -0.0189  0.1208
  644BOLB   C3B15443  10.564  20.220  25.247  0.1644  0.1356 -0.1612
  644BOLB   C4B15444  10.396  19.762  25.271 -0.3182 -0.0647  0.0987
  644BOLB   NC215445   9.061  20.127  27.611 -0.3173 -0.2399 -0.0200
  644BOLB   PO215446   9.113  20.088  27.170 -0.4385  0.2372  0.0204
  644BOLB   GL315447   9.416  20.187  26.876  0.0868 -0.2764 -0.0569
  644BOLB   GL415448   9.160  20.379  26.716 -0.1221  0.0033  0.0364
  644BOLB   C1C15449   9.601  20.546  26.582  0.2251  0.1973 -0.1859
  644BOLB   C2C15450   9.911  20.830  26.385 -0.2028 -0.0606  0.0689
  644BOLB   C3C15451  10.214  20.901  26.092 -0.1845  0.1137  0.1437
  644BOLB   C4C15452  10.591  20.719  25.923 -0.2416 -0.0762 -0.1095
  644BOLB   C1D15453   9.224  20.308  26.324 -0.1483  0.0044 -0.0369
  644BOLB   C2D15454   9.432  20.097  26.080 -0.0734  0.1793  0.0328
  644BOLB   C3D15455   9.765  20.104  25.792  0.1816  0.1563  0.2051
  644BOLB   C4D15456  10.128  19.880  25.681 -0.1595 -0.0872 -0.1882
  645BOLB   NC115457  17.844  17.817  24.219 -0.3582  0.0471 -0.1250
  645BOLB   PO115458  17.732  17.991  24.552 -0.0615 -0.0388  0.1585
  645BOLB   GL115459  18.038  18.285  24.552 -0.1003  0.1584  0.2105
  645BOLB   GL215460  17.936  18.603  24.521  0.3134 -0.0074 -0.0598
  645BOLB   C1A15461  18.089  18.479  25.021 -0.1711  0.4399  0.0246
  645BOLB   C2A15462  18.083  18.587  25.522  0.0818 -0.0541  0.1653
  645BOLB   C3A15463  18.015  18.621  25.959  0.2046 -0.1593  0.0473
  645BOLB   C4A15464  18.084  18.549  26.366  0.4531  0.0342 -0.1516
  645BOLB   C1B15465  18.072  18.939  24.816  0.0360  0.3504 -0.2054
  645BOLB   C2B15466  18.062  18.973  25.224 -0.1060  0.0119  0.0082
  645BOLB   C3B15467  17.974  19.151  25.550  0.1082 -0.1182 -0.1198
  645BOLB   C4B15468  18.155  19.174  25.969  0.1101  0.1636  0.2937
  645BOLB   NC215469  18.836  19.783  28.275  0.3483  0.1845 -0.1125
  645BOLB   PO215470  18.481  19.505  28.245 -0.4193  0.0322  0.0022
  645BOLB   GL315471  18.583  19.560  27.829 -0.2271  0.2209 -0.1977
  645BOLB   GL415472  18.803  19.305  27.661 -0.1092  0.1706  0.4355
  645BOLB   C1C15473  18.363  19.700  27.497  0.1752 -0.2010  0.0108
  645BOLB   C2C15474  18.479  19.697  27.017 -0.2368  0.1695  0.0143
  645BOLB   C3C15475  18.382  19.351  26.676 -0.1786 -0.2933 -0.2152
  645BOLB   C4C15476  18.186  19.020  26.509 -0.1869  0.2263  0.1975
  645BOLB   C1D15477  18.415  19.166  27.352  0.1741 -0.0767  0.0765
  645BOLB   C2D15478  17.957  19.030  27.093  0.0777 -0.1484  0.0715
  645BOLB   C3D15479  17.833  18.618  26.904  0.1023  0.0756  0.3407
  645BOLB   C4D15480  18.133  18.267  26.793 -0.1443  0.0486 -0.3453
  646BOLB   NC115481  10.761  14.280  23.447 -0.0397  0.0995  0.0843
  646BOLB   PO115482  10.331  14.361  23.659 -0.2851 -0.2264 -0.1088
  646BOLB   GL115483  10.383  14.401  24.094 -0.0824  0.4284  0.0964
  646BOLB   GL215484  10.651  14.486  24.218 -0.0614 -0.1373 -0.3292
  646BOLB   C1A15485  10.222  14.471  24.558  0.0281 -0.0779 -0.0402
  646BOLB   C2A15486  10.330  14.357  25.082  0.0176 -0.2647 -0.2613
  646BOLB   C3A15487  10.085  14.350  25.476 -0.2228 -0.1018 -0.2695
  646BOLB   C4A15488  10.117  14.116  25.803 -0.1220 -0.0198  0.0329
  646BOLB   C1B15489  10.672  14.353  24.698 -0.0286  0.0401  0.1423
  646BOLB   C2B15490  10.828  14.278  25.133  0.2959  0.1113  0.2807
  646BOLB   C3B15491  10.561  14.012  25.451  0.0489 -0.0798  0.0748
  646BOLB   C4B15492  10.507  13.793  25.810 -0.1844 -0.0683  0.1250
  646BOLB   NC215493   9.182  13.463  27.938 -0.2480  0.0376 -0.3034
  646BOLB   PO215494   8.817  13.157  27.630 -0.3522  0.1827 -0.4536
  646BOLB   GL315495   8.959  13.507  27.478 -0.1571  0.2071  0.3330
  646BOLB   GL415496   9.211  13.846  27.590 -0.1684 -0.2796 -0.2721
  646BOLB   C1C15497   9.102  13.646  27.068  0.3410  0.0534 -0.2287
  646BOLB   C2C15498   9.390  13.520  26.756 -0.3296  0.0568  0.2330
  646BOLB   C3C15499   9.794  13.674  26.493 -0.0055  0.2318 -0.2569
  646BOLB   C4C15500  10.044  13.868  26.126 -0.1254  0.1332 -0.3130
  646BOLB   C1D15501   9.415  13.439  27.325  0.3477 -0.2805 -0.3532
  646BOLB   C2D15502   9.830  13.442  27.112  0.1295  0.1582 -0.3498
  646BOLB   C3D15503  10.125  13.327  26.768  0.1844  0.0465 -0.1466
  646BOLB   C4D15504  10.416  13.506  26.397  0.0963  0.2133  0.2421
  647BOLB   NC115505  21.550  23.479  20.864  0.3752 -0.0331  0.0882
  647BOLB   PO115506  22.013  23.594  20.752 -0.2214  0.1302  0.1171
  647BOLB   GL115507  22.127  23.740  21.074  0.0693 -0.6115  0.0019
  647BOLB   GL215508  21.890  23.525  21.325 -0.3212 -0.3310  0.2008
  647BOLB   C1A15509  21.970  24.076  21.346 -0.2582 -0.3545 -0.0161
  647BOLB   C2A15510  21.948  24.129  21.789 -0.0541 -0.1786 -0.1217
  647BOLB   C3A15511  21.909  24.215  22.250 -0.1648  0.0138 -0.0430
  647BOLB   C4A15512  22.013  24.551  22.682  0.0442 -0.0264 -0.0423
  647BOLB   C1B15513  21.652  23.688  21.636 -0.0023 -0.1697  0.3068
  647BOLB   C2B15514  21.596  23.895  22.059 -0.1411  0.0727  0.0751
  647BOLB   C3B15515  21.577  23.923  22.483  0.4837 -0.1991 -0.1202
  647BOLB   C4B15516  21.834  24.052  22.786  0.0737  0.1242 -0.0705
  647BOLB   NC215517  21.635  26.131  24.176  0.2670  0.0829 -0.1524
  647BOLB   PO215518  21.627  26.479  23.915  0.1558 -0.2556 -0.1736
  647BOLB   GL315519  21.468  26.206  23.659 -0.0268 -0.1367  0.0663
  647BOLB   GL415520  21.516  26.330  23.452  0.0481  0.1438 -0.1469
  647BOLB   C1C15521  21.523  25.746  23.752 -0.2425  0.0264 -0.0990
  647BOLB   C2C15522  21.717  25.506  23.546 -0.0857  0.0066 -0.0382
  647BOLB   C3C15523  21.899  25.211  23.252 -0.0623  0.1986 -0.0503
  647BOLB   C4C15524  21.888  24.830  22.933  0.2302  0.0104 -0.1192
  647BOLB   C1D15525  21.808  25.969  23.359  0.0921 -0.1705 -0.0707
  647BOLB   C2D15526  22.157  25.776  23.453 -0.1032 -0.2548 -0.0434
  647BOLB   C3D15527  22.329  25.438  23.228 -0.0216 -0.2466  0.3573
  647BOLB   C4D15528  22.774  25.209  23.058  0.3132 -0.2432  0.2681
  648BOLB   NC115529  10.576  21.009  23.118 -0.0738  0.1072 -0.1135
  648BOLB   PO115530  10.260  20.691  22.956 -0.2754  0.0764  0.0818
  648BOLB   GL115531  10.092  20.850  23.295  0.0026  0.1134  0.0208
  648BOLB   GL215532  10.270  21.168  23.468  0.2109  0.2955  0.0591
  648BOLB   C1A15533  10.071  20.818  23.713 -0.0504 -0.1071  0.3630
  648BOLB   C2A15534   9.826  20.573  23.984 -0.0055 -0.0956  0.1025
  648BOLB   C3A15535   9.687  20.536  24.331 -0.2072  0.0234 -0.2150
  648BOLB   C4A15536   9.466  20.706  24.617 -0.1371  0.2903  0.0818
  648BOLB   C1B15537  10.216  21.260  23.939  0.1042  0.0718 -0.0643
  648BOLB   C2B15538  10.349  21.143  24.375 -0.0538 -0.2261  0.0447
  648BOLB   C3B15539  10.202  21.408  24.710 -0.0146 -0.0876 -0.1699
  648BOLB   C4B15540  10.353  21.557  25.038 -0.2273 -0.1250 -0.2082
  648BOLB   NC215541   8.703  20.496  26.864 -0.1514 -0.3752 -0.0603
  648BOLB   PO215542   8.240  20.619  26.583 -0.0280 -0.2361  0.5428
  648BOLB   GL315543   8.571  20.403  26.381 -0.1208  0.1649 -0.1033
  648BOLB   GL415544   8.740  20.104  26.571  0.1106 -0.2817  0.0145
  648BOLB   C1C15545   8.874  20.289  26.040  0.1818  0.0288 -0.2498
  648BOLB   C2C15546   8.903  20.195  25.568 -0.2937 -0.0360 -0.1160
  648BOLB   C3C15547   9.126  20.450  25.265  0.2700  0.2929  0.0115
  648BOLB   C4C15548   9.354  20.627  24.992  0.2808 -0.2099  0.0622
  648BOLB   C1D15549   8.482  19.953  26.242  0.0247 -0.1410 -0.3878
  648BOLB   C2D15550   8.652  19.844  25.811 -0.0600 -0.0091 -0.1684
  648BOLB   C3D15551   8.722  19.722  25.390  0.0387  0.1743  0.0161
  648BOLB   C4D15552   8.699  19.724  24.909 -0.1598 -0.0683 -0.0549
  649BOLB   NC115553  10.060  16.530  23.182 -0.0067 -0.0147  0.0519
  649BOLB   PO115554   9.768  16.128  23.302 -0.1064  0.0701  0.1101
  649BOLB   GL115555   9.563  15.940  23.679 -0.1477 -0.0765 -0.2461
  649BOLB   GL215556   9.871  15.743  23.863  0.2224 -0.0646  0.2650
  649BOLB   C1A15557   9.481  16.076  24.112  0.3122 -0.0398  0.0518
  649BOLB   C2A15558   9.581  16.277  24.437 -0.0315  0.2307 -0.0924
  649BOLB   C3A15559   9.509  16.504  24.945  0.1442  0.2100 -0.0063
  649BOLB   C4A15560   9.314  16.531  25.352 -0.1723  0.1479 -0.0140
  649BOLB   C1B15561   9.835  15.838  24.348  0.0099 -0.1503 -0.1205
  649BOLB   C2B15562   9.436  15.809  24.605  0.0774  0.0467 -0.0343
  649BOLB   C3B15563   9.166  16.190  24.737  0.0548 -0.0195 -0.1138
  649BOLB   C4B15564   9.061  16.392  24.309  0.0373  0.0287 -0.0664
  649BOLB   NC215565   8.253  15.526  27.274  0.2652 -0.3832 -0.2106
  649BOLB   PO215566   7.965  15.920  27.396 -0.1789  0.1459  0.1696
  649BOLB   GL315567   8.130  15.986  26.925  0.0308 -0.4123 -0.0643
  649BOLB   GL415568   8.042  15.991  26.634  0.2472 -0.1091  0.1995
  649BOLB   C1C15569   8.574  15.974  26.786  0.0508  0.3433 -0.4402
  649BOLB   C2C15570   8.539  16.146  26.407 -0.1435  0.1512  0.1658
  649BOLB   C3C15571   8.653  16.368  25.982  0.1163 -0.0143 -0.1955
  649BOLB   C4C15572   9.034  16.503  25.738 -0.1555 -0.1094  0.0262
  649BOLB   C1D15573   8.024  15.908  26.199  0.2406 -0.3868  0.3887
  649BOLB   C2D15574   8.301  15.952  25.786 -0.2875 -0.1240 -0.1300
  649BOLB   C3D15575   8.588  16.188  25.501  0.1837 -0.1309  0.2008
  649BOLB   C4D15576   8.897  16.338  25.238  0.0041  0.2518 -0.2472
  650BOLB   NC115577  16.667  13.528  23.559 -0.0185 -0.0379  0.0035
  650BOLB   PO115578  16.615  13.350  23.949 -0.2217 -0.1876  0.0859
  650BOLB   GL115579  16.629  13.219  24.461  0.0537  0.4086 -0.0901
  650BOLB   GL215580  16.531  12.902  24.615  0.0625 -0.2502  0.1838
  650BOLB   C1A15581  16.990  12.949  24.680  0.0288 -0.0593  0.3484
  650BOLB   C2A15582  17.176  12.847  25.096 -0.1650  0.2353 -0.0203
  650BOLB   C3A15583  17.083  12.927  25.626 -0.1730 -0.0375  0.1455
  650BOLB   C4A15584  17.387  12.834  25.953  0.1932 -0.0354 -0.1511
  650BOLB   C1B15585  16.829  12.538  24.860 -0.1321  0.2726 -0.0217
  650BOLB   C2B15586  17.112  12.339  25.192  0.0448 -0.2914 -0.0632
  650BOLB   C3B15587  17.143  12.054  25.465  0.3990 -0.2552 -0.4186
  650BOLB   C4B15588  16.825  12.008  25.781 -0.1262 -0.3411  0.0076
  650BOLB   NC215589  17.409  12.789  28.248  0.0645 -0.0583 -0.1272
  650BOLB   PO215590  17.530  12.439  28.064 -0.0458 -0.2702 -0.0161
  650BOLB   GL315591  17.427  12.199  27.645 -0.0078 -0.0578  0.0128
  650BOLB   GL415592  17.557  11.879  27.432  0.0258 -0.2266  0.0220
  650BOLB   C1C15593  17.096  12.167  27.418 -0.0288 -0.2855  0.0632
  650BOLB   C2C15594  16.907  12.265  27.025 -0.1467 -0.0302 -0.0127
  650BOLB   C3C15595  17.217  12.428  26.673  0.3264  0.1845  0.1704
  650BOLB   C4C15596  17.471  12.568  26.301  0.3694 -0.0888  0.0386
  650BOLB   C1D15597  17.456  12.242  27.105  0.1868  0.0194  0.0251
  650BOLB   C2D15598  17.635  12.517  26.923  0.1540  0.0232 -0.0110
  650BOLB   C3D15599  17.738  13.011  27.021  0.2015 -0.0122 -0.0008
  650BOLB   C4D15600  17.654  13.534  27.071  0.1820 -0.1111  0.0184
  651BOLB   NC115601  21.848  21.745  21.600 -0.0596 -0.0808  0.1179
  651BOLB   PO115602  22.118  22.111  21.711 -0.0975  0.0549  0.2360
  651BOLB   GL115603  22.215  21.788  22.007  0.1079  0.1681  0.0474
  651BOLB   GL215604  22.485  21.678  22.048  0.1818 -0.1816 -0.0965
  651BOLB   C1A15605  22.215  21.641  22.499  0.2856  0.0961 -0.2003
  651BOLB   C2A15606  22.380  21.762  22.945  0.1089  0.1859 -0.0112
  651BOLB   C3A15607  22.597  21.842  23.230 -0.3918  0.1595 -0.1757
  651BOLB   C4A15608  22.623  21.887  23.675 -0.2193 -0.3425  0.3342
  651BOLB   C1B15609  22.654  21.927  22.481 -0.2889  0.0619 -0.1055
  651BOLB   C2B15610  22.754  22.267  22.854 -0.3585  0.1228 -0.2192
  651BOLB   C3B15611  22.924  22.274  23.201  0.1731 -0.0689  0.0287
  651BOLB   C4B15612  22.989  22.298  23.700  0.1141 -0.1499 -0.0244
  651BOLB   NC215613  22.813  23.879  25.597  0.0644 -0.1993  0.1514
  651BOLB   PO215614  22.800  23.442  25.507 -0.1958 -0.2286 -0.0643
  651BOLB   GL315615  22.831  22.990  25.341  0.3787 -0.2180 -0.3216
  651BOLB   GL415616  23.088  22.927  25.034  0.4538 -0.0191  0.0827
  651BOLB   C1C15617  22.603  22.761  24.931  0.0817 -0.4685  0.0731
  651BOLB   C2C15618  22.626  22.473  24.600  0.1630  0.1251  0.2562
  651BOLB   C3C15619  22.876  22.265  24.233  0.2427 -0.2913  0.0383
  651BOLB   C4C15620  22.658  22.010  23.987 -0.2777 -0.2424 -0.0581
  651BOLB   C1D15621  23.055  22.429  24.996 -0.1863 -0.0781  0.1585
  651BOLB   C2D15622  22.887  22.136  24.836 -0.0699  0.1526  0.1032
  651BOLB   C3D15623  22.794  21.872  24.595 -0.1449 -0.0889  0.0138
  651BOLB   C4D15624  22.915  21.547  24.286  0.0684  0.4095  0.2794
  652BOLB   NC115625  15.529  16.947  25.029  0.0873 -0.0388  0.2753
  652BOLB   PO115626  15.587  16.456  24.931 -0.2983  0.2756 -0.0689
  652BOLB   GL115627  15.619  16.342  25.330 -0.0356 -0.1477  0.3036
  652BOLB   GL215628  15.921  16.203  25.512  0.0805 -0.0503  0.3393
  652BOLB   C1A15629  15.401  16.277  25.750 -0.0703  0.0768 -0.0617
  652BOLB   C2A15630  15.406  16.236  26.138  0.1718  0.1480 -0.1889
  652BOLB   C3A15631  15.556  15.895  26.371 -0.0549  0.0731  0.0220
  652BOLB   C4A15632  15.440  15.531  26.669  0.1649  0.2195  0.0906
  652BOLB   C1B15633  15.962  16.231  25.948  0.3543  0.1875 -0.0483
  652BOLB   C2B15634  16.107  16.104  26.386  0.1308  0.0547  0.0044
  652BOLB   C3B15635  16.302  16.026  26.810  0.4669 -0.0006  0.1141
  652BOLB   C4B15636  16.611  16.110  27.106  0.0078  0.0872  0.1028
  652BOLB   NC215637  15.328  14.312  28.697 -0.3836 -0.1817 -0.1204
  652BOLB   PO215638  15.007  14.676  28.720 -0.0286 -0.0803 -0.0524
  652BOLB   GL315639  15.127  14.741  28.386 -0.0414 -0.0689  0.2013
  652BOLB   GL415640  15.460  14.910  28.368  0.1371 -0.0567  0.2018
  652BOLB   C1C15641  15.160  14.830  27.962  0.1946 -0.0758 -0.2099
  652BOLB   C2C15642  15.488  15.120  27.795  0.0169  0.1612  0.2764
  652BOLB   C3C15643  15.495  15.174  27.348  0.1999  0.0903 -0.0702
  652BOLB   C4C15644  15.631  15.288  27.032 -0.1185  0.2704 -0.0634
  652BOLB   C1D15645  15.308  15.276  28.278 -0.0474 -0.0697  0.2125
  652BOLB   C2D15646  15.342  15.525  27.936  0.2324 -0.2688  0.0012
  652BOLB   C3D15647  15.557  15.831  27.932 -0.1023  0.1152 -0.0167
  652BOLB   C4D15648  15.563  16.206  28.275 -0.1349 -0.0187  0.2044
  653BOLB   NC115649  13.618  24.646  20.324 -0.1941  0.1088 -0.0040
  653BOLB   PO115650  13.342  24.986  20.535  0.3369 -0.0213 -0.0989
  653BOLB   GL115651  13.405  25.381  20.826 -0.0187 -0.2024 -0.3165
  653BOLB   GL215652  13.026  25.454  20.924 -0.1726  0.2547  0.1904
  653BOLB   C1A15653  13.436  25.522  21.271 -0.1068  0.1952  0.2618
  653BOLB   C2A15654  13.592  25.795  21.485 -0.1278 -0.0617  0.5953
  653BOLB   C3A15655  13.920  25.835  21.881 -0.0868 -0.2107  0.0956
  653BOLB   C4A15656  13.945  25.729  22.335 -0.2229  0.1999 -0.1455
  653BOLB   C1B15657  12.743  25.444  21.033  0.2230 -0.1734  0.1988
  653BOLB   C2B15658  12.490  25.736  21.228  0.4358 -0.0917  0.1428
  653BOLB   C3B15659  12.325  26.115  21.336  0.0347 -0.1481  0.2119
  653BOLB   C4B15660  12.109  26.059  21.713 -0.0485  0.2128 -0.3776
  653BOLB   NC215661  14.213  27.072  24.609  0.2641 -0.1674  0.0799
  653BOLB   PO215662  13.859  26.859  24.688  0.0677  0.3383 -0.2020
  653BOLB   GL315663  13.956  26.434  24.458  0.0185  0.2106 -0.0612
  653BOLB   GL415664  13.615  26.153  24.567  0.0745 -0.0668  0.3052
  653BOLB   C1C15665  13.854  26.378  24.037 -0.0903  0.0683  0.0347
  653BOLB   C2C15666  13.681  26.149  23.631 -0.0972 -0.1267  0.0194
  653BOLB   C3C15667  13.723  26.011  23.114 -0.0255 -0.0605 -0.1585
  653BOLB   C4C15668  13.978  25.871  22.704  0.1591 -0.3033 -0.2840
  653BOLB   C1D15669  13.361  26.025  24.134  0.0615 -0.2313 -0.4229
  653BOLB   C2D15670  13.193  25.930  23.802  0.2306  0.0152  0.1697
  653BOLB   C3D15671  13.468  25.634  23.526 -0.0941 -0.4985 -0.3076
  653BOLB   C4D15672  13.457  25.131  23.458  0.2322  0.1389 -0.1592
  654BOLB   NC115673  18.152  12.656  23.546  0.1585 -0.0893  0.1837
  654BOLB   PO115674  18.356  12.870  23.682 -0.0708  0.1156 -0.0602
  654BOLB   GL115675  18.479  12.700  24.026 -0.1667  0.1417 -0.2574
  654BOLB   GL215676  18.584  12.890  24.370 -0.0382  0.1144  0.1976
  654BOLB   C1A15677  18.390  12.399  24.347 -0.1775  0.3702 -0.1272
  654BOLB   C2A15678  18.314  12.104  24.701 -0.0467 -0.2731 -0.2535
  654BOLB   C3A15679  18.228  11.834  24.910  0.1179 -0.1153 -0.1197
  654BOLB   C4A15680  18.345  11.525  25.135  0.2082 -0.1720  0.4789
  654BOLB   C1B15681  18.498  12.645  24.752  0.3134  0.1252  0.2047
  654BOLB   C2B15682  18.538  12.481  25.086  0.2339  0.3069  0.2564
  654BOLB   C3B15683  18.562  12.204  25.439  0.2671  0.0050 -0.4142
  654BOLB   C4B15684  18.812  12.321  25.838  0.0352 -0.2294  0.0119
  654BOLB   NC215685  18.128  11.222  27.307  0.0153 -0.1517  0.0997
  654BOLB   PO215686  17.756  11.309  27.449  0.0259 -0.3640 -0.1025
  654BOLB   GL315687  17.885  11.624  27.072  0.1333  0.0550 -0.1421
  654BOLB   GL415688  17.875  12.046  26.995 -0.1248  0.1145  0.0096
  654BOLB   C1C15689  18.167  11.531  26.766  0.0269 -0.0704  0.3792
  654BOLB   C2C15690  18.291  11.240  26.411 -0.2134 -0.0939 -0.1591
  654BOLB   C3C15691  18.503  11.236  25.935 -0.1205 -0.1967  0.0542
  654BOLB   C4C15692  18.491  11.336  25.502  0.1088  0.1215  0.2207
  654BOLB   C1D15693  18.075  12.083  26.651  0.1878 -0.2289  0.1146
  654BOLB   C2D15694  18.349  12.105  26.280 -0.0051  0.2218  0.1603
  654BOLB   C3D15695  18.310  12.334  25.833 -0.2547 -0.3060  0.1188
  654BOLB   C4D15696  18.219  12.621  25.450  0.1452 -0.2323  0.0670
  655BOLB   NC115697  16.845  10.031  21.799 -0.0560  0.0999  0.2010
  655BOLB   PO115698  16.561  10.302  22.027 -0.2667 -0.3258  0.0148
  655BOLB   GL115699  16.445   9.988  22.373  0.3406 -0.2678  0.1239
  655BOLB   GL215700  16.653   9.754  22.208  0.2111 -0.1925 -0.3056
  655BOLB   C1A15701  16.561   9.772  22.728  0.0657 -0.1002  0.2682
  655BOLB   C2A15702  16.709   9.519  23.033  0.1777 -0.0189  0.2490
  655BOLB   C3A15703  16.849   9.391  23.496  0.0344 -0.1285  0.0088
  655BOLB   C4A15704  16.861   9.052  23.877  0.1569 -0.1151  0.3173
  655BOLB   C1B15705  16.887   9.425  22.451  0.0820 -0.1013 -0.0553
  655BOLB   C2B15706  16.940   9.190  22.796 -0.0670  0.0116  0.1088
  655BOLB   C3B15707  16.880   8.991  23.089 -0.2887  0.0673 -0.3545
  655BOLB   C4B15708  16.897   8.635  23.296  0.2679  0.2234 -0.1214
  655BOLB   NC215709  17.052   6.760  25.700  0.1009 -0.0696  0.3245
  655BOLB   PO215710  17.219   6.793  25.323 -0.2157  0.0339 -0.0502
  655BOLB   GL315711  17.385   7.135  24.992  0.1429 -0.1448  0.1151
  655BOLB   GL415712  17.362   7.162  24.582 -0.1571  0.0078  0.1640
  655BOLB   C1C15713  17.267   7.618  24.910  0.1362 -0.1784 -0.0435
  655BOLB   C2C15714  17.292   7.954  24.638 -0.1172  0.3202  0.0353
  655BOLB   C3C15715  17.000   8.257  24.383  0.0892  0.0638  0.0262
  655BOLB   C4C15716  16.929   8.579  24.024  0.1222  0.2227  0.3454
  655BOLB   C1D15717  17.191   7.313  24.129 -0.0603 -0.1729 -0.2200
  655BOLB   C2D15718  17.205   7.421  23.745 -0.0267  0.2808  0.0416
  655BOLB   C3D15719  17.010   7.808  23.551 -0.0227 -0.3464  0.1211
  655BOLB   C4D15720  16.697   8.173  23.661  0.2332 -0.0661  0.6611
  656BOLB   NC115721  18.067  19.809  23.172  0.3680 -0.0417  0.0392
  656BOLB   PO115722  18.316  20.008  23.555 -0.3936  0.1352  0.1385
  656BOLB   GL115723  18.394  20.078  23.994 -0.1753 -0.1312 -0.2079
  656BOLB   GL215724  18.234  20.256  24.280 -0.1873 -0.4028  0.0242
  656BOLB   C1A15725  18.686  20.156  24.403  0.0938 -0.1875  0.2658
  656BOLB   C2A15726  18.741  20.262  24.883 -0.0325 -0.1737 -0.2569
  656BOLB   C3A15727  18.725  20.401  25.259 -0.1036  0.0820 -0.1929
  656BOLB   C4A15728  18.809  20.504  25.582  0.0574 -0.2954 -0.0695
  656BOLB   C1B15729  18.233  20.109  24.663 -0.3096 -0.0852  0.0627
  656BOLB   C2B15730  18.242  20.317  24.961 -0.1286 -0.1183 -0.3286
  656BOLB   C3B15731  18.229  20.454  25.318  0.2209 -0.1904  0.3180
  656BOLB   C4B15732  18.232  20.635  25.671 -0.0398 -0.0150  0.1471
  656BOLB   NC215733  19.350  21.176  27.549  0.2133  0.0162  0.3236
  656BOLB   PO215734  19.030  21.555  27.465  0.4577 -0.0400  0.1969
  656BOLB   GL315735  18.832  21.445  27.073 -0.0999 -0.1160 -0.0177
  656BOLB   GL415736  19.062  21.533  26.848  0.1710  0.1996 -0.1162
  656BOLB   C1C15737  18.594  21.137  26.857  0.3212 -0.1237 -0.3490
  656BOLB   C2C15738  18.431  20.957  26.623  0.0473  0.0180 -0.2445
  656BOLB   C3C15739  18.532  20.858  26.289  0.2760  0.1175 -0.0392
  656BOLB   C4C15740  18.658  20.710  25.901  0.1161  0.0860 -0.0567
  656BOLB   C1D15741  18.921  21.325  26.511 -0.0939  0.1387 -0.1041
  656BOLB   C2D15742  18.872  21.471  26.002  0.2138 -0.2558 -0.0122
  656BOLB   C3D15743  19.009  21.875  25.764  0.1516  0.4772  0.2826
  656BOLB   C4D15744  19.136  21.865  25.401 -0.0795 -0.1129  0.3491
  657BOLB   NC115745  10.482  15.229  23.530  0.1078 -0.3281 -0.4837
  657BOLB   PO115746  10.391  15.694  23.732 -0.1805 -0.1883  0.0707
  657BOLB   GL115747  10.334  15.678  24.209  0.2792  0.3027  0.2169
  657BOLB   GL215748  10.438  15.786  24.558  0.1600  0.0662  0.6872
  657BOLB   C1A15749  10.025  15.452  24.553 -0.0367  0.0334  0.1048
  657BOLB   C2A15750   9.707  15.498  24.909  0.0730  0.4328  0.0751
  657BOLB   C3A15751   9.564  15.519  25.241 -0.1947  0.1179 -0.1604
  657BOLB   C4A15752   9.396  15.497  25.568  0.0588  0.0801 -0.3569
  657BOLB   C1B15753  10.471  15.871  24.975 -0.1555  0.0270  0.2303
  657BOLB   C2B15754  10.130  15.700  25.175  0.1850 -0.2463 -0.0493
  657BOLB   C3B15755   9.872  15.836  25.469  0.0944 -0.0060 -0.0388
  657BOLB   C4B15756   9.449  16.051  25.581 -0.0746 -0.0928 -0.0682
  657BOLB   NC215757   8.279  15.705  27.780 -0.0829  0.1166 -0.1287
  657BOLB   PO215758   8.640  15.524  27.609  0.1315 -0.2067 -0.0333
  657BOLB   GL315759   9.022  15.502  27.324 -0.1360 -0.2797  0.2726
  657BOLB   GL415760   8.951  15.862  27.221  0.0149 -0.0644 -0.3760
  657BOLB   C1C15761   9.156  15.180  27.101  0.0765 -0.1760 -0.0769
  657BOLB   C2C15762   9.200  15.263  26.670 -0.2819 -0.0082 -0.1753
  657BOLB   C3C15763   9.081  15.306  26.244  0.0884 -0.0956 -0.0587
  657BOLB   C4C15764   9.054  15.477  25.825 -0.2185  0.2161  0.4196
  657BOLB   C1D15765   9.157  15.825  26.834  0.1695 -0.2689 -0.3519
  657BOLB   C2D15766   9.601  15.758  26.609 -0.1962  0.0375 -0.0670
  657BOLB   C3D15767   9.379  15.903  26.209 -0.0542 -0.2074  0.1631
  657BOLB   C4D15768   9.014  15.866  26.386 -0.0520 -0.1036 -0.0315
  658BOLB   NC115769   9.017  15.142  23.349  0.1869 -0.0643  0.0709
  658BOLB   PO115770   8.757  15.229  22.960 -0.1203  0.1578 -0.0496
  658BOLB   GL115771   8.515  15.108  23.380  0.2424 -0.2745  0.1524
  658BOLB   GL215772   8.408  15.375  23.552  0.0507  0.0486 -0.2540
  658BOLB   C1A15773   8.059  15.006  23.492 -0.3883  0.0057  0.1537
  658BOLB   C2A15774   7.826  15.215  23.808  0.0648  0.2223 -0.2234
  658BOLB   C3A15775   7.580  15.417  24.090 -0.3627  0.1262  0.0162
  658BOLB   C4A15776   7.546  15.441  24.477  0.1543 -0.0951 -0.0354
  658BOLB   C1B15777   8.182  15.536  23.909  0.0389 -0.1672  0.0561
  658BOLB   C2B15778   7.922  15.802  24.139 -0.1865  0.4622 -0.1714
  658BOLB   C3B15779   8.000  16.057  24.547  0.4577 -0.1285  0.1677
  658BOLB   C4B15780   8.087  16.564  24.543 -0.2986 -0.1700 -0.3745
  658BOLB   NC215781   6.701  15.611  26.821 -0.1604 -0.2113 -0.1200
  658BOLB   PO215782   6.496  15.428  26.574  0.0715 -0.2163  0.0296
  658BOLB   GL315783   6.747  15.767  26.366 -0.5060  0.1180  0.0558
  658BOLB   GL415784   6.664  15.647  26.116  0.1083 -0.0418 -0.2068
  658BOLB   C1C15785   6.972  16.013  26.026  0.1047  0.3079  0.2262
  658BOLB   C2C15786   7.150  15.880  25.638  0.0469  0.2455  0.0105
  658BOLB   C3C15787   7.211  15.614  25.183 -0.2167  0.2452 -0.0156
  658BOLB   C4C15788   7.364  15.388  24.905 -0.1606  0.0146  0.3621
  658BOLB   C1D15789   6.810  15.553  25.671  0.3529  0.0147 -0.2265
  658BOLB   C2D15790   6.646  15.362  25.221  0.0514 -0.3238  0.2859
  658BOLB   C3D15791   6.679  15.455  24.742  0.2333  0.0702  0.1262
  658BOLB   C4D15792   6.605  15.666  24.333 -0.0569  0.0610  0.2015
  659BOLB   NC115793  13.223  11.736  23.939 -0.0731 -0.0722 -0.0439
  659BOLB   PO115794  12.847  11.407  24.018 -0.0029  0.0065  0.2236
  659BOLB   GL115795  12.703  11.134  24.342 -0.0304  0.1891 -0.0947
  659BOLB   GL215796  12.788  10.843  24.255  0.1898  0.1221  0.1309
  659BOLB   C1A15797  12.700  10.994  24.758 -0.1222  0.0546 -0.2417
  659BOLB   C2A15798  12.617  10.928  25.190 -0.0853 -0.1433 -0.2877
  659BOLB   C3A15799  12.557  11.005  25.656  0.0581 -0.0485  0.0311
  659BOLB   C4A15800  12.720  11.051  26.083  0.0658 -0.1050 -0.0524
  659BOLB   C1B15801  13.013  10.631  24.535 -0.1484 -0.0673 -0.1870
  659BOLB   C2B15802  13.235  10.343  24.792  0.2337 -0.0135  0.1088
  659BOLB   C3B15803  13.415  10.422  25.248  0.0616  0.0508 -0.4560
  659BOLB   C4B15804  13.349  10.562  25.781 -0.2143  0.0673  0.3087
  659BOLB   NC215805  13.044  10.219  27.822 -0.0712  0.1844  0.0915
  659BOLB   PO215806  13.456  10.345  28.029  0.0995  0.1250 -0.0914
  659BOLB   GL315807  13.305  10.622  27.752 -0.0112 -0.1569  0.0159
  659BOLB   GL415808  13.622  10.764  27.642 -0.1092  0.1508  0.0638
  659BOLB   C1C15809  13.188  10.551  27.335 -0.1389  0.1659  0.1033
  659BOLB   C2C15810  12.803  10.635  27.178  0.1604  0.2244 -0.0182
  659BOLB   C3C15811  12.580  10.899  26.861 -0.0986 -0.3077 -0.0615
  659BOLB   C4C15812  12.634  10.962  26.452 -0.2027 -0.2962 -0.4155
  659BOLB   C1D15813  13.786  10.814  27.223 -0.2477 -0.2022 -0.1113
  659BOLB   C2D15814  13.938  10.706  26.809  0.0324 -0.2252  0.1338
  659BOLB   C3D15815  13.726  10.767  26.387  0.2021 -0.0379 -0.1667
  659BOLB   C4D15816  13.674  10.933  26.002  0.1239  0.3182 -0.0666
  660BOLB   NC115817  20.114  16.560  23.726 -0.2475 -0.0823 -0.0890
  660BOLB   PO115818  19.997  16.546  24.221 -0.2278 -0.1839  0.0185
  660BOLB   GL115819  20.398  16.464  24.302  0.0348 -0.2120  0.1131
  660BOLB   GL215820  20.366  16.629  24.636 -0.2405 -0.2082 -0.0991
  660BOLB   C1A15821  20.826  16.445  24.488  0.2475 -0.0325 -0.1505
  660BOLB   C2A15822  21.220  16.424  24.637 -0.5417  0.1827  0.1715
  660BOLB   C3A15823  21.373  16.508  24.969 -0.0266  0.3619  0.0008
  660BOLB   C4A15824  21.287  16.269  25.315 -0.0612 -0.1119  0.1198
  660BOLB   C1B15825  20.729  16.844  24.813  0.1824 -0.3052 -0.0218
  660BOLB   C2B15826  20.889  16.668  25.194  0.0747 -0.1101 -0.3212
  660BOLB   C3B15827  20.881  16.493  25.527 -0.0408 -0.2005 -0.3293
  660BOLB   C4B15828  20.758  16.636  25.888  0.0469  0.0832 -0.2608
  660BOLB   NC215829  21.454  16.497  27.621  0.0119  0.2387  0.1548
  660BOLB   PO215830  21.693  16.036  27.568 -0.0696  0.0696  0.1177
  660BOLB   GL315831  21.427  16.001  27.165  0.0671 -0.0672 -0.1217
  660BOLB   GL415832  21.198  16.305  27.180 -0.2527 -0.1416 -0.2860
  660BOLB   C1C15833  21.242  15.910  26.785  0.1383 -0.2006  0.2428
  660BOLB   C2C15834  20.970  15.797  26.528  0.1534 -0.5507 -0.3761
  660BOLB   C3C15835  20.988  15.775  26.026 -0.0662  0.0371  0.2540
  660BOLB   C4C15836  21.000  15.981  25.561  0.1440 -0.3294  0.0188
  660BOLB   C1D15837  21.116  16.387  26.780  0.0046  0.0781 -0.0579
  660BOLB   C2D15838  20.979  16.810  26.601 -0.3184  0.1151  0.0297
  660BOLB   C3D15839  20.625  16.900  26.294 -0.0756 -0.4623  0.4234
  660BOLB   C4D15840  20.461  17.180  25.897 -0.2500  0.2008 -0.2557
  661BOLB   NC115841  10.471   8.508  22.585  0.0404  0.0715  0.0625
  661BOLB   PO115842  10.521   8.254  22.918 -0.3691 -0.0423 -0.1404
  661BOLB   GL115843  10.392   8.445  23.344 -0.0913 -0.0655  0.1577
  661BOLB   GL215844  10.042   8.392  23.419 -0.1883 -0.0251 -0.0016
  661BOLB   C1A15845  10.377   8.865  23.586 -0.0063 -0.2399  0.2168
  661BOLB   C2A15846  10.363   8.964  24.050  0.0639 -0.0025  0.1342
  661BOLB   C3A15847  10.256   9.168  24.394  0.1291 -0.2249  0.0609
  661BOLB   C4A15848  10.270   9.275  24.887 -0.1076 -0.0056 -0.0241
  661BOLB   C1B15849  10.084   8.497  23.852  0.1627 -0.0414  0.0550
  661BOLB   C2B15850   9.729   8.336  24.244 -0.2913 -0.0228 -0.1291
  661BOLB   C3B15851   9.631   8.492  24.657  0.0871 -0.0845 -0.2832
  661BOLB   C4B15852   9.412   8.195  24.944  0.2755 -0.3253 -0.0967
  661BOLB   NC215853  11.058   8.289  26.789 -0.1098  0.2107  0.0100
  661BOLB   PO215854  10.619   8.412  26.946 -0.1531 -0.1633  0.0533
  661BOLB   GL315855  10.723   8.827  26.825 -0.2630  0.1309 -0.0109
  661BOLB   GL415856  11.114   8.893  26.710 -0.1706  0.0172 -0.1983
  661BOLB   C1C15857  10.678   9.118  26.423 -0.2637  0.2248 -0.1123
  661BOLB   C2C15858  10.782   9.186  25.961  0.0206  0.0466  0.0418
  661BOLB   C3C15859  10.792   9.334  25.506  0.1992 -0.1438  0.0659
  661BOLB   C4C15860  10.617   9.319  25.121 -0.1668  0.2681 -0.0711
  661BOLB   C1D15861  11.198   9.098  26.381 -0.1260  0.1271 -0.0129
  661BOLB   C2D15862  11.231   9.005  25.910 -0.2087  0.0576  0.1745
  661BOLB   C3D15863  11.273   9.211  25.440 -0.1172  0.0708  0.2980
  661BOLB   C4D15864  11.128   9.291  25.087 -0.1228 -0.2372 -0.1171
  662BOLB   NC115865  13.429  18.565  24.218 -0.2827 -0.1458 -0.2190
  662BOLB   PO115866  13.160  18.782  24.374  0.1607 -0.0071 -0.0115
  662BOLB   GL115867  13.073  18.742  24.754 -0.2276 -0.0020  0.1860
  662BOLB   GL215868  13.061  18.463  24.842  0.2325 -0.1739 -0.1298
  662BOLB   C1A15869  13.305  19.022  25.095  0.0061  0.1243  0.0175
  662BOLB   C2A15870  13.118  19.165  25.534 -0.1357  0.0514  0.0188
  662BOLB   C3A15871  12.884  19.249  25.858 -0.1249 -0.0193 -0.4722
  662BOLB   C4A15872  12.817  19.450  26.205  0.0073 -0.0207  0.0181
  662BOLB   C1B15873  12.936  18.621  25.272  0.0798  0.0666  0.1681
  662BOLB   C2B15874  12.930  18.772  25.811  0.0143 -0.3041 -0.3594
  662BOLB   C3B15875  12.920  18.886  26.181 -0.0886 -0.3537  0.1025
  662BOLB   C4B15876  13.048  19.044  26.572 -0.0709 -0.0389 -0.0454
  662BOLB   NC215877  13.182  18.231  28.897 -0.1455  0.1263 -0.0585
  662BOLB   PO215878  13.026  18.488  28.427 -0.0748 -0.2596 -0.1336
  662BOLB   GL315879  13.219  18.526  28.075  0.0018 -0.1538  0.0541
  662BOLB   GL415880  13.161  18.242  27.965 -0.1704 -0.1101 -0.1241
  662BOLB   C1C15881  13.013  18.733  27.760  0.0296 -0.1250 -0.3248
  662BOLB   C2C15882  12.776  18.873  27.396  0.0781 -0.2197 -0.2281
  662BOLB   C3C15883  12.779  19.165  27.079 -0.0311 -0.0714 -0.0271
  662BOLB   C4C15884  12.720  19.446  26.689  0.2121  0.2291  0.2814
  662BOLB   C1D15885  13.081  18.395  27.424  0.3188  0.1650 -0.2273
  662BOLB   C2D15886  13.118  18.201  27.061 -0.0453  0.2557  0.5105
  662BOLB   C3D15887  12.962  17.880  26.709  0.1731 -0.3134 -0.1046
  662BOLB   C4D15888  13.040  17.750  26.347 -0.2899 -0.4147  0.2520
  663BOLB   NC115889  22.321  12.437  22.179  0.0275  0.1633 -0.1292
  663BOLB   PO115890  21.903  12.326  22.501 -0.2574 -0.4013  0.1152
  663BOLB   GL115891  22.147  11.996  22.614 -0.1622  0.0056  0.0305
  663BOLB   GL215892  21.946  11.854  22.640 -0.0044 -0.2037 -0.2480
  663BOLB   C1A15893  22.469  11.855  22.868 -0.0016 -0.1835  0.0499
  663BOLB   C2A15894  22.621  11.878  23.297 -0.2179  0.0667 -0.1119
  663BOLB   C3A15895  22.782  11.955  23.727 -0.0543  0.0405  0.1204
  663BOLB   C4A15896  23.015  11.761  24.056  0.0996  0.1068  0.5077
  663BOLB   C1B15897  22.026  11.575  22.980 -0.5779 -0.1063  0.2315
  663BOLB   C2B15898  22.465  11.420  23.131  0.5094  0.2082  0.0368
  663BOLB   C3B15899  22.385  10.997  23.353  0.0209 -0.0835 -0.3847
  663BOLB   C4B15900  22.029  10.848  23.496 -0.0867  0.1327 -0.0412
  663BOLB   NC215901  24.799  10.333  24.281  0.0168  0.2815  0.3987
  663BOLB   PO215902  24.737  10.626  24.613 -0.0889  0.0967  0.0372
  663BOLB   GL315903  24.313  10.691  24.431  0.2529 -0.1336 -0.0473
  663BOLB   GL415904  24.352  10.526  24.181 -0.2501  0.2696 -0.1361
  663BOLB   C1C15905  23.951  10.772  24.641 -0.0465  0.0271  0.1319
  663BOLB   C2C15906  23.802  11.096  24.700  0.0091 -0.1766  0.1537
  663BOLB   C3C15907  23.579  11.437  24.626  0.0570  0.0294 -0.1503
  663BOLB   C4C15908  23.319  11.638  24.379  0.2445 -0.0421 -0.0660
  663BOLB   C1D15909  24.557  10.984  24.056  0.0400  0.1094 -0.1179
  663BOLB   C2D15910  24.760  11.192  23.853  0.2223 -0.0156 -0.0958
  663BOLB   C3D15911  24.975  11.333  23.432  0.0709  0.0778 -0.2198
  663BOLB   C4D15912  24.920  11.331  23.006 -0.3757 -0.1153  0.0557
  664BOLB   NC115913   8.941  16.719  23.310  0.0585 -0.0054 -0.0470
  664BOLB   PO115914   9.101  17.108  23.194 -0.0687  0.0898  0.0553
  664BOLB   GL115915   8.859  17.234  23.457  0.0060 -0.0044 -0.0474
  664BOLB   GL215916   8.903  17.171  23.766 -0.0532  0.0707  0.0931
  664BOLB   C1A15917   8.334  17.447  23.678  0.1398  0.0317  0.1275
  664BOLB   C2A15918   8.105  17.479  24.036  0.3768 -0.0620 -0.1668
  664BOLB   C3A15919   7.912  17.687  24.413  0.0566  0.2611 -0.0297
  664BOLB   C4A15920   7.897  17.786  24.825 -0.0527  0.1187  0.0227
  664BOLB   C1B15921   8.561  17.252  24.092  0.0591 -0.1325 -0.0983
  664BOLB   C2B15922   8.355  17.355  24.476 -0.0406  0.0467  0.0866
  664BOLB   C3B15923   8.248  17.407  24.837  0.2122  0.1929  0.1027
  664BOLB   C4B15924   8.017  17.357  25.160  0.0685  0.4622  0.2092
  664BOLB   NC215925   5.575  18.730  26.138  0.0544  0.3068 -0.2687
  664BOLB   PO215926   5.911  18.697  25.878  0.1494  0.1993  0.1407
  664BOLB   GL315927   6.401  18.574  26.017  0.1384  0.2217 -0.2790
  664BOLB   GL415928   6.697  18.771  26.078 -0.1554 -0.3963  0.3172
  664BOLB   C1C15929   6.749  18.262  25.993  0.1442 -0.1751  0.2438
  664BOLB   C2C15930   6.989  18.191  25.508 -0.4072 -0.1687  0.1601
  664BOLB   C3C15931   7.321  18.206  25.217  0.1176 -0.2712  0.1759
  664BOLB   C4C15932   7.609  18.058  24.983 -0.0825  0.0231 -0.2342
  664BOLB   C1D15933   7.033  18.718  25.860  0.1979 -0.3379  0.0729
  664BOLB   C2D15934   7.131  18.717  25.401  0.0190  0.0943  0.0127
  664BOLB   C3D15935   6.826  18.936  25.001 -0.2261 -0.0603  0.1538
  664BOLB   C4D15936   6.577  19.242  24.862  0.1279 -0.1763 -0.2129
  665BOLB   NC115937  14.713  16.702  24.918 -0.2189  0.1682  0.1800
  665BOLB   PO115938  15.177  16.647  25.125  0.1725  0.3339  0.0206
  665BOLB   GL115939  15.305  16.837  25.464  0.2257 -0.0669  0.2062
  665BOLB   GL215940  15.676  16.776  25.523  0.2310 -0.2726 -0.1295
  665BOLB   C1A15941  15.216  16.882  25.920  0.1180 -0.0949  0.0807
  665BOLB   C2A15942  15.234  16.650  26.354  0.2468  0.4283 -0.2632
  665BOLB   C3A15943  15.331  16.297  26.586  0.0027  0.1126  0.2327
  665BOLB   C4A15944  15.642  15.991  26.830  0.1535 -0.2439 -0.0641
  665BOLB   C1B15945  15.679  16.634  25.924 -0.0420 -0.1012 -0.2074
  665BOLB   C2B15946  15.912  16.560  26.329  0.0673  0.0837  0.5287
  665BOLB   C3B15947  15.974  16.400  26.754 -0.0829  0.0631 -0.0062
  665BOLB   C4B15948  16.102  16.246  27.198 -0.0995 -0.1186 -0.0525
  665BOLB   NC215949  16.437  15.531  29.267  0.1517  0.0442 -0.2170
  665BOLB   PO215950  16.407  15.001  29.020  0.1365  0.1086 -0.0415
  665BOLB   GL315951  16.374  15.181  28.585 -0.0807 -0.1656 -0.0033
  665BOLB   GL415952  16.667  15.315  28.408  0.2849  0.1392 -0.1143
  665BOLB   C1C15953  16.222  15.295  28.148 -0.0139 -0.0872 -0.0052
  665BOLB   C2C15954  15.855  15.401  27.933  0.0579 -0.0832 -0.0841
  665BOLB   C3C15955  15.792  15.653  27.515  0.1823  0.2775 -0.1901
  665BOLB   C4C15956  15.875  15.787  27.099 -0.0884 -0.0130  0.0590
  665BOLB   C1D15957  16.747  15.257  27.963 -0.1016 -0.1938 -0.2129
  665BOLB   C2D15958  17.064  15.140  27.540 -0.1326 -0.0108 -0.2432
  665BOLB   C3D15959  17.443  14.942  27.407  0.1497 -0.0707  0.2207
  665BOLB   C4D15960  17.828  14.721  27.297 -0.3285 -0.0541 -0.0062
  666BOLB   NC115961  22.541  19.067  21.929 -0.0244 -0.4922 -0.0003
  666BOLB   PO115962  22.462  19.044  22.328  0.3632  0.2223  0.0228
  666BOLB   GL115963  22.448  19.185  22.869 -0.0868  0.1558  0.1825
  666BOLB   GL215964  22.774  19.420  22.970 -0.2451 -0.1533  0.0495
  666BOLB   C1A15965  22.345  19.279  23.295  0.1779 -0.0342 -0.1056
  666BOLB   C2A15966  22.220  19.625  23.642  0.1942 -0.0844 -0.0783
  666BOLB   C3A15967  22.552  19.938  23.858  0.4998 -0.0540 -0.0384
  666BOLB   C4A15968  22.380  20.215  24.160 -0.0522  0.2488  0.2612
  666BOLB   C1B15969  23.102  19.575  23.118  0.1240  0.0132 -0.0836
  666BOLB   C2B15970  23.381  19.676  23.358 -0.1056 -0.1241 -0.1812
  666BOLB   C3B15971  23.620  19.598  23.795 -0.0044 -0.3609  0.1751
  666BOLB   C4B15972  23.881  19.400  24.031  0.1495  0.1692  0.2720
  666BOLB   NC215973  23.559  20.350  26.949  0.4469  0.3166 -0.0525
  666BOLB   PO215974  23.488  20.356  26.488 -0.3902 -0.1097  0.2588
  666BOLB   GL315975  23.453  20.351  26.069  0.0326 -0.0632  0.0266
  666BOLB   GL415976  23.593  20.673  25.865 -0.1260  0.1793 -0.0506
  666BOLB   C1C15977  23.077  20.580  25.738  0.2788  0.1360  0.0393
  666BOLB   C2C15978  22.833  20.605  25.288  0.2037  0.2365 -0.2480
  666BOLB   C3C15979  22.508  20.603  24.943 -0.0327 -0.0665 -0.3225
  666BOLB   C4C15980  22.641  20.494  24.514  0.0916  0.0134 -0.2800
  666BOLB   C1D15981  23.484  20.421  25.483 -0.4098 -0.0443 -0.0552
  666BOLB   C2D15982  23.191  20.158  25.428 -0.0236  0.0197  0.2461
  666BOLB   C3D15983  23.005  20.052  25.787  0.2903  0.0299 -0.0500
  666BOLB   C4D15984  22.614  19.860  25.888  0.2067 -0.2001  0.1648
  667BOLB   NC115985  11.440  23.344  22.336 -0.0814  0.0056 -0.1041
  667BOLB   PO115986  10.992  23.193  22.213  0.2637  0.1444  0.1178
  667BOLB   GL115987  11.002  23.424  22.600 -0.1818  0.2185 -0.1431
  667BOLB   GL215988  11.287  23.354  22.850 -0.2635 -0.2207  0.0976
  667BOLB   C1A15989  10.943  23.572  23.065 -0.2014 -0.1770 -0.2159
  667BOLB   C2A15990  11.022  23.634  23.516  0.1728 -0.0477 -0.3550
  667BOLB   C3A15991  11.189  23.719  23.816  0.1430  0.1016  0.0472
  667BOLB   C4A15992  11.291  23.714  24.162  0.0644  0.0234  0.0493
  667BOLB   C1B15993  11.549  23.444  23.129  0.1381  0.0221  0.1469
  667BOLB   C2B15994  11.646  23.669  23.452  0.1872 -0.1025 -0.2298
  667BOLB   C3B15995  11.700  23.883  23.793 -0.1710 -0.3580  0.1816
  667BOLB   C4B15996  11.590  24.053  24.194 -0.1011 -0.0080 -0.1314
  667BOLB   NC215997  11.486  25.104  26.547  0.3443 -0.0487  0.3150
  667BOLB   PO215998  11.275  25.244  26.130  0.0576  0.0958  0.0272
  667BOLB   GL315999  11.265  24.968  25.808 -0.0664  0.1231 -0.3146
  667BOLB   GL416000  11.606  25.074  25.679  0.0551  0.0064  0.0310
  667BOLB   C1C16001  11.173  24.607  25.358 -0.2775  0.0239  0.2268
  667BOLB   C2C16002  11.309  24.231  25.257 -0.2143 -0.1013 -0.2737
  667BOLB   C3C16003  11.270  23.984  24.804  0.0085 -0.1444 -0.1288
  667BOLB   C4C16004  11.274  23.813  24.456  0.0874  0.0889 -0.0066
  667BOLB   C1D16005  12.004  25.004  25.398  0.2258  0.1545  0.2584
  667BOLB   C2D16006  12.138  24.591  25.147 -0.5121 -0.0675  0.0641
  667BOLB   C3D16007  12.165  24.186  24.970  0.3681 -0.0005  0.0966
  667BOLB   C4D16008  12.219  23.823  24.663 -0.0585 -0.1972  0.0037
  668BOLB   NC116009  14.502  17.949  24.113 -0.2124 -0.2249  0.2503
  668BOLB   PO116010  14.785  18.027  24.562 -0.2698 -0.1169 -0.1068
  668BOLB   GL116011  14.576  17.973  25.047 -0.1832  0.2781  0.0132
  668BOLB   GL216012  14.495  18.314  25.076  0.1152 -0.4794 -0.0756
  668BOLB   C1A16013  14.752  17.863  25.377 -0.0320 -0.0926 -0.1678
  668BOLB   C2A16014  15.191  17.923  25.670  0.3584 -0.2870  0.1699
  668BOLB   C3A16015  15.066  17.837  26.168  0.0698  0.3383 -0.2426
  668BOLB   C4A16016  15.019  17.711  26.652 -0.0667 -0.0914  0.2539
  668BOLB   C1B16017  14.523  18.268  25.448 -0.2776 -0.1059 -0.0625
  668BOLB   C2B16018  14.748  18.148  25.870 -0.0303  0.2676  0.1698
  668BOLB   C3B16019  14.870  18.343  26.280  0.0178 -0.1985  0.2880
  668BOLB   C4B16020  15.128  18.177  26.597  0.2257  0.1079  0.0201
  668BOLB   NC216021  14.705  18.979  28.703 -0.2863  0.0231 -0.1375
  668BOLB   PO216022  15.174  18.991  28.805 -0.0063  0.0214 -0.0865
  668BOLB   GL316023  15.077  18.926  28.302  0.0485  0.0867 -0.1516
  668BOLB   GL416024  15.198  18.679  28.218  0.3533 -0.0827  0.2511
  668BOLB   C1C16025  14.884  18.916  27.947 -0.2525 -0.1356  0.0190
  668BOLB   C2C16026  14.802  18.537  27.691 -0.1185  0.2609  0.0930
  668BOLB   C3C16027  14.886  18.259  27.394  0.1890 -0.0769 -0.0892
  668BOLB   C4C16028  15.078  17.957  27.096 -0.0738 -0.0441 -0.1249
  668BOLB   C1D16029  15.360  18.795  27.863  0.0135  0.4015  0.0994
  668BOLB   C2D16030  15.111  18.921  27.462 -0.2235  0.0412 -0.3811
  668BOLB   C3D16031  14.643  19.122  27.483  0.1506 -0.1751  0.1171
  668BOLB   C4D16032  14.348  19.253  27.710 -0.1445  0.0754  0.0309
  669BOLB   NC116033  16.199  21.699  22.429 -0.1360 -0.0404  0.0030
  669BOLB   PO116034  16.084  21.795  22.837 -0.3001 -0.0896 -0.3324
  669BOLB   GL116035  16.338  21.943  23.068  0.1542  0.3000 -0.0523
  669BOLB   GL216036  16.191  22.257  23.112 -0.1262  0.0218 -0.4187
  669BOLB   C1A16037  16.590  22.118  23.372 -0.0967 -0.0568  0.1298
  669BOLB   C2A16038  16.655  22.210  23.863 -0.2556 -0.0262  0.0180
  669BOLB   C3A16039  16.892  22.474  24.130 -0.2698 -0.0768  0.2717
  669BOLB   C4A16040  16.816  22.783  24.374  0.3355  0.1249 -0.2751
  669BOLB   C1B16041  16.129  22.330  23.560 -0.0626  0.1093  0.1633
  669BOLB   C2B16042  16.262  22.516  23.885  0.2914 -0.0398  0.0932
  669BOLB   C3B16043  16.309  22.788  24.219  0.0472 -0.0927  0.0345
  669BOLB   C4B16044  16.392  22.991  24.717  0.0639  0.1017  0.0291
  669BOLB   NC216045  16.578  24.512  26.287  0.1398 -0.0404  0.0877
  669BOLB   PO216046  16.456  24.706  25.937 -0.0725 -0.2035  0.1778
  669BOLB   GL316047  16.800  24.241  25.831  0.0020  0.2297  0.1764
  669BOLB   GL416048  17.136  24.333  25.725 -0.1951 -0.0256 -0.0264
  669BOLB   C1C16049  16.868  23.836  25.756  0.0883 -0.0004 -0.0766
  669BOLB   C2C16050  16.700  23.540  25.378 -0.0533 -0.0479 -0.1816
  669BOLB   C3C16051  16.684  23.298  25.003  0.0743 -0.2455  0.0088
  669BOLB   C4C16052  16.886  23.105  24.728  0.1504 -0.2688  0.1367
  669BOLB   C1D16053  17.034  24.090  25.334 -0.0408  0.0934  0.2103
  669BOLB   C2D16054  16.884  24.129  24.932  0.3232 -0.2121 -0.1326
  669BOLB   C3D16055  16.695  23.954  24.651 -0.1319 -0.4342  0.0990
  669BOLB   C4D16056  16.229  23.943  24.485  0.0115 -0.0266 -0.3282
  670BOLB   NC116057  16.649  16.348  24.528 -0.0207 -0.0953 -0.0102
  670BOLB   PO116058  16.938  16.478  24.818 -0.1745 -0.1792 -0.0933
  670BOLB   GL116059  17.008  16.159  25.132 -0.0292 -0.0067  0.0238
  670BOLB   GL216060  17.132  16.309  25.341 -0.2546 -0.0107  0.1429
  670BOLB   C1A16061  16.975  15.872  25.516  0.4233  0.4401  0.1034
  670BOLB   C2A16062  16.842  15.639  25.849 -0.0977 -0.0119  0.0156
  670BOLB   C3A16063  16.986  15.595  26.219 -0.0137  0.1923 -0.1500
  670BOLB   C4A16064  16.988  15.334  26.557  0.2652  0.2909 -0.0068
  670BOLB   C1B16065  17.271  16.282  25.703 -0.0433  0.1161 -0.2653
  670BOLB   C2B16066  17.679  16.535  25.915  0.1510 -0.2007  0.1720
  670BOLB   C3B16067  17.770  16.709  26.255 -0.4139 -0.2733 -0.1753
  670BOLB   C4B16068  17.858  16.801  26.676  0.2128 -0.1452 -0.0707
  670BOLB   NC216069  16.070  14.673  29.033  0.0439  0.2071 -0.0472
  670BOLB   PO216070  15.871  14.418  28.764  0.0993 -0.0047  0.0852
  670BOLB   GL316071  16.252  14.488  28.533 -0.1946  0.0813  0.0970
  670BOLB   GL416072  16.543  14.218  28.415 -0.1708  0.1995 -0.0112
  670BOLB   C1C16073  16.509  14.748  28.081  0.3495 -0.2560  0.0328
  670BOLB   C2C16074  16.532  14.947  27.646  0.5866 -0.2689  0.2543
  670BOLB   C3C16075  16.623  15.136  27.323 -0.0461  0.1203 -0.0322
  670BOLB   C4C16076  16.646  15.164  26.795 -0.1281  0.0356 -0.1115
  670BOLB   C1D16077  16.663  14.161  27.932  0.4431 -0.0273 -0.0815
  670BOLB   C2D16078  16.629  14.150  27.457 -0.1642  0.1276 -0.1941
  670BOLB   C3D16079  16.736  14.155  27.084 -0.1306 -0.2479  0.0447
  670BOLB   C4D16080  17.184  14.214  26.828  0.0804  0.1387 -0.0549
  671BOLB   NC116081  22.786  12.542  21.490 -0.0854  0.2579 -0.1741
  671BOLB   PO116082  22.655  12.259  21.839 -0.0080  0.0310  0.1210
  671BOLB   GL116083  22.700  12.128  22.338 -0.0516 -0.0449  0.2008
  671BOLB   GL216084  22.558  12.310  22.624 -0.1136  0.2550 -0.2380
  671BOLB   C1A16085  22.891  11.801  22.595  0.0890  0.1482  0.2244
  671BOLB   C2A16086  22.970  11.613  23.051 -0.0697  0.0678  0.0895
  671BOLB   C3A16087  22.921  11.240  23.301 -0.0263  0.0381  0.0948
  671BOLB   C4A16088  22.772  11.243  23.706 -0.2388  0.2626  0.0957
  671BOLB   C1B16089  22.925  12.178  22.878  0.0496  0.0626 -0.0213
  671BOLB   C2B16090  23.039  12.112  23.241 -0.0984 -0.0212 -0.2190
  671BOLB   C3B16091  23.483  11.852  23.152  0.1821 -0.1252 -0.1358
  671BOLB   C4B16092  23.882  11.562  23.161  0.1735 -0.0424 -0.4709
  671BOLB   NC216093  23.754  11.222  26.117  0.0931 -0.0904 -0.1160
  671BOLB   PO216094  24.054  10.934  25.812 -0.1178 -0.3215  0.1592
  671BOLB   GL316095  23.729  11.267  25.545 -0.1460 -0.1998  0.0929
  671BOLB   GL416096  23.935  11.429  25.566 -0.1180 -0.2130 -0.0759
  671BOLB   C1C16097  23.405  11.342  25.202  0.1893 -0.1655 -0.2236
  671BOLB   C2C16098  23.217  11.164  24.848 -0.1014  0.1527  0.3389
  671BOLB   C3C16099  22.942  11.206  24.523  0.0841 -0.3180 -0.0207
  671BOLB   C4C16100  22.792  11.229  24.075  0.4290 -0.0454 -0.0299
  671BOLB   C1D16101  23.616  11.753  25.490 -0.0438 -0.1682  0.2439
  671BOLB   C2D16102  23.228  11.737  25.446 -0.1457 -0.0978  0.0444
  671BOLB   C3D16103  22.949  12.040  25.258  0.0665 -0.1496 -0.3021
  671BOLB   C4D16104  22.605  12.014  25.026 -0.0554  0.1840  0.1919
  672BOLB   NC116105  18.627  17.573  24.164  0.4451 -0.1716 -0.2945
  672BOLB   PO116106  18.437  17.954  24.412 -0.1142  0.0539  0.3697
  672BOLB   GL116107  18.248  17.869  24.801 -0.2195 -0.1156  0.0263
  672BOLB   GL216108  18.034  17.904  25.029 -0.1063 -0.3001  0.0715
  672BOLB   C1A16109  18.389  18.153  25.191 -0.0480  0.1494 -0.1390
  672BOLB   C2A16110  18.502  18.238  25.611 -0.3602  0.0482 -0.1432
  672BOLB   C3A16111  18.401  18.221  26.042  0.1298  0.2397  0.1773
  672BOLB   C4A16112  18.428  18.171  26.445 -0.2335 -0.0256  0.2621
  672BOLB   C1B16113  17.894  18.063  25.329  0.0084 -0.1696  0.0622
  672BOLB   C2B16114  17.791  18.213  25.849  0.2138 -0.1072 -0.1395
  672BOLB   C3B16115  17.615  18.322  26.179 -0.1689  0.1692 -0.0490
  672BOLB   C4B16116  17.684  18.134  26.668 -0.1286 -0.5653  0.0859
  672BOLB   NC216117  19.443  17.609  28.851 -0.0794 -0.0422  0.1060
  672BOLB   PO216118  19.118  17.856  28.541  0.0629 -0.0119  0.1207
  672BOLB   GL316119  18.883  17.843  28.163  0.1913  0.0640 -0.1521
  672BOLB   GL416120  18.869  18.101  28.081 -0.0390 -0.2036  0.2254
  672BOLB   C1C16121  18.701  17.498  27.953 -0.1547 -0.1152 -0.0167
  672BOLB   C2C16122  18.530  17.463  27.441 -0.2583  0.1129 -0.0586
  672BOLB   C3C16123  18.559  17.467  27.002  0.2482 -0.2020  0.1315
  672BOLB   C4C16124  18.404  17.865  26.686 -0.0981  0.2182 -0.0861
  672BOLB   C1D16125  18.872  17.985  27.672 -0.0118  0.0273  0.0704
  672BOLB   C2D16126  19.304  17.915  27.492 -0.5567 -0.0164 -0.1124
  672BOLB   C3D16127  19.409  17.756  27.036 -0.2040 -0.2585  0.0155
  672BOLB   C4D16128  19.156  17.623  26.681 -0.1875  0.1628 -0.2448
  673BOLB   NC116129  20.780  18.659  23.384  0.3485 -0.2440 -0.0471
  673BOLB   PO116130  20.657  19.083  23.331  0.1392  0.1747  0.1613
  673BOLB   GL116131  20.535  19.321  23.629 -0.3385  0.0129 -0.2141
  673BOLB   GL216132  20.369  19.563  23.568  0.2893 -0.0642 -0.1216
  673BOLB   C1A16133  20.255  19.306  24.027  0.4188 -0.0880 -0.0518
  673BOLB   C2A16134  20.299  19.336  24.504 -0.0652  0.3364 -0.0221
  673BOLB   C3A16135  20.451  19.424  24.909  0.2617 -0.3652 -0.0869
  673BOLB   C4A16136  20.683  19.351  25.309 -0.0686 -0.0569 -0.0523
  673BOLB   C1B16137  20.397  19.755  23.913 -0.0735 -0.2351  0.1319
  673BOLB   C2B16138  20.634  19.622  24.303 -0.1196  0.2919  0.0170
  673BOLB   C3B16139  20.824  19.430  24.589  0.2436 -0.0462 -0.2383
  673BOLB   C4B16140  20.898  19.268  24.922  0.1512  0.4880  0.3944
  673BOLB   NC216141  20.986  18.365  27.547 -0.4053 -0.0385  0.1170
  673BOLB   PO216142  21.421  18.461  27.381 -0.0002  0.2785 -0.0084
  673BOLB   GL316143  21.267  18.521  27.000  0.0930 -0.3078  0.0255
  673BOLB   GL416144  21.658  18.580  26.884  0.2523  0.0183 -0.0205
  673BOLB   C1C16145  21.076  18.768  26.797 -0.1991  0.0054  0.2193
  673BOLB   C2C16146  21.015  19.003  26.344 -0.1348 -0.0519  0.1893
  673BOLB   C3C16147  20.686  19.238  26.109 -0.1403 -0.0014  0.2402
  673BOLB   C4C16148  20.481  19.196  25.663  0.1194  0.1269 -0.0521
  673BOLB   C1D16149  21.549  18.768  26.520 -0.4637  0.0027 -0.0733
  673BOLB   C2D16150  21.469  18.761  26.067 -0.3594  0.1148  0.1117
  673BOLB   C3D16151  21.256  18.748  25.698 -0.1092  0.0981  0.2611
  673BOLB   C4D16152  20.873  18.872  25.566 -0.0839 -0.0345 -0.1317
  674BOLB   NC116153  16.286  19.767  24.344 -0.0148 -0.1613 -0.0327
  674BOLB   PO116154  16.618  19.775  24.092  0.0178 -0.1431 -0.2359
  674BOLB   GL116155  16.738  20.080  24.491  0.0357  0.0870 -0.0896
  674BOLB   GL216156  16.686  20.279  24.353 -0.3790 -0.0110  0.2683
  674BOLB   C1A16157  16.738  20.110  24.880 -0.1033 -0.0946  0.0254
  674BOLB   C2A16158  16.776  20.341  25.206  0.1235  0.1053  0.0259
  674BOLB   C3A16159  16.746  20.562  25.444  0.1673  0.3050  0.2540
  674BOLB   C4A16160  16.544  20.995  25.550 -0.0931 -0.0557 -0.0201
  674BOLB   C1B16161  16.892  20.510  24.685  0.0009 -0.0728 -0.1225
  674BOLB   C2B16162  16.892  20.816  25.057 -0.2432  0.1799 -0.0498
  674BOLB   C3B16163  17.061  20.971  25.417 -0.0024 -0.1892  0.0379
  674BOLB   C4B16164  17.047  21.178  25.713 -0.0845 -0.2646  0.0509
  674BOLB   NC216165  16.870  21.955  27.323 -0.1741  0.2113 -0.0932
  674BOLB   PO216166  16.482  22.052  27.555 -0.0727  0.2273  0.1320
  674BOLB   GL316167  16.484  22.105  27.049 -0.4699  0.4478  0.0637
  674BOLB   GL416168  16.647  21.857  26.870 -0.2560 -0.1920 -0.1898
  674BOLB   C1C16169  16.266  22.019  26.662 -0.3336  0.2588 -0.0581
  674BOLB   C2C16170  16.024  21.837  26.420 -0.0730 -0.3125  0.1271
  674BOLB   C3C16171  15.918  21.502  26.189 -0.0980 -0.1807 -0.0536
  674BOLB   C4C16172  16.149  21.327  25.796 -0.2074  0.0622 -0.0618
  674BOLB   C1D16173  16.563  21.377  26.864  0.0111 -0.1449 -0.0297
  674BOLB   C2D16174  16.633  21.043  26.663  0.4853  0.2197  0.1372
  674BOLB   C3D16175  16.763  21.036  26.340  0.0650 -0.2175  0.1234
  674BOLB   C4D16176  16.795  20.816  25.930 -0.2506 -0.1066 -0.1310
  675BOLB   NC116177  20.832  16.064  23.255  0.1495  0.1277  0.0510
  675BOLB   PO116178  20.657  15.806  23.597  0.0172 -0.0923 -0.0082
  675BOLB   GL116179  20.747  15.878  24.140  0.0877  0.0044  0.2563
  675BOLB   GL216180  20.841  16.075  24.223 -0.2263  0.1306  0.2472
  675BOLB   C1A16181  20.784  15.575  24.476  0.1320  0.3059 -0.0990
  675BOLB   C2A16182  20.980  15.639  24.962  0.0773  0.1125  0.0853
  675BOLB   C3A16183  21.213  15.643  25.250 -0.5593  0.1639  0.1127
  675BOLB   C4A16184  21.443  15.737  25.644  0.2412  0.1329 -0.0315
  675BOLB   C1B16185  20.974  16.012  24.659  0.1283 -0.0226 -0.0313
  675BOLB   C2B16186  20.875  16.144  25.099 -0.1069  0.1689 -0.0892
  675BOLB   C3B16187  20.528  15.970  25.352 -0.3530 -0.1108  0.0836
  675BOLB   C4B16188  20.191  15.615  25.168 -0.2813 -0.1779 -0.0789
  675BOLB   NC216189  22.780  15.587  27.898 -0.0499 -0.3189  0.1953
  675BOLB   PO216190  22.711  15.359  27.567 -0.0640  0.0457  0.0312
  675BOLB   GL316191  22.300  15.570  27.349 -0.3750 -0.1374 -0.0398
  675BOLB   GL416192  22.133  16.015  27.303  0.2349 -0.0129 -0.2778
  675BOLB   C1C16193  22.155  15.588  26.932 -0.0564 -0.1616  0.0215
  675BOLB   C2C16194  21.990  15.560  26.549  0.3549  0.1284  0.2905
  675BOLB   C3C16195  21.916  15.652  26.164 -0.1903  0.0911 -0.2537
  675BOLB   C4C16196  21.582  15.747  26.000  0.2448  0.1101  0.1920
  675BOLB   C1D16197  21.882  16.050  26.929 -0.0321  0.3042 -0.1934
  675BOLB   C2D16198  21.681  15.907  26.539  0.0235 -0.1232  0.1828
  675BOLB   C3D16199  21.679  16.194  26.181  0.2712 -0.1248 -0.1446
  675BOLB   C4D16200  21.847  16.063  25.706  0.2212 -0.0076  0.0080
  676BOLB   NC116201  14.157  15.821  25.154 -0.0211  0.2227  0.1834
  676BOLB   PO116202  13.713  15.617  24.983 -0.1377 -0.1425 -0.0362
  676BOLB   GL116203  13.782  15.476  25.427  0.3216 -0.1613 -0.0018
  676BOLB   GL216204  13.801  15.114  25.593 -0.0087  0.2405 -0.0208
  676BOLB   C1A16205  13.860  15.461  25.936 -0.1440  0.0926 -0.0990
  676BOLB   C2A16206  13.785  15.685  26.281 -0.2333 -0.0808 -0.4041
  676BOLB   C3A16207  13.685  15.707  26.709  0.0761 -0.2706  0.4491
  676BOLB   C4A16208  13.417  15.981  27.133  0.2215 -0.0616  0.1158
  676BOLB   C1B16209  13.890  14.991  26.028  0.0011  0.0063 -0.3191
  676BOLB   C2B16210  14.034  15.191  26.399  0.0700  0.0946 -0.1280
  676BOLB   C3B16211  14.220  15.195  26.708  0.0162  0.0909 -0.1611
  676BOLB   C4B16212  14.468  15.330  27.048 -0.2388 -0.1777  0.0537
  676BOLB   NC216213  12.371  15.321  28.863 -0.0050 -0.0939  0.2036
  676BOLB   PO216214  12.489  15.646  29.080 -0.0903 -0.1134 -0.1345
  676BOLB   GL316215  12.650  15.708  28.618 -0.2773 -0.1993 -0.0055
  676BOLB   GL416216  12.933  15.600  28.614 -0.1296  0.3062 -0.2731
  676BOLB   C1C16217  12.827  16.145  28.363 -0.1550  0.0386 -0.0437
  676BOLB   C2C16218  13.084  16.351  28.114  0.1031 -0.1806  0.0177
  676BOLB   C3C16219  13.131  16.097  27.822 -0.1257  0.0912 -0.1372
  676BOLB   C4C16220  13.248  15.936  27.412  0.3412  0.1242 -0.1151
  676BOLB   C1D16221  13.287  15.726  28.329 -0.0272 -0.0092  0.0404
  676BOLB   C2D16222  13.453  15.668  27.920  0.6240  0.2276 -0.0207
  676BOLB   C3D16223  13.573  15.519  27.584 -0.1530  0.0228 -0.0154
  676BOLB   C4D16224  13.766  15.609  27.235  0.1515  0.2436  0.3945
  677BOLB   NC116225  18.073  22.547  22.416  0.2707  0.2092  0.2978
  677BOLB   PO116226  18.350  22.278  22.673 -0.0389  0.1172  0.1104
  677BOLB   GL116227  18.391  22.485  23.042 -0.2118 -0.5256  0.2528
  677BOLB   GL216228  18.326  22.732  23.146  0.3388 -0.1968  0.2203
  677BOLB   C1A16229  18.515  22.629  23.574 -0.3497 -0.0192  0.2907
  677BOLB   C2A16230  18.471  22.885  23.895 -0.0211  0.0141  0.2718
  677BOLB   C3A16231  18.758  22.932  24.089  0.2501  0.5194 -0.0053
  677BOLB   C4A16232  19.156  23.072  24.206 -0.1555 -0.0200 -0.2842
  677BOLB   C1B16233  18.021  22.861  23.149  0.0084  0.0820  0.2049
  677BOLB   C2B16234  17.889  23.232  23.330 -0.0767  0.0009 -0.3304
  677BOLB   C3B16235  17.560  23.486  23.332 -0.3010 -0.2392  0.1011
  677BOLB   C4B16236  17.390  23.620  23.026  0.0525  0.2189 -0.1846
  677BOLB   NC216237  19.769  24.755  25.389 -0.1919  0.3671  0.0897
  677BOLB   PO216238  19.757  25.176  25.256  0.1279  0.3879  0.0887
  677BOLB   GL316239  19.652  24.941  24.884 -0.2624 -0.2747 -0.2038
  677BOLB   GL416240  20.023  24.954  24.738  0.0657  0.1336 -0.0875
  677BOLB   C1C16241  19.674  24.483  24.761 -0.0202 -0.1738 -0.0557
  677BOLB   C2C16242  19.377  24.265  24.607 -0.0401  0.1265 -0.3759
  677BOLB   C3C16243  19.340  23.829  24.462 -0.0832 -0.1161 -0.1569
  677BOLB   C4C16244  19.237  23.421  24.371  0.0052  0.0911 -0.1666
  677BOLB   C1D16245  20.055  24.827  24.362  0.0503 -0.0198 -0.0132
  677BOLB   C2D16246  20.289  24.637  24.118 -0.1557  0.1649 -0.0816
  677BOLB   C3D16247  20.536  24.306  23.908 -0.2231  0.0090  0.1596
  677BOLB   C4D16248  20.478  23.896  23.660 -0.1667 -0.0842 -0.1426
  678BOLB   NC116249  12.341  18.280  24.346 -0.1355  0.0190  0.1220
  678BOLB   PO116250  11.978  18.529  24.302 -0.0096 -0.2000 -0.1504
  678BOLB   GL116251  12.045  18.521  24.733 -0.0419  0.0116  0.4512
  678BOLB   GL216252  12.030  18.881  24.747  0.1106  0.2530 -0.0482
  678BOLB   C1A16253  12.001  18.497  25.135 -0.1665 -0.0812  0.0739
  678BOLB   C2A16254  12.010  18.488  25.585 -0.2500  0.3449  0.1126
  678BOLB   C3A16255  12.075  18.705  26.008 -0.4778  0.0891 -0.1355
  678BOLB   C4A16256  12.066  18.677  26.419  0.2139 -0.2346  0.1464
  678BOLB   C1B16257  11.980  19.019  25.213  0.2568 -0.0048 -0.1850
  678BOLB   C2B16258  12.017  19.085  25.604  0.0276  0.2712  0.2302
  678BOLB   C3B16259  11.971  19.188  25.954 -0.1302 -0.0320  0.0663
  678BOLB   C4B16260  11.828  19.194  26.429  0.0841 -0.3977 -0.2772
  678BOLB   NC216261  12.248  19.673  28.496  0.4117 -0.1896  0.1053
  678BOLB   PO216262  11.888  19.705  28.428 -0.0486  0.0729 -0.0163
  678BOLB   GL316263  12.094  19.511  28.066  0.0228 -0.0597 -0.2181
  678BOLB   GL416264  11.815  19.368  27.829 -0.2194 -0.0774  0.1514
  678BOLB   C1C16265  12.375  19.529  27.716  0.0341 -0.0299 -0.0141
  678BOLB   C2C16266  12.334  19.166  27.405 -0.0561 -0.1142  0.1170
  678BOLB   C3C16267  12.296  18.902  27.056 -0.2150 -0.0823 -0.2319
  678BOLB   C4C16268  12.175  18.965  26.747  0.1669 -0.1037 -0.0267
  678BOLB   C1D16269  11.950  19.512  27.408  0.1325 -0.0148  0.0818
  678BOLB   C2D16270  11.795  19.833  27.135  0.0189 -0.2163 -0.1374
  678BOLB   C3D16271  11.767  20.094  26.834 -0.2766  0.3451  0.0576
  678BOLB   C4D16272  11.800  20.200  26.447  0.1743 -0.3602  0.0320
  679BOLB   NC116273  19.020  20.022  23.035 -0.1911 -0.1216 -0.0137
  679BOLB   PO116274  18.960  20.489  23.226  0.1400  0.3137  0.0360
  679BOLB   GL116275  19.263  20.676  23.554 -0.0996 -0.1227  0.0213
  679BOLB   GL216276  19.509  20.624  23.567  0.3252 -0.0352 -0.0603
  679BOLB   C1A16277  19.305  20.692  24.049  0.0733 -0.1222  0.3382
  679BOLB   C2A16278  19.358  20.900  24.389  0.0422 -0.3715 -0.0333
  679BOLB   C3A16279  19.367  21.068  24.853  0.1219 -0.0078  0.0628
  679BOLB   C4A16280  19.419  20.894  25.227  0.1416 -0.2733  0.1596
  679BOLB   C1B16281  19.645  21.002  23.832  0.0531 -0.1113 -0.1906
  679BOLB   C2B16282  19.711  21.247  24.154  0.0321 -0.0602 -0.1972
  679BOLB   C3B16283  19.736  21.402  24.526 -0.2159  0.2631 -0.1056
  679BOLB   C4B16284  19.600  21.520  24.814  0.1078  0.1546 -0.0325
  679BOLB   NC216285  19.926  20.780  27.565 -0.2470 -0.2830 -0.1080
  679BOLB   PO216286  19.876  21.197  27.377 -0.1338  0.3849 -0.4481
  679BOLB   GL316287  20.119  21.258  27.035  0.0927  0.2062  0.2978
  679BOLB   GL416288  19.940  21.405  26.897  0.1700 -0.1512 -0.1911
  679BOLB   C1C16289  20.292  20.943  26.718 -0.2399  0.0101 -0.1987
  679BOLB   C2C16290  20.291  20.868  26.291  0.2443  0.1509  0.2124
  679BOLB   C3C16291  19.920  21.044  26.035 -0.0130 -0.0263  0.1337
  679BOLB   C4C16292  19.661  20.994  25.685  0.3074  0.1346 -0.1121
  679BOLB   C1D16293  19.850  21.142  26.588 -0.0458 -0.1477  0.0265
  679BOLB   C2D16294  19.835  20.707  26.380 -0.1730  0.0751 -0.4221
  679BOLB   C3D16295  20.071  20.520  26.038 -0.0414 -0.1827 -0.0535
  679BOLB   C4D16296  20.061  20.566  25.499 -0.1119  0.1313  0.0910
  680BOLB   NC116297  15.710  22.754  22.890  0.6295  0.2021 -0.1686
  680BOLB   PO116298  16.145  22.695  22.691 -0.2228  0.4679 -0.0228
  680BOLB   GL116299  16.171  23.068  22.935  0.0374  0.2080  0.1421
  680BOLB   GL216300  15.878  23.163  23.150 -0.0253  0.1494 -0.1379
  680BOLB   C1A16301  16.413  23.522  23.017  0.0242  0.1192 -0.0393
  680BOLB   C2A16302  16.641  23.543  23.315 -0.0461 -0.2027  0.5742
  680BOLB   C3A16303  16.620  23.479  23.782  0.0553 -0.0016 -0.0714
  680BOLB   C4A16304  16.714  23.750  24.176 -0.0174  0.3570  0.2082
  680BOLB   C1B16305  15.523  23.439  23.234 -0.3354 -0.2369  0.0678
  680BOLB   C2B16306  15.411  23.753  23.485  0.3042 -0.1606 -0.0848
  680BOLB   C3B16307  15.325  24.108  23.861 -0.1685 -0.1285  0.1112
  680BOLB   C4B16308  15.575  24.160  24.349 -0.0361  0.0335 -0.0494
  680BOLB   NC216309  17.728  25.589  25.049  0.0123  0.1491  0.3528
  680BOLB   PO216310  17.334  25.631  24.897 -0.1773  0.1108 -0.0141
  680BOLB   GL316311  17.615  25.320  24.600 -0.1053  0.1492 -0.0825
  680BOLB   GL416312  17.335  25.211  24.596  0.0512 -0.3958 -0.0695
  680BOLB   C1C16313  17.688  24.906  24.429 -0.0861  0.1452 -0.0315
  680BOLB   C2C16314  17.399  24.558  24.342 -0.2160  0.0308  0.0793
  680BOLB   C3C16315  17.312  24.184  24.081 -0.3147  0.3886 -0.0614
  680BOLB   C4C16316  17.106  23.883  24.333 -0.0787 -0.2253 -0.1415
  680BOLB   C1D16317  17.185  25.106  24.260  0.4922 -0.0163  0.2271
  680BOLB   C2D16318  17.064  24.668  24.030 -0.0865 -0.1537 -0.3232
  680BOLB   C3D16319  16.625  24.473  23.866  0.1621 -0.1072  0.2015
  680BOLB   C4D16320  16.253  24.407  24.109  0.3448 -0.1221 -0.1167
  681BOLB   NC116321  10.525  18.211  23.001  0.2274  0.0222 -0.1751
  681BOLB   PO116322  10.407  18.293  23.450  0.1778  0.2858  0.2609
  681BOLB   GL116323  10.307  18.367  23.916 -0.2678 -0.0125 -0.0889
  681BOLB   GL216324  10.059  18.165  24.030 -0.2431 -0.0085 -0.0668
  681BOLB   C1A16325  10.288  18.613  24.355 -0.4810  0.0359  0.0056
  681BOLB   C2A16326  10.165  18.477  24.641  0.0371 -0.0375  0.0386
  681BOLB   C3A16327   9.935  18.469  25.070  0.0419  0.0491  0.0423
  681BOLB   C4A16328   9.822  18.256  25.448 -0.3336  0.2238 -0.0871
  681BOLB   C1B16329   9.988  17.716  24.286 -0.0767  0.2268  0.1392
  681BOLB   C2B16330   9.890  17.510  24.650  0.1121 -0.1534 -0.1684
  681BOLB   C3B16331   9.730  17.449  25.109 -0.1432 -0.0753 -0.0476
  681BOLB   C4B16332   9.655  17.465  25.438  0.2034  0.1636 -0.1945
  681BOLB   NC216333  10.182  17.946  28.064 -0.1340 -0.2313 -0.0193
  681BOLB   PO216334   9.928  18.022  27.761 -0.2118 -0.1678  0.4096
  681BOLB   GL316335   9.982  18.278  27.489 -0.2885  0.0523  0.3257
  681BOLB   GL416336  10.279  18.059  27.363 -0.0067 -0.2040  0.1315
  681BOLB   C1C16337   9.859  18.437  27.116  0.1437 -0.2103  0.0292
  681BOLB   C2C16338   9.802  18.336  26.748  0.0333  0.2094 -0.2273
  681BOLB   C3C16339   9.743  18.072  26.288  0.0631 -0.0638 -0.2203
  681BOLB   C4C16340   9.798  18.210  25.890 -0.1509  0.0595  0.2121
  681BOLB   C1D16341  10.116  18.032  26.975 -0.1501 -0.0552 -0.0067
  681BOLB   C2D16342   9.870  17.694  26.692  0.2062 -0.2395  0.0268
  681BOLB   C3D16343   9.907  17.442  26.448  0.0886 -0.1844 -0.2648
  681BOLB   C4D16344  10.290  17.069  26.414  0.1377  0.0940  0.1065
  682BOLB   NC116345  19.914  11.778  22.469 -0.1949  0.1025  0.0793
  682BOLB   PO116346  20.383  11.962  22.626 -0.0927 -0.1296  0.5903
  682BOLB   GL116347  20.298  11.793  23.027 -0.2519  0.1603 -0.1550
  682BOLB   GL216348  20.031  11.727  22.934  0.2094  0.3536 -0.1193
  682BOLB   C1A16349  20.297  11.665  23.509 -0.0489  0.0910 -0.3378
  682BOLB   C2A16350  20.188  11.399  23.844  0.2347  0.1265  0.0533
  682BOLB   C3A16351  20.144  11.317  24.330  0.2003 -0.0267 -0.4610
  682BOLB   C4A16352  20.162  11.074  24.666  0.1721  0.0155 -0.0163
  682BOLB   C1B16353  19.861  11.644  23.263 -0.0828 -0.1186  0.2815
  682BOLB   C2B16354  19.714  11.507  23.628 -0.0710  0.1722  0.2169
  682BOLB   C3B16355  19.710  11.274  24.016  0.0176  0.1255  0.2156
  682BOLB   C4B16356  19.669  11.083  24.396  0.1018  0.0096 -0.3987
  682BOLB   NC216357  20.770  11.531  27.248 -0.2579  0.1666 -0.0458
  682BOLB   PO216358  20.625  11.875  27.040 -0.2393  0.0238 -0.1525
  682BOLB   GL316359  20.639  11.882  26.626 -0.0086 -0.6932 -0.2162
  682BOLB   GL416360  20.695  12.274  26.470  0.2196  0.0159 -0.0584
  682BOLB   C1C16361  20.442  11.830  26.254  0.1474  0.0552 -0.0235
  682BOLB   C2C16362  20.423  11.512  25.968  0.0738 -0.1730  0.1600
  682BOLB   C3C16363  20.516  11.255  25.567  0.0337  0.1467  0.0321
  682BOLB   C4C16364  20.319  11.231  25.148  0.2733  0.5354  0.2958
  682BOLB   C1D16365  20.637  12.626  26.272 -0.1066  0.1584  0.3244
  682BOLB   C2D16366  20.544  13.079  26.169  0.0950 -0.3048 -0.4306
  682BOLB   C3D16367  20.360  13.400  26.003  0.1498  0.2484  0.0355
  682BOLB   C4D16368  20.120  13.803  26.046 -0.3249 -0.4762  0.1963
  683BOLB   NC116369  15.843   9.666  21.634 -0.1312 -0.1306 -0.0586
  683BOLB   PO116370  16.100   9.405  21.775  0.2642  0.0032 -0.2822
  683BOLB   GL116371  15.987   9.096  22.187 -0.0162 -0.3979 -0.2390
  683BOLB   GL216372  15.632   8.989  22.405  0.0701  0.0765 -0.1884
  683BOLB   C1A16373  16.080   8.805  22.580 -0.1670 -0.3378  0.1316
  683BOLB   C2A16374  16.125   8.484  22.927  0.0093 -0.0273  0.2791
  683BOLB   C3A16375  16.508   8.277  23.150  0.0585  0.0503 -0.4178
  683BOLB   C4A16376  16.541   7.903  23.185  0.0027  0.1178 -0.2036
  683BOLB   C1B16377  15.538   9.140  22.736  0.1151  0.4142 -0.1016
  683BOLB   C2B16378  15.355   9.080  22.970 -0.1297 -0.0250  0.0001
  683BOLB   C3B16379  15.373   8.913  23.381 -0.1859  0.1478  0.0619
  683BOLB   C4B16380  15.571   8.785  23.667 -0.0593 -0.0406  0.2354
  683BOLB   NC216381  17.218   6.667  24.822 -0.0210  0.1473  0.3278
  683BOLB   PO216382  17.371   6.323  24.500 -0.1695 -0.1111 -0.4077
  683BOLB   GL316383  17.430   6.430  24.091 -0.0632  0.2184 -0.2199
  683BOLB   GL416384  17.191   6.278  23.855  0.0426  0.1992 -0.2034
  683BOLB   C1C16385  17.216   6.800  24.007 -0.0589  0.0004  0.4337
  683BOLB   C2C16386  16.997   6.972  23.681  0.2133 -0.0511  0.0006
  683BOLB   C3C16387  16.813   7.287  23.451 -0.0434  0.1339  0.0756
  683BOLB   C4C16388  16.703   7.597  23.249  0.1326 -0.0517  0.0400
  683BOLB   C1D16389  16.942   6.501  23.633  0.1087 -0.2299 -0.0589
  683BOLB   C2D16390  16.591   6.660  23.504  0.2415 -0.1288  0.2451
  683BOLB   C3D16391  16.409   7.012  23.573  0.2847  0.1450 -0.2985
  683BOLB   C4D16392  16.428   7.403  23.698  0.1265 -0.1998  0.2804
  684BOLB   NC116393  21.994  10.924  20.212  0.1079 -0.4290  0.0418
  684BOLB   PO116394  22.271  11.087  19.869 -0.0722  0.1336  0.0463
  684BOLB   GL116395  22.266  10.655  19.862 -0.0677 -0.1398  0.0541
  684BOLB   GL216396  22.442  10.678  20.133  0.1523  0.0679  0.0278
  684BOLB   C1A16397  22.189  10.297  19.659 -0.1301 -0.1947 -0.2857
  684BOLB   C2A16398  22.188   9.974  19.429 -0.2480 -0.0994  0.0952
  684BOLB   C3A16399  22.386   9.572  19.209 -0.1301 -0.0393  0.1981
  684BOLB   C4A16400  22.372   9.159  19.302  0.4525 -0.1228 -0.0292
  684BOLB   C1B16401  22.781  10.531  20.175 -0.0808  0.0194 -0.0986
  684BOLB   C2B16402  22.980  10.161  20.170  0.1735  0.2135  0.0745
  684BOLB   C3B16403  23.144   9.837  20.249  0.2487  0.0334  0.0596
  684BOLB   C4B16404  23.593   9.903  20.635 -0.0117  0.0548 -0.0296
  684BOLB   NC216405  23.145   6.790  19.423  0.0009  0.2162 -0.1770
  684BOLB   PO216406  23.472   6.800  19.663  0.0230  0.0276  0.5255
  684BOLB   GL316407  23.385   7.159  19.713 -0.0848 -0.1789 -0.0337
  684BOLB   GL416408  23.489   7.374  19.965 -0.1898  0.1700  0.3783
  684BOLB   C1C16409  23.179   7.519  19.476  0.1223 -0.4337  0.3855
  684BOLB   C2C16410  22.844   7.877  19.415 -0.1286 -0.4356  0.2277
  684BOLB   C3C16411  22.549   8.271  19.456  0.1629 -0.0215 -0.1903
  684BOLB   C4C16412  22.418   8.723  19.313 -0.1857  0.0326  0.2037
  684BOLB   C1D16413  23.284   7.828  19.852 -0.0129  0.0763  0.2036
  684BOLB   C2D16414  22.977   8.182  19.773 -0.1893  0.0426 -0.2280
  684BOLB   C3D16415  22.831   8.604  19.717 -0.0235  0.0447  0.2193
  684BOLB   C4D16416  22.726   8.949  19.810  0.1986 -0.1676 -0.0310
  685BOLB   NC116417  15.481  10.365  22.340  0.1364 -0.3913  0.1582
  685BOLB   PO116418  15.496   9.978  22.734 -0.2123  0.3223 -0.0668
  685BOLB   GL116419  15.660   9.650  22.958  0.1000 -0.0634  0.2419
  685BOLB   GL216420  15.538   9.872  23.246  0.1278 -0.0326  0.0206
  685BOLB   C1A16421  15.713   9.391  23.288  0.0394  0.0360 -0.2726
  685BOLB   C2A16422  15.872   9.153  23.588 -0.4976 -0.1320  0.0288
  685BOLB   C3A16423  16.057   8.768  23.877 -0.1027 -0.1986 -0.0844
  685BOLB   C4A16424  15.745   8.409  23.890  0.0077  0.1995 -0.1353
  685BOLB   C1B16425  15.362   9.743  23.661 -0.1837  0.1384 -0.4467
  685BOLB   C2B16426  15.384   9.704  24.193  0.0809 -0.3184 -0.3717
  685BOLB   C3B16427  15.497   9.855  24.609 -0.1342  0.0838 -0.1725
  685BOLB   C4B16428  15.793   9.783  24.827  0.3130 -0.1426 -0.0804
  685BOLB   NC216429  16.508   5.759  24.915  0.2778 -0.0454 -0.0596
  685BOLB   PO216430  16.340   6.151  24.760  0.2055 -0.1094 -0.0622
  685BOLB   GL316431  16.333   6.343  24.404 -0.0740  0.2212 -0.0318
  685BOLB   GL416432  16.476   6.393  24.058 -0.1174 -0.1785 -0.0212
  685BOLB   C1C16433  16.210   6.747  24.338  0.1810  0.1930 -0.0268
  685BOLB   C2C16434  16.089   7.157  24.127  0.3229 -0.4543 -0.2838
  685BOLB   C3C16435  15.958   7.563  23.947  0.0259  0.0087 -0.0316
  685BOLB   C4C16436  15.694   7.909  23.760 -0.1836  0.2718  0.0145
  685BOLB   C1D16437  16.649   6.716  23.998  0.1500  0.0616  0.0547
  685BOLB   C2D16438  16.630   7.164  24.152 -0.4391  0.0423  0.0264
  685BOLB   C3D16439  16.360   7.560  24.200  0.2574 -0.0091  0.5435
  685BOLB   C4D16440  16.511   7.999  24.347  0.0107  0.2520 -0.0016
  686BOLB   NC116441  19.611  20.025  22.584  0.2362 -0.0834 -0.1370
  686BOLB   PO116442  19.821  20.068  22.972 -0.2345  0.0982  0.0966
  686BOLB   GL116443  19.930  20.314  23.447  0.1207 -0.1865  0.1557
  686BOLB   GL216444  20.266  20.225  23.433 -0.2600  0.1940 -0.4235
  686BOLB   C1A16445  19.869  20.436  23.946 -0.0346  0.1207  0.2641
  686BOLB   C2A16446  19.931  20.682  24.289 -0.0932 -0.1558  0.0377
  686BOLB   C3A16447  20.196  20.781  24.580 -0.1703  0.0618  0.1038
  686BOLB   C4A16448  20.412  20.846  24.918  0.1146 -0.0356 -0.1012
  686BOLB   C1B16449  20.466  20.413  23.733 -0.0118  0.3830 -0.2105
  686BOLB   C2B16450  20.518  20.559  24.076 -0.3235  0.0145 -0.1583
  686BOLB   C3B16451  20.626  20.578  24.518  0.1253 -0.1506  0.1409
  686BOLB   C4B16452  20.584  20.315  24.827  0.1266 -0.0746 -0.0388
  686BOLB   NC216453  20.070  21.659  27.389 -0.1727 -0.1042  0.2243
  686BOLB   PO216454  20.437  21.958  27.123  0.2623 -0.1032 -0.1599
  686BOLB   GL316455  20.339  21.674  26.749 -0.0249 -0.1536 -0.0106
  686BOLB   GL416456  20.665  21.464  26.703  0.2386 -0.2038  0.2692
  686BOLB   C1C16457  20.411  21.416  26.286 -0.3746 -0.0789 -0.2924
  686BOLB   C2C16458  20.642  21.299  25.937  0.0562 -0.0754  0.0483
  686BOLB   C3C16459  20.760  21.129  25.537  0.0922  0.3579 -0.0035
  686BOLB   C4C16460  20.579  21.125  25.156  0.2323  0.2758 -0.0040
  686BOLB   C1D16461  20.868  21.086  26.698  0.3723  0.1560  0.2785
  686BOLB   C2D16462  20.751  20.789  26.342  0.1211 -0.0402 -0.2334
  686BOLB   C3D16463  20.595  20.760  25.938  0.0646  0.0517 -0.1838
  686BOLB   C4D16464  20.272  21.069  25.670 -0.0458  0.3533 -0.0329
  687BOLB   NC116465  16.101  15.482  24.734 -0.1939 -0.1718 -0.1362
  687BOLB   PO116466  16.141  15.464  25.186 -0.0687 -0.2582 -0.4736
  687BOLB   GL116467  16.150  15.229  25.421 -0.0334 -0.3405  0.0170
  687BOLB   GL216468  16.284  14.976  25.336 -0.0561 -0.1205  0.0250
  687BOLB   C1A16469  15.909  15.223  25.742 -0.1331 -0.2305 -0.0543
  687BOLB   C2A16470  15.768  15.095  26.213 -0.0459 -0.0927  0.0999
  687BOLB   C3A16471  15.813  15.048  26.639 -0.0553  0.3814 -0.3789
  687BOLB   C4A16472  15.999  14.765  26.928 -0.0683 -0.0165 -0.0900
  687BOLB   C1B16473  16.593  14.917  25.628  0.1844  0.3088 -0.1886
  687BOLB   C2B16474  16.928  14.608  25.968  0.1088  0.0133  0.2444
  687BOLB   C3B16475  17.136  14.534  26.397  0.2527 -0.4107 -0.1384
  687BOLB   C4B16476  16.853  14.628  26.804  0.1190  0.1976 -0.0539
  687BOLB   NC216477  15.767  15.522  29.255 -0.0104 -0.1928  0.2774
  687BOLB   PO216478  15.340  15.480  29.129  0.0311  0.0091 -0.0896
  687BOLB   GL316479  15.632  15.429  28.699 -0.0786  0.1244 -0.0705
  687BOLB   GL416480  15.613  15.728  28.424 -0.2532 -0.1562 -0.0423
  687BOLB   C1C16481  15.867  15.185  28.467 -0.3285 -0.0558 -0.2573
  687BOLB   C2C16482  16.005  14.866  28.294  0.0791 -0.0695 -0.3333
  687BOLB   C3C16483  15.880  14.804  27.831 -0.2750 -0.1633  0.0905
  687BOLB   C4C16484  15.951  14.704  27.336 -0.0139  0.2486 -0.2253
  687BOLB   C1D16485  15.193  15.890  28.380 -0.1242 -0.0200  0.0766
  687BOLB   C2D16486  14.991  15.892  28.139 -0.2443  0.2378 -0.1721
  687BOLB   C3D16487  14.653  15.948  27.941  0.1756 -0.1816  0.1214
  687BOLB   C4D16488  14.208  16.263  27.990 -0.0697 -0.0128  0.0903
  688BOLB   NC116489  18.107  23.987  20.363  0.2324  0.0230 -0.0958
  688BOLB   PO116490  18.575  23.926  20.635 -0.1205 -0.0837 -0.3630
  688BOLB   GL116491  18.720  24.320  20.829 -0.1443  0.0115 -0.0151
  688BOLB   GL216492  18.466  24.432  20.798  0.3582 -0.3233  0.4831
  688BOLB   C1A16493  18.757  24.535  21.256  0.0489 -0.1632  0.3860
  688BOLB   C2A16494  18.701  24.842  21.550 -0.1602 -0.0437  0.3643
  688BOLB   C3A16495  18.717  25.078  21.895 -0.0606 -0.0172  0.1574
  688BOLB   C4A16496  18.718  25.323  22.239 -0.2235  0.0238  0.3246
  688BOLB   C1B16497  18.420  24.975  21.049 -0.2177  0.3108  0.3287
  688BOLB   C2B16498  18.406  25.236  21.398 -0.0826 -0.0064 -0.0663
  688BOLB   C3B16499  18.316  25.522  21.707  0.0729  0.0315  0.1041
  688BOLB   C4B16500  18.180  25.518  22.070  0.1533 -0.1319 -0.0460
  688BOLB   NC216501  18.444  27.751  22.667 -0.1048 -0.1439 -0.3527
  688BOLB   PO216502  18.383  27.514  23.050 -0.0046 -0.1412  0.2088
  688BOLB   GL316503  18.572  27.164  22.857  0.0778  0.2622  0.1222
  688BOLB   GL416504  18.476  27.282  22.553 -0.1165  0.1503 -0.3710
  688BOLB   C1C16505  18.843  26.849  22.965  0.1208  0.0132 -0.0232
  688BOLB   C2C16506  18.788  26.399  23.002 -0.0015 -0.3300 -0.0786
  688BOLB   C3C16507  18.946  25.962  22.817 -0.2707 -0.0564 -0.2805
  688BOLB   C4C16508  19.006  25.701  22.454  0.0815  0.1646 -0.1643
  688BOLB   C1D16509  18.728  26.894  22.484  0.1972 -0.3898 -0.2963
  688BOLB   C2D16510  18.806  26.528  22.428  0.2043  0.0551  0.3444
  688BOLB   C3D16511  18.691  26.128  22.298 -0.0941  0.0103  0.1634
  688BOLB   C4D16512  18.563  25.838  22.013  0.3877 -0.1630  0.0255
  689BOLB   NC116513  17.495  12.390  23.020 -0.1928 -0.1783 -0.1764
  689BOLB   PO116514  17.925  12.327  23.211 -0.0267  0.2461 -0.0715
  689BOLB   GL116515  18.018  11.970  23.401 -0.1009 -0.0185 -0.2019
  689BOLB   GL216516  18.347  11.907  23.432 -0.0627  0.3027 -0.2366
  689BOLB   C1A16517  17.985  11.749  23.824 -0.0345  0.1669  0.0792
  689BOLB   C2A16518  18.122  11.387  23.925 -0.3049 -0.0296  0.1614
  689BOLB   C3A16519  18.315  11.243  24.296 -0.0506 -0.3518 -0.0042
  689BOLB   C4A16520  18.567  10.962  24.666 -0.2439  0.0705 -0.0042
  689BOLB   C1B16521  18.142  11.445  23.402  0.3155  0.3791 -0.1231
  689BOLB   C2B16522  18.140  11.054  23.535 -0.0777  0.1229  0.2595
  689BOLB   C3B16523  18.215  10.650  23.722  0.0531  0.2298 -0.1432
  689BOLB   C4B16524  18.389  10.325  23.808  0.2185 -0.3586 -0.1664
  689BOLB   NC216525  18.080  10.062  27.016 -0.0567 -0.3810 -0.0135
  689BOLB   PO216526  18.105  10.229  26.605  0.3646  0.3533 -0.0461
  689BOLB   GL316527  18.351  10.164  26.292  0.2023 -0.1660  0.1720
  689BOLB   GL416528  18.360   9.989  26.033 -0.2346  0.3137 -0.0065
  689BOLB   C1C16529  18.672  10.438  26.202  0.0226  0.2032  0.3502
  689BOLB   C2C16530  18.778  10.736  25.801  0.0002  0.1509  0.1297
  689BOLB   C3C16531  18.578  10.844  25.446  0.2343  0.0878  0.0256
  689BOLB   C4C16532  18.394  11.001  25.096  0.1509  0.1705 -0.0708
  689BOLB   C1D16533  18.044  10.010  25.735  0.2169  0.0178  0.2391
  689BOLB   C2D16534  17.693  10.038  25.698 -0.3429  0.1522  0.1705
  689BOLB   C3D16535  17.576  10.143  25.335 -0.0353  0.1343  0.3115
  689BOLB   C4D16536  17.475  10.144  24.954 -0.0223  0.0019  0.3750
  690BOLB   NC116537  14.434  14.192  24.762  0.2486 -0.1496 -0.0416
  690BOLB   PO116538  14.008  13.891  24.887 -0.2135 -0.0013 -0.3389
  690BOLB   GL116539  13.939  13.898  25.200  0.1335 -0.3282 -0.0921
  690BOLB   GL216540  13.760  13.651  25.291 -0.0379 -0.1726  0.2741
  690BOLB   C1A16541  13.834  14.196  25.488 -0.0883  0.5102  0.1314
  690BOLB   C2A16542  13.949  14.436  25.868 -0.3565 -0.1234  0.1366
  690BOLB   C3A16543  14.020  14.589  26.284  0.4305  0.0723  0.2039
  690BOLB   C4A16544  14.291  14.587  26.595  0.0685  0.0911 -0.0103
  690BOLB   C1B16545  13.703  13.754  25.739  0.0114 -0.0767  0.0617
  690BOLB   C2B16546  13.566  13.698  26.139 -0.1016 -0.0952  0.4731
  690BOLB   C3B16547  13.198  13.824  26.470  0.1439 -0.4167 -0.2255
  690BOLB   C4B16548  13.250  14.173  26.787  0.3627  0.0163  0.3168
  690BOLB   NC216549  14.303  13.991  28.511 -0.0200 -0.1337 -0.2562
  690BOLB   PO216550  13.857  13.780  28.537 -0.2008 -0.0927  0.2354
  690BOLB   GL316551  13.541  13.820  28.222  0.2395  0.1778  0.1808
  690BOLB   GL416552  13.220  13.996  28.249  0.0298  0.2078  0.2589
  690BOLB   C1C16553  13.466  14.032  27.768  0.2055  0.0608 -0.2012
  690BOLB   C2C16554  13.637  14.218  27.413 -0.3471  0.0641 -0.0878
  690BOLB   C3C16555  13.892  14.381  27.174  0.0714  0.2028  0.1993
  690BOLB   C4C16556  14.161  14.325  26.885 -0.2022 -0.1677 -0.3116
  690BOLB   C1D16557  13.064  14.348  28.031  0.1206  0.0097  0.3514
  690BOLB   C2D16558  13.082  14.532  27.574 -0.0935  0.0252 -0.1567
  690BOLB   C3D16559  13.046  14.883  27.301  0.2693  0.2624 -0.3249
  690BOLB   C4D16560  13.225  15.285  27.297  0.1534  0.1129 -0.0699
  691BOLB   NC116561  20.773  10.300  20.875  0.2212 -0.0158  0.1387
  691BOLB   PO116562  21.009  10.331  20.610 -0.1829  0.1095  0.1199
  691BOLB   GL116563  21.205  10.082  20.937  0.0100 -0.1819 -0.0247
  691BOLB   GL216564  21.265   9.806  20.847  0.2787 -0.0084  0.0057
  691BOLB   C1A16565  21.374  10.099  21.234 -0.1744  0.1212 -0.1965
  691BOLB   C2A16566  21.442   9.857  21.634  0.0227  0.1670  0.0544
  691BOLB   C3A16567  21.523   9.408  21.754 -0.0406 -0.0711  0.1096
  691BOLB   C4A16568  21.906   9.295  21.964 -0.0975  0.1959 -0.1957
  691BOLB   C1B16569  21.507   9.585  21.160  0.1070  0.3177 -0.0306
  691BOLB   C2B16570  21.809   9.300  21.009  0.2077  0.3613  0.1577
  691BOLB   C3B16571  21.978   8.960  20.967 -0.0597 -0.0939 -0.0105
  691BOLB   C4B16572  22.172   8.630  21.040  0.1591  0.0462 -0.5823
  691BOLB   NC216573  22.950   8.265  23.576 -0.1690 -0.0494  0.1539
  691BOLB   PO216574  23.434   8.312  23.700 -0.1191 -0.1349 -0.1354
  691BOLB   GL316575  23.220   8.721  23.516  0.1177  0.1102 -0.2894
  691BOLB   GL416576  23.231   8.595  23.197  0.0846  0.1712  0.1129
  691BOLB   C1C16577  22.852   8.989  23.362 -0.1667  0.2189  0.0378
  691BOLB   C2C16578  22.419   9.055  23.098 -0.1642 -0.1596 -0.2674
  691BOLB   C3C16579  22.246   9.062  22.705  0.1332 -0.1487 -0.1804
  691BOLB   C4C16580  21.920   9.102  22.358 -0.4265  0.1669  0.0361
  691BOLB   C1D16581  22.988   8.792  22.896  0.2120 -0.2373 -0.0112
  691BOLB   C2D16582  22.773   9.160  22.760 -0.0902  0.1348 -0.0599
  691BOLB   C3D16583  22.510   9.453  22.664 -0.2848 -0.1861  0.5346
  691BOLB   C4D16584  22.215   9.495  22.356  0.3685 -0.0685 -0.0299
  692BOLB   NC116585  13.969  15.805  24.627  0.0574  0.0217 -0.3419
  692BOLB   PO116586  13.619  16.019  24.686 -0.2293 -0.0069  0.1236
  692BOLB   GL116587  13.404  16.154  25.130  0.0583  0.0942  0.3531
  692BOLB   GL216588  13.678  15.984  25.263  0.1324 -0.0968  0.3624
  692BOLB   C1A16589  13.305  16.320  25.562  0.3283 -0.0004 -0.1439
  692BOLB   C2A16590  13.151  16.481  25.972 -0.0662  0.1272  0.0453
  692BOLB   C3A16591  13.237  16.653  26.319 -0.3715  0.2360  0.3852
  692BOLB   C4A16592  13.217  16.791  26.614  0.0462 -0.1526 -0.1026
  692BOLB   C1B16593  13.649  15.922  25.734  0.0206 -0.0361 -0.0189
  692BOLB   C2B16594  13.542  16.210  26.121 -0.0938  0.0394  0.1040
  692BOLB   C3B16595  13.390  16.086  26.532 -0.1968 -0.0485 -0.3271
  692BOLB   C4B16596  13.040  15.965  26.721 -0.0747 -0.2601  0.2178
  692BOLB   NC216597  14.125  17.179  29.040 -0.2065 -0.1626 -0.0766
  692BOLB   PO216598  13.829  16.817  29.025  0.0085  0.2569 -0.4139
  692BOLB   GL316599  13.778  16.698  28.605  0.1336 -0.0404 -0.4773
  692BOLB   GL416600  13.958  16.885  28.490  0.2501  0.1900 -0.3974
  692BOLB   C1C16601  13.446  16.806  28.208 -0.0471  0.1725  0.0301
  692BOLB   C2C16602  13.350  16.663  27.824  0.0178  0.0653  0.4942
  692BOLB   C3C16603  13.087  16.758  27.375  0.4186  0.3834 -0.1985
  692BOLB   C4C16604  12.951  16.833  26.986  0.2856  0.0202 -0.1029
  692BOLB   C1D16605  13.660  17.267  28.479  0.1207 -0.2899 -0.0964
  692BOLB   C2D16606  13.634  17.654  28.263 -0.4801 -0.0561  0.1862
  692BOLB   C3D16607  13.381  17.838  27.939  0.1247 -0.4437  0.0886
  692BOLB   C4D16608  13.468  18.104  27.600  0.1907 -0.2847 -0.1581
  693BOLB   NC116609  14.701  12.991  24.258  0.1363  0.0605 -0.3249
  693BOLB   PO116610  14.266  13.014  24.261  0.0502 -0.1072  0.1489
  693BOLB   GL116611  14.215  13.200  24.697 -0.1070  0.0816  0.0894
  693BOLB   GL216612  13.989  13.028  24.956 -0.1605 -0.7055  0.0245
  693BOLB   C1A16613  14.439  13.011  25.057 -0.1324  0.0968  0.2425
  693BOLB   C2A16614  14.512  12.968  25.461 -0.2006 -0.0996  0.1701
  693BOLB   C3A16615  14.583  12.967  25.875 -0.2131 -0.1505 -0.2884
  693BOLB   C4A16616  14.667  12.953  26.297  0.0875 -0.0996 -0.2204
  693BOLB   C1B16617  14.023  12.808  25.444  0.0297  0.0300 -0.1640
  693BOLB   C2B16618  14.054  12.914  25.780 -0.0127 -0.4858  0.1546
  693BOLB   C3B16619  14.167  12.888  26.214 -0.2376 -0.2094 -0.1644
  693BOLB   C4B16620  14.015  12.880  26.588  0.2019 -0.0108 -0.0608
  693BOLB   NC216621  14.669  13.122  28.304  0.1319  0.0699 -0.0770
  693BOLB   PO216622  14.444  12.674  28.308 -0.1935  0.1125  0.3048
  693BOLB   GL316623  14.489  12.858  27.859 -0.0269 -0.2422 -0.0352
  693BOLB   GL416624  14.218  12.921  27.833 -0.1353  0.2310  0.3530
  693BOLB   C1C16625  14.640  13.146  27.662  0.1059 -0.2123  0.1361
  693BOLB   C2C16626  14.437  13.075  27.321  0.1079  0.3880  0.1719
  693BOLB   C3C16627  14.509  12.938  26.974 -0.0430 -0.0263 -0.2543
  693BOLB   C4C16628  14.515  12.907  26.588  0.4290 -0.1479  0.2775
  693BOLB   C1D16629  14.183  13.313  27.774 -0.0699  0.1238 -0.1331
  693BOLB   C2D16630  14.403  13.616  27.850 -0.2016 -0.3825  0.4179
  693BOLB   C3D16631  14.565  13.944  27.618 -0.1996 -0.1933 -0.0932
  693BOLB   C4D16632  15.019  14.036  27.398  0.0063  0.1310 -0.3369
  694BOLB   NC116633  16.979  15.496  24.985  0.3848 -0.0025 -0.0329
  694BOLB   PO116634  17.379  15.322  24.972 -0.0441 -0.1157  0.3455
  694BOLB   GL116635  17.311  15.493  25.424  0.1249  0.1871  0.2080
  694BOLB   GL216636  17.456  15.860  25.560  0.2203 -0.3224  0.0630
  694BOLB   C1A16637  17.342  15.422  25.921 -0.3559  0.0041  0.0322
  694BOLB   C2A16638  17.428  15.348  26.340 -0.0311 -0.0259 -0.0790
  694BOLB   C3A16639  17.581  15.633  26.714 -0.3418 -0.0856  0.1188
  694BOLB   C4A16640  17.597  15.933  27.055  0.1048  0.2108  0.3536
  694BOLB   C1B16641  17.363  15.929  26.025  0.4369  0.2319  0.1710
  694BOLB   C2B16642  17.200  15.926  26.516  0.1615  0.2020 -0.1864
  694BOLB   C3B16643  17.177  16.147  26.860 -0.2134 -0.1374 -0.2967
  694BOLB   C4B16644  17.125  16.026  27.202  0.0459  0.1954 -0.1288
  694BOLB   NC216645  16.639  18.065  28.771 -0.1016  0.0008 -0.2871
  694BOLB   PO216646  17.156  17.934  28.823  0.0250 -0.2342 -0.3210
  694BOLB   GL316647  17.245  17.597  28.499  0.4318  0.2002 -0.1165
  694BOLB   GL416648  17.248  17.782  28.164 -0.4000  0.1626  0.1141
  694BOLB   C1C16649  17.232  17.163  28.299 -0.0945  0.0862  0.1240
  694BOLB   C2C16650  17.280  16.793  27.961 -0.1979  0.0258  0.1661
  694BOLB   C3C16651  17.425  16.345  27.873  0.3811  0.0321 -0.1822
  694BOLB   C4C16652  17.500  16.012  27.542 -0.1843 -0.0789 -0.2430
  694BOLB   C1D16653  17.087  17.460  27.880 -0.3213  0.0136  0.0886
  694BOLB   C2D16654  17.131  17.443  27.389 -0.0011  0.5024  0.0211
  694BOLB   C3D16655  17.178  17.185  27.043  0.1820  0.0160 -0.1937
  694BOLB   C4D16656  17.369  16.810  26.843 -0.2582 -0.3171  0.4119
  695BOLB   NC116657  11.159  12.177  23.803  0.2272 -0.1475 -0.0338
  695BOLB   PO116658  11.481  12.393  24.026 -0.3918 -0.1040  0.1816
  695BOLB   GL116659  11.359  12.163  24.439  0.0056 -0.1678  0.0303
  695BOLB   GL216660  11.216  12.435  24.620  0.2522 -0.1708  0.1674
  695BOLB   C1A16661  11.555  11.856  24.588  0.0929 -0.1418  0.0679
  695BOLB   C2A16662  11.385  11.659  24.985 -0.1099 -0.0229 -0.1769
  695BOLB   C3A16663  11.194  11.406  25.231  0.2814 -0.0359  0.2140
  695BOLB   C4A16664  10.949  11.101  25.478 -0.0320  0.1013  0.0468
  695BOLB   C1B16665  11.151  12.360  25.087  0.2250 -0.2522  0.3193
  695BOLB   C2B16666  10.939  12.173  25.437  0.0070  0.2084  0.2194
  695BOLB   C3B16667  10.975  11.884  25.609 -0.0866  0.3588  0.1705
  695BOLB   C4B16668  11.090  11.436  25.801  0.0490  0.2030  0.3002
  695BOLB   NC216669   9.893  10.608  27.687 -0.0190 -0.1175  0.0117
  695BOLB   PO216670   9.736  10.262  27.400 -0.1472 -0.0144 -0.1802
  695BOLB   GL316671   9.961  10.534  27.189  0.0159  0.2339  0.0075
  695BOLB   GL416672  10.260  10.649  27.294  0.0102 -0.0898  0.1078
  695BOLB   C1C16673  10.192  10.497  26.789 -0.0569 -0.1301 -0.0799
  695BOLB   C2C16674  10.363  10.371  26.445  0.0008 -0.4849 -0.0908
  695BOLB   C3C16675  10.405  10.734  26.195 -0.0541  0.0412  0.2953
  695BOLB   C4C16676  10.625  11.091  25.894  0.1932 -0.3072 -0.2126
  695BOLB   C1D16677  10.531  10.850  27.022  0.0962  0.1837 -0.1871
  695BOLB   C2D16678  10.676  11.082  26.545 -0.2122 -0.1813  0.0318
  695BOLB   C3D16679  10.926  11.263  26.240 -0.1407 -0.1785  0.0158
  695BOLB   C4D16680  11.322  11.500  26.303 -0.0020 -0.3325  0.1644
  696BOLB   NC116681   8.874  17.700  23.330 -0.0047 -0.0316  0.3115
  696BOLB   PO116682   9.244  17.642  23.552  0.0440 -0.0078 -0.0166
  696BOLB   GL116683   9.116  17.867  23.792 -0.0331  0.1679  0.2007
  696BOLB   GL216684   8.770  17.731  23.848  0.1510 -0.0060 -0.0852
  696BOLB   C1A16685   9.202  18.005  24.145 -0.0721 -0.2068 -0.1874
  696BOLB   C2A16686   9.256  18.078  24.627 -0.2152 -0.1679 -0.2185
  696BOLB   C3A16687   9.469  17.971  24.881  0.3570 -0.2031  0.3176
  696BOLB   C4A16688   9.458  17.942  25.267 -0.0765 -0.2014 -0.1492
  696BOLB   C1B16689   8.399  17.874  24.156 -0.6210 -0.3793 -0.0585
  696BOLB   C2B16690   8.343  17.899  24.632 -0.1399  0.0221 -0.0569
  696BOLB   C3B16691   8.226  18.184  24.949 -0.1248 -0.2751 -0.1484
  696BOLB   C4B16692   8.033  18.313  25.288  0.2434  0.0391  0.2680
  696BOLB   NC216693   8.947  18.019  27.941  0.2672  0.1566 -0.1430
  696BOLB   PO216694   8.727  17.665  27.519 -0.0379  0.3388 -0.1466
  696BOLB   GL316695   9.097  17.702  27.189  0.1766  0.0862 -0.1889
  696BOLB   GL416696   9.405  17.786  27.012 -0.0498  0.1330  0.1190
  696BOLB   C1C16697   9.060  17.961  26.759 -0.2075  0.1476 -0.1043
  696BOLB   C2C16698   9.260  17.790  26.300  0.2363  0.0689  0.2324
  696BOLB   C3C16699   9.275  17.727  25.895  0.1828  0.2474 -0.1302
  696BOLB   C4C16700   9.486  17.894  25.665  0.0214  0.1636 -0.0287
  696BOLB   C1D16701   9.369  17.365  26.879  0.3166  0.0537 -0.0556
  696BOLB   C2D16702   9.315  16.972  27.000  0.2159  0.0243 -0.0118
  696BOLB   C3D16703   9.289  16.664  26.701  0.1666 -0.0689  0.0561
  696BOLB   C4D16704   9.367  16.243  26.628 -0.4354  0.1231 -0.0538
  697BOLB   NC116705  21.207  17.146  22.722 -0.1039  0.2717  0.0262
  697BOLB   PO116706  21.340  17.405  23.174  0.0355 -0.0379 -0.0048
  697BOLB   GL116707  21.461  17.456  23.582  0.2568 -0.3542  0.1003
  697BOLB   GL216708  21.343  17.654  23.715  0.2202 -0.0324  0.0772
  697BOLB   C1A16709  21.510  17.291  23.946  0.0701 -0.1971 -0.0391
  697BOLB   C2A16710  21.595  17.117  24.418  0.2646 -0.0082 -0.0642
  697BOLB   C3A16711  21.669  16.948  24.877  0.2027 -0.0833 -0.0997
  697BOLB   C4A16712  22.004  16.887  25.255 -0.0187  0.1403 -0.1470
  697BOLB   C1B16713  21.599  17.807  24.082  0.1359 -0.3047 -0.1956
  697BOLB   C2B16714  21.565  17.958  24.502 -0.1804  0.0439 -0.0397
  697BOLB   C3B16715  21.675  17.904  24.886  0.2130 -0.1037 -0.4364
  697BOLB   C4B16716  21.471  17.740  25.301  0.3341 -0.3034 -0.3161
  697BOLB   NC216717  23.284  17.088  27.718  0.1322  0.2677  0.0098
  697BOLB   PO216718  23.197  16.685  27.453 -0.1512  0.1199  0.1127
  697BOLB   GL316719  23.111  16.475  27.057  0.0104  0.3013 -0.4011
  697BOLB   GL416720  23.124  16.196  27.152  0.1535 -0.1187 -0.1902
  697BOLB   C1C16721  22.764  16.388  26.777 -0.0345 -0.2006  0.0209
  697BOLB   C2C16722  22.505  16.599  26.349  0.1409  0.0943 -0.2164
  697BOLB   C3C16723  22.373  16.877  25.925 -0.0001  0.0881  0.3372
  697BOLB   C4C16724  22.061  16.946  25.704  0.0387 -0.2314 -0.1119
  697BOLB   C1D16725  23.193  15.852  26.847  0.3020 -0.0450 -0.0030
  697BOLB   C2D16726  22.903  15.822  26.578 -0.1161  0.0997  0.3931
  697BOLB   C3D16727  22.754  16.172  26.335  0.4325  0.1687  0.2499
  697BOLB   C4D16728  22.596  16.245  25.988  0.1576  0.3962  0.4472
  698BOLB   NC116729  10.809   9.181  22.582 -0.1418 -0.1279 -0.3132
  698BOLB   PO116730  10.800   8.734  22.922  0.1141 -0.1288 -0.0677
  698BOLB   GL116731  11.085   8.525  23.218 -0.0319  0.0504 -0.2204
  698BOLB   GL216732  10.886   8.636  23.487  0.0208  0.1148 -0.4414
  698BOLB   C1A16733  11.394   8.477  23.722  0.0348  0.2122  0.4096
  698BOLB   C2A16734  11.530   8.622  24.080  0.3791  0.0535 -0.0378
  698BOLB   C3A16735  11.772   8.624  24.483  0.0617  0.1132 -0.1124
  698BOLB   C4A16736  11.930   8.855  24.846 -0.2811 -0.0531  0.2369
  698BOLB   C1B16737  10.868   8.864  23.911  0.2609 -0.0867 -0.0725
  698BOLB   C2B16738  11.143   8.937  24.189  0.2146  0.0059 -0.0334
  698BOLB   C3B16739  11.207   9.045  24.633 -0.1823 -0.1512 -0.3317
  698BOLB   C4B16740  11.450   8.861  24.953  0.0286 -0.0375  0.2076
  698BOLB   NC216741  11.969   8.854  27.294  0.1160  0.0318 -0.0374
  698BOLB   PO216742  12.380   8.448  27.294 -0.3030  0.1349  0.0857
  698BOLB   GL316743  12.363   8.501  26.849 -0.1761 -0.1297  0.2473
  698BOLB   GL416744  12.115   8.747  26.806 -0.0500 -0.1090 -0.2257
  698BOLB   C1C16745  12.410   8.680  26.373  0.1609  0.0281 -0.0265
  698BOLB   C2C16746  12.358   8.932  25.981  0.0808  0.0837  0.1969
  698BOLB   C3C16747  12.181   9.133  25.630  0.1659 -0.0451 -0.1689
  698BOLB   C4C16748  11.944   8.965  25.306 -0.1034  0.0986  0.2880
  698BOLB   C1D16749  12.034   8.980  26.473  0.0647 -0.2174  0.1603
  698BOLB   C2D16750  12.097   9.321  26.183  0.1781  0.0809 -0.4347
  698BOLB   C3D16751  11.914   9.719  25.886 -0.3609  0.2395  0.1950
  698BOLB   C4D16752  11.797   9.936  25.519 -0.1089  0.4560  0.0362
  699BOLB   NC116753  14.033  21.466  22.717  0.0318 -0.0892  0.1621
  699BOLB   PO116754  14.344  21.602  23.063 -0.2287 -0.1310  0.2124
  699BOLB   GL116755  14.416  21.754  23.480  0.1473  0.5131 -0.0041
  699BOLB   GL216756  14.622  21.983  23.495 -0.1469 -0.4694 -0.2027
  699BOLB   C1A16757  14.287  21.953  23.881 -0.1635 -0.1990 -0.2066
  699BOLB   C2A16758  14.187  22.122  24.285 -0.2540 -0.2354  0.0341
  699BOLB   C3A16759  13.992  22.399  24.606 -0.0300  0.0099  0.0391
  699BOLB   C4A16760  13.739  22.483  24.967 -0.0345 -0.2333  0.1074
  699BOLB   C1B16761  14.693  22.257  23.874  0.0361 -0.2034  0.1756
  699BOLB   C2B16762  14.537  22.474  24.200 -0.3845 -0.0251 -0.3842
  699BOLB   C3B16763  14.425  22.708  24.571 -0.0820  0.3049  0.1039
  699BOLB   C4B16764  14.267  22.548  24.984 -0.0208  0.1078  0.2442
  699BOLB   NC216765  13.056  22.437  27.018 -0.2704 -0.0681 -0.1969
  699BOLB   PO216766  13.479  22.710  26.990  0.1311  0.2970 -0.0066
  699BOLB   GL316767  13.536  22.565  26.625 -0.1682 -0.1211  0.3813
  699BOLB   GL416768  13.171  22.518  26.495 -0.2008  0.2592 -0.0996
  699BOLB   C1C16769  13.670  22.641  26.151  0.4041  0.0103  0.1509
  699BOLB   C2C16770  13.750  22.872  25.922 -0.0322  0.4044  0.1282
  699BOLB   C3C16771  13.706  22.970  25.559  0.2468 -0.1444 -0.0332
  699BOLB   C4C16772  13.542  22.744  25.249 -0.1987  0.1659 -0.1879
  699BOLB   C1D16773  13.492  22.227  26.090 -0.0541  0.1569  0.2147
  699BOLB   C2D16774  13.815  21.859  25.964 -0.4099  0.4258 -0.0339
  699BOLB   C3D16775  14.059  21.589  26.288 -0.1090  0.0481  0.3777
  699BOLB   C4D16776  14.121  21.406  26.647  0.2231 -0.1867 -0.0490
  700BOLB   NC116777  21.076  20.296  22.806  0.0434 -0.3191 -0.0713
  700BOLB   PO116778  21.074  20.704  22.674 -0.0528 -0.0364  0.0718
  700BOLB   GL116779  20.882  20.879  23.033  0.1783  0.0668 -0.3055
  700BOLB   GL216780  20.875  21.164  22.922  0.1683  0.0439 -0.1451
  700BOLB   C1A16781  20.732  20.697  23.366  0.1530  0.2191 -0.1062
  700BOLB   C2A16782  20.759  20.868  23.826  0.3716 -0.0244 -0.0669
  700BOLB   C3A16783  20.672  21.053  24.280  0.1631  0.0796 -0.0718
  700BOLB   C4A16784  20.800  21.120  24.706  0.1608 -0.1029  0.2985
  700BOLB   C1B16785  21.068  21.265  23.307  0.0252 -0.0092 -0.0526
  700BOLB   C2B16786  21.014  21.350  23.710  0.0011  0.2357 -0.0231
  700BOLB   C3B16787  20.907  21.413  24.039  0.4489 -0.2097  0.1449
  700BOLB   C4B16788  21.054  21.513  24.452  0.2230 -0.3923  0.1562
  700BOLB   NC216789  20.915  21.736  27.040 -0.0004  0.1529  0.0862
  700BOLB   PO216790  21.385  21.621  26.914  0.0533  0.0739  0.1921
  700BOLB   GL316791  21.376  21.716  26.423 -0.0824  0.0003  0.1000
  700BOLB   GL416792  21.054  21.647  26.444  0.0820 -0.2043  0.1354
  700BOLB   C1C16793  21.115  21.500  25.917  0.1745  0.2909 -0.1653
  700BOLB   C2C16794  21.140  21.454  25.614 -0.0669  0.2506 -0.2446
  700BOLB   C3C16795  21.100  21.403  25.248  0.4737 -0.1966 -0.0148
  700BOLB   C4C16796  21.029  21.308  24.955  0.0371  0.1250 -0.2030
  700BOLB   C1D16797  20.772  21.755  26.197  0.2463  0.2074  0.2840
  700BOLB   C2D16798  20.653  21.825  25.860 -0.1482 -0.3993  0.2870
  700BOLB   C3D16799  20.425  21.515  25.588  0.0739  0.1817  0.0311
  700BOLB   C4D16800  20.219  21.695  25.157  0.2861 -0.1724 -0.3685
  701BOLB   NC116801  12.020  14.877  24.556  0.2722  0.2703 -0.2894
  701BOLB   PO116802  11.519  14.994  24.448 -0.1164  0.0760  0.2656
  701BOLB   GL116803  11.545  14.821  24.849  0.3649  0.2382  0.0439
  701BOLB   GL216804  11.773  14.738  24.990 -0.0829 -0.4350  0.0531
  701BOLB   C1A16805  11.372  15.082  25.242 -0.0980  0.2490  0.0572
  701BOLB   C2A16806  11.408  15.008  25.644 -0.2741 -0.1070  0.1061
  701BOLB   C3A16807  11.593  15.032  26.012 -0.3648  0.0154  0.1312
  701BOLB   C4A16808  11.642  14.992  26.488 -0.0346  0.1582 -0.1500
  701BOLB   C1B16809  11.855  14.918  25.420 -0.1082  0.1692 -0.1380
  701BOLB   C2B16810  12.103  14.872  25.886 -0.0499 -0.0849 -0.0614
  701BOLB   C3B16811  12.592  14.783  26.155 -0.1427 -0.1179 -0.1693
  701BOLB   C4B16812  12.594  14.537  26.572  0.1412 -0.1768 -0.1229
  701BOLB   NC216813  11.963  13.664  28.506  0.1986  0.2156  0.0103
  701BOLB   PO216814  11.492  13.688  28.680 -0.1753  0.0517 -0.0485
  701BOLB   GL316815  11.366  13.925  28.211 -0.0399 -0.0366 -0.0520
  701BOLB   GL416816  11.302  13.762  27.939  0.1886  0.1102 -0.0514
  701BOLB   C1C16817  11.610  14.162  27.740 -0.1015 -0.1063  0.0870
  701BOLB   C2C16818  11.661  14.429  27.473 -0.1365 -0.2760 -0.0488
  701BOLB   C3C16819  11.510  14.562  27.183  0.1573  0.1553  0.3202
  701BOLB   C4C16820  11.383  14.874  26.860  0.1652 -0.1576 -0.0216
  701BOLB   C1D16821  11.366  13.803  27.553  0.1060 -0.0080  0.0491
  701BOLB   C2D16822  11.580  14.058  27.136  0.2110  0.1024 -0.0159
  701BOLB   C3D16823  11.934  14.125  27.114 -0.0921 -0.0360  0.1995
  701BOLB   C4D16824  12.273  13.908  26.995  0.0205 -0.4211 -0.1641
  702BOLB   NC116825  22.064  12.928  22.100 -0.3310 -0.0362 -0.1291
  702BOLB   PO116826  22.227  12.824  22.510  0.2057  0.1817  0.1173
  702BOLB   GL116827  22.363  12.756  22.887 -0.0180 -0.2602 -0.0319
  702BOLB   GL216828  22.170  12.521  22.896  0.0612 -0.0948 -0.0373
  702BOLB   C1A16829  22.531  12.350  23.192  0.3866  0.1473  0.1893
  702BOLB   C2A16830  22.318  12.344  23.490 -0.1151 -0.1376 -0.1214
  702BOLB   C3A16831  22.411  12.277  23.889  0.3397 -0.0448 -0.2336
  702BOLB   C4A16832  22.555  11.982  24.190 -0.1518  0.1710 -0.2641
  702BOLB   C1B16833  22.101  12.124  23.087  0.1540  0.2242 -0.4834
  702BOLB   C2B16834  22.127  11.846  23.401  0.0106 -0.0261  0.0389
  702BOLB   C3B16835  22.350  11.531  23.652  0.2168  0.4438  0.2711
  702BOLB   C4B16836  22.404  11.504  23.976  0.0804  0.2428 -0.0547
  702BOLB   NC216837  21.906   9.920  25.806 -0.0371 -0.1893 -0.1515
  702BOLB   PO216838  22.158  10.266  25.876 -0.1339  0.1158 -0.1935
  702BOLB   GL316839  22.227  10.525  25.561  0.0030  0.0027 -0.0934
  702BOLB   GL416840  22.066  10.707  25.522  0.3028  0.0661 -0.1752
  702BOLB   C1C16841  22.399  10.767  25.182  0.1230  0.1392 -0.0072
  702BOLB   C2C16842  22.571  11.168  24.920 -0.0562 -0.1249 -0.1203
  702BOLB   C3C16843  22.542  11.620  24.738 -0.2986 -0.0129  0.4904
  702BOLB   C4C16844  22.646  11.665  24.413  0.2657  0.1531  0.1220
  702BOLB   C1D16845  21.752  11.136  25.413  0.0842 -0.1725 -0.0541
  702BOLB   C2D16846  21.697  11.467  25.253 -0.0162 -0.2252 -0.1445
  702BOLB   C3D16847  21.454  11.799  25.029 -0.3324 -0.2527 -0.1696
  702BOLB   C4D16848  21.192  11.932  24.829 -0.0669 -0.1395 -0.2005
  703BOLB   NC116849  11.429  10.363  23.406  0.0359  0.4371  0.0554
  703BOLB   PO116850  11.722   9.996  23.255 -0.0935  0.0068 -0.0721
  703BOLB   GL116851  11.742   9.740  23.435 -0.0370  0.0955 -0.0653
  703BOLB   GL216852  12.079   9.646  23.387  0.0427  0.3181 -0.1118
  703BOLB   C1A16853  11.752   9.629  23.921  0.1528  0.0453  0.5003
  703BOLB   C2A16854  11.741   9.683  24.384  0.2249  0.3863  0.2458
  703BOLB   C3A16855  11.877   9.775  24.711  0.1943  0.1801 -0.0739
  703BOLB   C4A16856  12.156   9.656  25.138 -0.0203  0.2100 -0.0291
  703BOLB   C1B16857  12.167   9.883  23.793 -0.1005 -0.0694 -0.1930
  703BOLB   C2B16858  12.303  10.122  24.247  0.3161  0.3707 -0.3566
  703BOLB   C3B16859  12.255  10.090  24.668  0.0497 -0.0247  0.1559
  703BOLB   C4B16860  11.958  10.118  25.075  0.2075 -0.1841 -0.0592
  703BOLB   NC216861  13.402   9.290  27.690  0.1724  0.0483 -0.0478
  703BOLB   PO216862  13.016   9.515  27.796 -0.1518 -0.1371 -0.3279
  703BOLB   GL316863  12.678   9.627  27.456  0.0824 -0.2300 -0.5022
  703BOLB   GL416864  12.673   9.432  27.197  0.0659  0.0757 -0.3401
  703BOLB   C1C16865  12.484   9.796  26.919 -0.3074 -0.4249 -0.0118
  703BOLB   C2C16866  12.402   9.702  26.393  0.1445 -0.1455 -0.1746
  703BOLB   C3C16867  12.402   9.541  25.925  0.0746  0.3488  0.4027
  703BOLB   C4C16868  12.290   9.560  25.417 -0.3031 -0.0922 -0.0476
  703BOLB   C1D16869  12.821   9.459  26.839 -0.1176 -0.1327  0.0586
  703BOLB   C2D16870  12.865   9.636  26.441  0.1226  0.0598 -0.0375
  703BOLB   C3D16871  12.904   9.813  26.026  0.1462 -0.0631 -0.2399
  703BOLB   C4D16872  13.072  10.188  25.744 -0.0751  0.0851 -0.0420
  704BOLB   NC116873  16.826  10.783  22.257 -0.1098  0.4049 -0.1046
  704BOLB   PO116874  16.736  10.388  22.492  0.0144 -0.0218  0.0305
  704BOLB   GL116875  17.009  10.310  22.718  0.0233  0.1819  0.0157
  704BOLB   GL216876  16.920  10.220  22.995 -0.0716  0.5554 -0.0036
  704BOLB   C1A16877  17.354  10.032  22.909  0.0777 -0.2741  0.0462
  704BOLB   C2A16878  17.554   9.864  23.226 -0.1319 -0.0470  0.0830
  704BOLB   C3A16879  17.842   9.711  23.527 -0.0764  0.2109 -0.1270
  704BOLB   C4A16880  17.879   9.348  23.802  0.5491 -0.3117 -0.3921
  704BOLB   C1B16881  16.982   9.903  23.235 -0.1102  0.1640 -0.0250
  704BOLB   C2B16882  17.134   9.759  23.655 -0.1816 -0.0740  0.0559
  704BOLB   C3B16883  16.997   9.520  23.996  0.3101 -0.0603 -0.1707
  704BOLB   C4B16884  16.607   9.355  24.180  0.2215  0.0093 -0.2164
  704BOLB   NC216885  19.185   7.193  25.230 -0.1664 -0.2164 -0.2375
  704BOLB   PO216886  19.203   7.586  24.903  0.0939  0.0099 -0.1478
  704BOLB   GL316887  18.936   7.843  24.655  0.0502 -0.1096  0.1678
  704BOLB   GL416888  19.247   7.735  24.406 -0.3068  0.1216  0.2154
  704BOLB   C1C16889  18.837   8.120  24.399 -0.0726  0.0201  0.0685
  704BOLB   C2C16890  18.712   8.433  24.062  0.1256 -0.1672 -0.2109
  704BOLB   C3C16891  18.557   8.853  23.870 -0.0343 -0.0446  0.0069
  704BOLB   C4C16892  18.288   9.048  23.893  0.0273  0.2178  0.1318
  704BOLB   C1D16893  19.195   7.839  23.998  0.2400  0.0404  0.1711
  704BOLB   C2D16894  19.099   7.962  23.629  0.1703  0.1870 -0.1517
  704BOLB   C3D16895  18.916   8.108  23.283  0.2381 -0.3064 -0.1839
  704BOLB   C4D16896  18.844   8.366  23.038  0.1851 -0.3304 -0.2771
  705BOLB   NC116897  18.533   9.936  21.650  0.0684  0.2978 -0.2649
  705BOLB   PO116898  18.734  10.021  21.282  0.0910 -0.0742 -0.0545
  705BOLB   GL116899  18.749   9.550  21.369 -0.0979  0.1069  0.0870
  705BOLB   GL216900  18.665   9.230  21.175 -0.0485  0.0623 -0.0900
  705BOLB   C1A16901  18.905   9.163  21.738  0.1632 -0.1595  0.0864
  705BOLB   C2A16902  19.015   8.772  22.001 -0.4461 -0.0695 -0.1262
  705BOLB   C3A16903  19.461   8.634  22.081  0.1185  0.0888  0.0758
  705BOLB   C4A16904  19.908   8.502  21.965  0.1825  0.0264  0.1157
  705BOLB   C1B16905  18.879   8.974  21.245 -0.0050  0.2727  0.0249
  705BOLB   C2B16906  19.150   8.744  21.235  0.2582  0.0770  0.1680
  705BOLB   C3B16907  19.536   8.569  21.142 -0.1684  0.2122  0.2210
  705BOLB   C4B16908  19.507   8.367  20.683 -0.0477  0.1655  0.0726
  705BOLB   NC216909  20.637   7.372  23.744 -0.0789  0.1476 -0.0798
  705BOLB   PO216910  20.720   6.940  23.522  0.0793  0.1299  0.0991
  705BOLB   GL316911  20.481   7.266  23.254  0.2782 -0.0366  0.0559
  705BOLB   GL416912  20.229   7.275  23.133 -0.1958 -0.3242 -0.2759
  705BOLB   C1C16913  20.478   7.710  23.053 -0.0848  0.4416  0.1213
  705BOLB   C2C16914  20.283   7.864  22.634 -0.0672 -0.0752 -0.1762
  705BOLB   C3C16915  20.233   7.902  22.273  0.1243 -0.0333  0.0023
  705BOLB   C4C16916  20.121   8.150  21.923 -0.0839 -0.3357  0.3240
  705BOLB   C1D16917  19.972   7.462  22.789  0.0212 -0.0649 -0.0711
  705BOLB   C2D16918  19.515   7.520  22.802 -0.1041 -0.1412  0.1284
  705BOLB   C3D16919  19.369   7.937  22.778 -0.0246  0.0798 -0.2110
  705BOLB   C4D16920  19.201   7.820  22.431  0.1104 -0.0849  0.3326
  706BOLB   NC116921  19.746  16.974  24.121 -0.1611  0.1201 -0.0367
  706BOLB   PO116922  19.576  16.632  24.473 -0.0825  0.0804 -0.0731
  706BOLB   GL116923  19.330  16.672  24.882  0.0324  0.0093  0.1503
  706BOLB   GL216924  19.104  16.859  24.923  0.1276  0.1934  0.0351
  706BOLB   C1A16925  19.331  16.421  25.309 -0.1268  0.1082  0.1331
  706BOLB   C2A16926  19.642  16.207  25.621 -0.0103  0.0485  0.0707
  706BOLB   C3A16927  19.878  16.401  25.964  0.0934 -0.0433 -0.2275
  706BOLB   C4A16928  20.329  16.227  26.257  0.1136  0.2860 -0.1327
  706BOLB   C1B16929  19.078  16.924  25.369 -0.0498 -0.0511  0.0583
  706BOLB   C2B16930  19.002  17.107  25.676 -0.2378 -0.0820 -0.0767
  706BOLB   C3B16931  18.769  17.238  25.988  0.0472  0.3758 -0.1518
  706BOLB   C4B16932  18.619  17.440  26.314 -0.2278  0.1546  0.0871
  706BOLB   NC216933  19.783  15.482  28.191  0.1975 -0.0767  0.4826
  706BOLB   PO216934  20.151  15.249  28.037 -0.1395  0.2658 -0.1198
  706BOLB   GL316935  20.010  15.477  27.691  0.0351 -0.1198 -0.1132
  706BOLB   GL416936  19.890  15.811  27.607 -0.1549  0.0829  0.0183
  706BOLB   C1C16937  19.983  15.464  27.243 -0.1068  0.0179 -0.3582
  706BOLB   C2C16938  20.197  15.305  26.834  0.0977 -0.0315  0.0437
  706BOLB   C3C16939  20.345  15.411  26.466  0.3418 -0.2006 -0.0320
  706BOLB   C4C16940  20.470  15.791  26.260 -0.3064 -0.1660  0.1693
  706BOLB   C1D16941  20.238  16.028  27.447  0.0020 -0.2379  0.1969
  706BOLB   C2D16942  20.297  16.267  27.182 -0.0485  0.3584 -0.2423
  706BOLB   C3D16943  20.011  16.284  26.800  0.0162 -0.0277  0.1694
  706BOLB   C4D16944  19.872  16.712  26.647  0.3174 -0.1712  0.1089
  707BOLB   NC116945  19.356  10.657  21.653 -0.2035 -0.0444 -0.0145
  707BOLB   PO116946  19.756  10.735  21.721 -0.2515 -0.1761 -0.0852
  707BOLB   GL116947  19.612  10.536  22.134  0.1411  0.0349 -0.0027
  707BOLB   GL216948  19.967  10.466  22.113 -0.0406  0.0007  0.0041
  707BOLB   C1A16949  19.635  10.688  22.499 -0.0182  0.2480  0.1009
  707BOLB   C2A16950  19.803  10.384  22.769  0.0508 -0.1065  0.0416
  707BOLB   C3A16951  20.094  10.162  23.030  0.0218  0.0879 -0.1414
  707BOLB   C4A16952  20.278   9.727  22.872 -0.1621  0.0095 -0.0377
  707BOLB   C1B16953  20.059  10.239  22.352 -0.3607  0.1348  0.0119
  707BOLB   C2B16954  20.020   9.887  22.429  0.2029 -0.0803  0.0454
  707BOLB   C3B16955  19.942   9.521  22.575  0.2404 -0.1489 -0.1225
  707BOLB   C4B16956  19.900   9.175  22.849 -0.0519 -0.2683 -0.0919
  707BOLB   NC216957  20.946   7.487  24.157 -0.0277  0.1211  0.1626
  707BOLB   PO216958  20.694   7.846  24.045 -0.1651 -0.4851  0.0211
  707BOLB   GL316959  20.647   7.965  23.712 -0.3010 -0.2735  0.0629
  707BOLB   GL416960  20.381   7.796  23.499  0.0898  0.0598  0.1592
  707BOLB   C1C16961  20.503   8.280  23.506  0.1885  0.0931 -0.5166
  707BOLB   C2C16962  20.548   8.682  23.379 -0.0528 -0.0426 -0.0163
  707BOLB   C3C16963  20.217   8.959  23.196 -0.0097  0.0691 -0.2257
  707BOLB   C4C16964  20.263   9.391  23.083 -0.0603  0.0188  0.2441
  707BOLB   C1D16965  20.062   8.130  23.336 -0.1355  0.0622 -0.0898
  707BOLB   C2D16966  20.058   8.546  23.427  0.1749  0.0519 -0.0273
  707BOLB   C3D16967  20.064   8.789  23.660  0.0237 -0.1626 -0.2063
  707BOLB   C4D16968  19.985   9.155  24.019  0.0243 -0.0986  0.1517
  708BOLB   NC116969  14.132  13.643  24.474 -0.2266 -0.0453 -0.1177
  708BOLB   PO116970  14.552  13.793  24.481 -0.0681 -0.2589 -0.0222
  708BOLB   GL116971  14.449  13.619  24.956 -0.1723  0.1183  0.2975
  708BOLB   GL216972  14.538  13.810  25.108  0.1048  0.1508  0.1083
  708BOLB   C1A16973  14.201  13.433  25.216 -0.1677  0.2343  0.2662
  708BOLB   C2A16974  13.978  13.337  25.548 -0.2109  0.3747 -0.0467
  708BOLB   C3A16975  13.798  13.264  26.023 -0.0522 -0.1106 -0.1399
  708BOLB   C4A16976  13.627  13.118  26.413 -0.5285 -0.1895 -0.3234
  708BOLB   C1B16977  14.305  14.098  25.433 -0.0195 -0.1619  0.1225
  708BOLB   C2B16978  14.234  14.018  25.825  0.1819  0.0990  0.0826
  708BOLB   C3B16979  13.982  14.072  26.190  0.4925 -0.1297 -0.2297
  708BOLB   C4B16980  13.711  13.959  26.514 -0.0196  0.1615  0.0116
  708BOLB   NC216981  12.845  13.567  28.646 -0.0331  0.0391  0.1677
  708BOLB   PO216982  12.583  13.260  28.504  0.0562  0.0052  0.0881
  708BOLB   GL316983  12.450  12.984  28.057  0.2138  0.0717 -0.2615
  708BOLB   GL416984  12.702  12.647  27.983 -0.3102  0.0864  0.0360
  708BOLB   C1C16985  12.637  13.041  27.650  0.0616  0.2627  0.1525
  708BOLB   C2C16986  12.783  13.139  27.336 -0.2436  0.0396 -0.0875
  708BOLB   C3C16987  12.975  12.992  26.938 -0.2800  0.2640  0.1055
  708BOLB   C4C16988  13.328  12.976  26.762  0.3777  0.1461 -0.2048
  708BOLB   C1D16989  12.769  12.378  27.613  0.2519 -0.3523  0.0618
  708BOLB   C2D16990  13.039  12.537  27.309 -0.1217  0.0562 -0.0447
  708BOLB   C3D16991  13.274  12.508  26.965 -0.0298  0.1345 -0.1151
  708BOLB   C4D16992  13.673  12.615  26.968 -0.5683 -0.0882 -0.0217
  709BOLB   NC116993  22.521  11.141  20.326 -0.1961 -0.0170 -0.0867
  709BOLB   PO116994  22.177  11.147  20.616  0.2994  0.1928 -0.0730
  709BOLB   GL116995  22.414  10.788  20.669 -0.0104 -0.0228 -0.0748
  709BOLB   GL216996  22.285  10.558  20.872  0.0182  0.1080  0.0217
  709BOLB   C1A16997  22.603  10.308  20.604  0.2183  0.1059  0.0908
  709BOLB   C2A16998  22.569   9.987  20.732  0.5436  0.1439 -0.3136
  709BOLB   C3A16999  22.678   9.619  20.952  0.2311  0.3020 -0.2381
  709BOLB   C4A17000  22.760   9.173  21.109  0.0310  0.0751  0.0068
  709BOLB   C1B17001  22.296  10.187  21.164  0.0027  0.0462  0.1592
  709BOLB   C2B17002  22.442   9.894  21.348  0.0540  0.3992  0.0532
  709BOLB   C3B17003  22.672   9.539  21.459  0.4280  0.0053 -0.1445
  709BOLB   C4B17004  22.987   9.470  21.677 -0.0927  0.1305  0.2470
  709BOLB   NC217005  22.599   6.930  22.357 -0.0408  0.0249 -0.0411
  709BOLB   PO217006  22.379   7.325  22.365 -0.1491 -0.4440  0.2017
  709BOLB   GL317007  22.303   7.759  22.341  0.0206  0.3680  0.3597
  709BOLB   GL417008  22.119   7.845  22.502  0.2090  0.3052  0.0170
  709BOLB   C1C17009  22.078   7.945  22.027 -0.2433  0.0756  0.0450
  709BOLB   C2C17010  22.155   8.411  21.953 -0.1418  0.2004 -0.1693
  709BOLB   C3C17011  22.372   8.551  21.613  0.2242 -0.1195  0.0327
  709BOLB   C4C17012  22.597   8.916  21.434 -0.0820 -0.1685 -0.2764
  709BOLB   C1D17013  21.749   7.908  22.773  0.1021 -0.3715  0.0580
  709BOLB   C2D17014  21.502   8.278  22.850  0.2203 -0.2796 -0.1547
  709BOLB   C3D17015  21.267   8.757  22.707  0.0269  0.0488  0.2238
  709BOLB   C4D17016  21.201   9.255  22.744 -0.0024 -0.0508  0.0957
  710BOLB   NC117017  15.511  25.373  18.218  0.0356  0.2019 -0.2836
  710BOLB   PO117018  15.596  25.487  18.751 -0.1047 -0.0443 -0.2256
  710BOLB   GL117019  15.918  25.849  18.929 -0.2277 -0.3971 -0.1442
  710BOLB   GL217020  16.224  25.948  18.696 -0.1609 -0.0113 -0.2033
  710BOLB   C1A17021  15.772  26.127  19.319 -0.0319 -0.1062  0.1790
  710BOLB   C2A17022  15.728  26.472  19.516  0.0051  0.1713  0.1515
  710BOLB   C3A17023  15.638  26.785  19.699  0.3621  0.0039 -0.1529
  710BOLB   C4A17024  15.716  27.200  19.480 -0.1804 -0.0110  0.0960
  710BOLB   C1B17025  16.228  26.247  18.980  0.1584 -0.0817  0.0928
  710BOLB   C2B17026  16.142  26.680  18.845  0.1050 -0.0350 -0.1642
  710BOLB   C3B17027  16.069  26.959  18.459 -0.3237 -0.0749  0.2894
  710BOLB   C4B17028  15.768  27.326  18.417  0.0648  0.0859  0.0139
  710BOLB   NC217029  15.280  29.454  20.727 -0.1387 -0.0892  0.1583
  710BOLB   PO217030  15.627  29.365  20.380  0.1648 -0.0808 -0.1009
  710BOLB   GL317031  15.638  28.963  20.257  0.2715 -0.1110  0.1900
  710BOLB   GL417032  15.705  28.734  20.531 -0.0065 -0.1612  0.3660
  710BOLB   C1C17033  15.750  28.662  19.919  0.0983  0.3228 -0.1313
  710BOLB   C2C17034  15.859  28.221  19.640 -0.2202  0.1827  0.1665
  710BOLB   C3C17035  16.001  27.874  19.546  0.2009 -0.1880 -0.2562
  710BOLB   C4C17036  15.773  27.587  19.576  0.0895 -0.1264  0.1434
  710BOLB   C1D17037  15.775  28.251  20.673  0.1526 -0.3060 -0.0308
  710BOLB   C2D17038  15.896  27.733  20.721  0.1188 -0.2092 -0.2797
  710BOLB   C3D17039  15.656  27.464  21.030 -0.0046 -0.1095 -0.1284
  710BOLB   C4D17040  15.327  27.196  20.913  0.3305 -0.4955 -0.1775
  711BOLB   NC117041  10.877  27.166  19.786  0.2440 -0.1438 -0.0522
  711BOLB   PO117042  11.117  26.882  19.908 -0.2692  0.1420 -0.2766
  711BOLB   GL117043  11.604  26.752  19.878  0.2472  0.1781  0.3391
  711BOLB   GL217044  11.645  26.429  19.848 -0.2534 -0.1195 -0.0006
  711BOLB   C1A17045  11.991  26.886  20.116 -0.1497  0.3037 -0.0522
  711BOLB   C2A17046  12.290  26.947  20.380 -0.1849  0.4408  0.0021
  711BOLB   C3A17047  12.579  27.035  20.629 -0.2525  0.1546 -0.0344
  711BOLB   C4A17048  12.879  27.008  21.006  0.0732  0.0777 -0.0181
  711BOLB   C1B17049  12.047  26.339  20.090 -0.0218  0.0656  0.2580
  711BOLB   C2B17050  12.119  26.440  20.535 -0.0284  0.2450  0.0381
  711BOLB   C3B17051  12.147  26.866  20.835  0.1625 -0.0205 -0.2521
  711BOLB   C4B17052  12.123  27.206  21.153  0.0939 -0.2163 -0.2919
  711BOLB   NC217053  13.292  29.167  22.159 -0.1238 -0.0872  0.4522
  711BOLB   PO217054  13.325  28.953  22.564 -0.2656 -0.1058 -0.0216
  711BOLB   GL317055  13.292  28.589  22.387 -0.0978 -0.1056 -0.3760
  711BOLB   GL417056  13.539  28.408  22.387 -0.0931 -0.1482  0.0659
  711BOLB   C1C17057  12.979  28.247  22.078 -0.1476 -0.0676 -0.0019
  711BOLB   C2C17058  13.209  27.912  21.805 -0.0235 -0.0436  0.1768
  711BOLB   C3C17059  13.140  27.672  21.529 -0.2961  0.3405  0.0753
  711BOLB   C4C17060  13.164  27.353  21.176  0.0428 -0.1662 -0.1351
  711BOLB   C1D17061  13.546  28.139  22.093 -0.1281 -0.4056  0.0008
  711BOLB   C2D17062  13.678  27.904  21.795  0.0103  0.1048 -0.0256
  711BOLB   C3D17063  13.626  27.598  21.490 -0.3649  0.0741 -0.1979
  711BOLB   C4D17064  13.670  27.215  21.249 -0.1841  0.1021 -0.0846
  712BOLB   NC117065  13.003  25.693  18.820  0.0100 -0.2103 -0.4525
  712BOLB   PO117066  13.351  25.840  19.000 -0.2553  0.1077  0.0375
  712BOLB   GL117067  13.259  26.214  18.910 -0.2274 -0.1124 -0.3497
  712BOLB   GL217068  13.436  26.428  18.593  0.0462  0.2270  0.1004
  712BOLB   C1A17069  13.238  26.706  18.921  0.2876  0.0492  0.1866
  712BOLB   C2A17070  13.463  27.042  19.104  0.0886 -0.1128  0.0416
  712BOLB   C3A17071  13.627  27.492  19.064 -0.0331  0.2986  0.1688
  712BOLB   C4A17072  13.864  27.866  19.301 -0.0701 -0.2957  0.2122
  712BOLB   C1B17073  13.768  26.646  18.910 -0.1397  0.1135 -0.1234
  712BOLB   C2B17074  13.929  26.819  19.224  0.0973 -0.3051 -0.0400
  712BOLB   C3B17075  14.339  26.982  19.486  0.2987 -0.0154 -0.1547
  712BOLB   C4B17076  14.768  27.177  19.636 -0.0051 -0.1920 -0.0451
  712BOLB   NC217077  14.421  29.975  20.307  0.0429  0.2856 -0.0870
  712BOLB   PO217078  14.324  29.899  19.934 -0.1923  0.0014 -0.2912
  712BOLB   GL317079  14.328  29.590  19.684 -0.2011  0.1086 -0.3372
  712BOLB   GL417080  14.284  29.532  19.385 -0.1643  0.1193 -0.0728
  712BOLB   C1C17081  14.296  29.153  19.832 -0.0153  0.0357 -0.1970
  712BOLB   C2C17082  14.152  28.723  20.144  0.4069  0.0401  0.0016
  712BOLB   C3C17083  14.113  28.267  20.026  0.2228  0.1821  0.0677
  712BOLB   C4C17084  14.044  28.089  19.637 -0.1267 -0.2153  0.0592
  712BOLB   C1D17085  14.422  29.270  19.263  0.0319 -0.3908  0.1407
  712BOLB   C2D17086  14.374  28.821  19.310 -0.2614  0.1814  0.0723
  712BOLB   C3D17087  14.225  28.521  19.436  0.0219  0.2357 -0.2221
  712BOLB   C4D17088  14.122  28.387  19.041 -0.1624  0.1729 -0.2055
  713BOLB   NC117089  17.480  25.279  18.589 -0.0396 -0.0939  0.0556
  713BOLB   PO117090  17.080  25.410  18.642  0.1298  0.0795 -0.2127
  713BOLB   GL117091  17.160  25.804  18.906  0.0737 -0.1011  0.0997
  713BOLB   GL217092  17.166  25.709  19.253 -0.3173  0.0195  0.2998
  713BOLB   C1A17093  17.226  26.294  18.876 -0.0198  0.0726 -0.0839
  713BOLB   C2A17094  17.180  26.674  18.817 -0.2863  0.1962 -0.0008
  713BOLB   C3A17095  16.991  26.976  18.627 -0.2427 -0.1584 -0.3384
  713BOLB   C4A17096  16.795  27.263  18.573 -0.3441 -0.1324  0.0411
  713BOLB   C1B17097  16.827  26.110  19.317 -0.2773  0.0442  0.1149
  713BOLB   C2B17098  17.022  26.506  19.317  0.2728 -0.4487 -0.1701
  713BOLB   C3B17099  17.110  26.995  19.193  0.0364 -0.2052  0.2361
  713BOLB   C4B17100  17.152  27.411  19.095 -0.1107  0.3488 -0.1562
  713BOLB   NC217101  16.686  29.435  20.009 -0.1849 -0.0934 -0.0458
  713BOLB   PO217102  16.962  29.211  19.825 -0.0320  0.1763  0.0761
  713BOLB   GL317103  16.725  28.850  19.687  0.4133  0.0165  0.0301
  713BOLB   GL417104  16.424  28.903  19.879 -0.2036  0.0017  0.0228
  713BOLB   C1C17105  16.662  28.576  19.339  0.0208  0.2696 -0.1959
  713BOLB   C2C17106  16.547  28.371  19.009 -0.2185 -0.0332  0.1610
  713BOLB   C3C17107  16.511  28.089  18.642 -0.0067 -0.2377  0.0730
  713BOLB   C4C17108  16.774  27.688  18.549  0.0332 -0.1348 -0.1242
  713BOLB   C1D17109  16.276  28.505  19.881  0.1012 -0.1051  0.0970
  713BOLB   C2D17110  16.257  28.089  19.948 -0.1797 -0.2095  0.1895
  713BOLB   C3D17111  16.409  27.730  19.860  0.0580 -0.0899  0.3119
  713BOLB   C4D17112  16.615  27.453  20.126  0.0894  0.2216  0.0786
  714BOLB   NC117113  14.935  25.761  18.887  0.0146 -0.2715  0.0117
  714BOLB   PO117114  14.813  25.663  19.280  0.1617  0.1265 -0.0169
  714BOLB   GL117115  14.935  26.088  19.321 -0.0730 -0.2959  0.1261
  714BOLB   GL217116  15.236  25.968  19.530  0.2795  0.1469  0.1867
  714BOLB   C1A17117  14.926  26.518  19.322  0.1705  0.0322  0.0394
  714BOLB   C2A17118  14.772  26.948  19.141  0.1606  0.1626  0.0968
  714BOLB   C3A17119  14.829  27.175  19.104  0.0127  0.0807  0.1507
  714BOLB   C4A17120  14.732  27.538  19.254 -0.2272 -0.1621  0.1463
  714BOLB   C1B17121  15.270  26.307  19.623  0.0185 -0.0154 -0.2803
  714BOLB   C2B17122  15.140  26.807  19.714  0.2006 -0.2099 -0.1305
  714BOLB   C3B17123  15.195  27.224  19.927 -0.0144  0.3549  0.1241
  714BOLB   C4B17124  14.960  27.674  19.728  0.1079 -0.2997  0.0243
  714BOLB   NC217125  15.086  29.214  21.578  0.5555  0.0970  0.0985
  714BOLB   PO217126  15.075  29.117  21.093 -0.0365 -0.0465 -0.0029
  714BOLB   GL317127  15.205  28.963  20.733  0.0533  0.3523 -0.2242
  714BOLB   GL417128  15.356  28.636  20.964 -0.2138 -0.2588 -0.0543
  714BOLB   C1C17129  15.149  28.820  20.270 -0.2987  0.1698  0.5863
  714BOLB   C2C17130  15.140  28.727  19.853  0.1118 -0.1691 -0.0228
  714BOLB   C3C17131  14.994  28.392  19.624 -0.1954 -0.2478 -0.1724
  714BOLB   C4C17132  14.995  28.008  19.350  0.7151 -0.0658 -0.1535
  714BOLB   C1D17133  15.210  28.322  20.721 -0.0826  0.1867  0.0065
  714BOLB   C2D17134  15.306  27.994  20.458 -0.0436 -0.1435  0.1065
  714BOLB   C3D17135  15.400  27.713  20.198 -0.1575 -0.0460  0.0269
  714BOLB   C4D17136  15.838  27.572  20.029  0.3291  0.0572 -0.2013
  715BOLB   NC117137  14.179  25.779  17.692 -0.2926 -0.0354 -0.0747
  715BOLB   PO117138  14.530  25.937  17.848 -0.1877 -0.0259 -0.1243
  715BOLB   GL117139  14.595  26.263  18.028  0.1285 -0.1060 -0.1743
  715BOLB   GL217140  14.370  26.341  18.299 -0.2421  0.2256  0.1098
  715BOLB   C1A17141  14.599  26.736  17.921  0.0083  0.1182 -0.0355
  715BOLB   C2A17142  14.635  27.169  18.100 -0.1757  0.1219 -0.1504
  715BOLB   C3A17143  14.962  27.511  18.177  0.0283  0.0002 -0.0724
  715BOLB   C4A17144  15.325  27.621  18.460 -0.2506  0.1241  0.0167
  715BOLB   C1B17145  14.426  26.783  18.473  0.1805  0.1235  0.0535
  715BOLB   C2B17146  14.712  27.127  18.581  0.0058  0.1770  0.0626
  715BOLB   C3B17147  14.702  27.560  18.680 -0.1404 -0.0794  0.2562
  715BOLB   C4B17148  14.800  27.929  18.440 -0.1543 -0.1405  0.2030
  715BOLB   NC217149  16.125  29.707  19.506 -0.4118 -0.1091  0.0173
  715BOLB   PO217150  16.082  29.595  19.224  0.1988 -0.2014 -0.4739
  715BOLB   GL317151  16.029  29.227  19.214 -0.3227  0.1998 -0.1430
  715BOLB   GL417152  15.810  29.145  18.974 -0.0614 -0.2702 -0.1791
  715BOLB   C1C17153  16.007  28.756  19.362 -0.1842 -0.0454 -0.0855
  715BOLB   C2C17154  16.122  28.327  19.232 -0.4253 -0.1236  0.3198
  715BOLB   C3C17155  15.818  28.128  18.923  0.1013  0.1126 -0.1208
  715BOLB   C4C17156  15.564  27.842  18.741  0.0610  0.3667 -0.0169
  715BOLB   C1D17157  15.730  28.663  18.941  0.0107 -0.0729  0.0175
  715BOLB   C2D17158  15.577  28.487  18.521  0.0042 -0.2533  0.1894
  715BOLB   C3D17159  15.438  28.141  18.364 -0.0881 -0.1974 -0.2423
  715BOLB   C4D17160  15.238  27.864  18.014 -0.0691 -0.2587 -0.1906
  716BOLB   NC117161  21.252  24.616  19.799  0.0620  0.0137 -0.1030
  716BOLB   PO117162  21.242  24.844  19.330 -0.0544  0.0614  0.0278
  716BOLB   GL117163  20.983  25.173  19.355  0.1890 -0.0845  0.0344
  716BOLB   GL217164  20.719  25.274  19.038 -0.0673 -0.1109  0.2338
  716BOLB   C1A17165  20.991  25.531  19.356  0.2720  0.0248 -0.1586
  716BOLB   C2A17166  21.125  25.852  19.564  0.0371  0.4387 -0.0903
  716BOLB   C3A17167  21.002  26.109  19.915 -0.2147  0.0979  0.1615
  716BOLB   C4A17168  21.034  26.467  20.165  0.1411 -0.1443  0.2141
  716BOLB   C1B17169  20.418  25.584  19.104  0.0604 -0.1677  0.1709
  716BOLB   C2B17170  20.193  25.881  19.203 -0.3160  0.1455  0.0062
  716BOLB   C3B17171  20.196  26.317  19.225 -0.2678  0.1904 -0.0118
  716BOLB   C4B17172  20.205  26.791  19.150 -0.3464  0.2065 -0.3931
  716BOLB   NC217173  21.207  28.361  21.313 -0.1027 -0.0503  0.0010
  716BOLB   PO217174  21.182  28.190  21.669  0.3110  0.2086  0.1427
  716BOLB   GL317175  20.959  27.882  21.475 -0.1770  0.0817 -0.1869
  716BOLB   GL417176  20.803  27.736  21.710  0.0276  0.0453  0.0339
  716BOLB   C1C17177  20.910  27.477  21.314 -0.0484  0.3197 -0.0292
  716BOLB   C2C17178  20.662  27.218  21.103  0.1604  0.2347 -0.1970
  716BOLB   C3C17179  20.743  26.980  20.752  0.0508  0.2090 -0.0107
  716BOLB   C4C17180  20.900  26.807  20.481  0.0426 -0.0182 -0.1667
  716BOLB   C1D17181  20.734  27.305  21.760  0.1198  0.1597  0.0512
  716BOLB   C2D17182  20.721  26.972  21.636 -0.2478  0.3975  0.0597
  716BOLB   C3D17183  20.607  26.659  21.660  0.1005  0.0954  0.0983
  716BOLB   C4D17184  20.482  26.227  21.710  0.0763 -0.1834 -0.0136
  717BOLB   NC117185  14.009  25.737  16.581  0.0323 -0.3981  0.0930
  717BOLB   PO117186  13.802  26.017  16.684  0.3154  0.2249  0.0845
  717BOLB   GL117187  13.799  26.379  16.806 -0.0257 -0.1036  0.3400
  717BOLB   GL217188  13.744  26.541  17.137  0.1138  0.0529 -0.1043
  717BOLB   C1A17189  13.924  26.780  16.671 -0.3304 -0.4739  0.1883
  717BOLB   C2A17190  13.829  27.226  16.807 -0.3517  0.0440  0.0469
  717BOLB   C3A17191  14.007  27.507  17.075  0.3255 -0.1224  0.1000
  717BOLB   C4A17192  14.297  27.731  17.331  0.0936  0.0026  0.0495
  717BOLB   C1B17193  14.115  26.926  17.129  0.0627  0.0763  0.0579
  717BOLB   C2B17194  14.437  27.244  17.217 -0.0462 -0.3012 -0.3654
  717BOLB   C3B17195  14.745  27.588  17.272  0.2655  0.1734 -0.1162
  717BOLB   C4B17196  15.132  27.798  17.270  0.4244  0.0871  0.1739
  717BOLB   NC217197  15.507  29.842  18.352 -0.1568 -0.1860 -0.0689
  717BOLB   PO217198  15.735  29.599  18.059  0.3318  0.1886  0.1871
  717BOLB   GL317199  15.857  29.108  17.880  0.0712  0.1223  0.2686
  717BOLB   GL417200  15.529  29.170  17.801  0.0340 -0.1568 -0.0143
  717BOLB   C1C17201  15.634  28.611  17.967  0.1604 -0.2617  0.2864
  717BOLB   C2C17202  15.309  28.383  17.670 -0.1630  0.0433 -0.1064
  717BOLB   C3C17203  14.971  28.160  17.587 -0.0984 -0.3046  0.1060
  717BOLB   C4C17204  14.591  28.096  17.459 -0.3025  0.1277 -0.0604
  717BOLB   C1D17205  15.286  28.859  17.711 -0.1615 -0.1969  0.3387
  717BOLB   C2D17206  14.879  28.658  17.659  0.0530  0.0147 -0.0433
  717BOLB   C3D17207  14.733  28.463  17.217 -0.1319  0.2185  0.0167
  717BOLB   C4D17208  14.677  28.014  16.994  0.0173 -0.1232  0.0746
  718BOLB   NC117209  14.377  24.878  19.722 -0.4272  0.1237  0.0094
  718BOLB   PO117210  14.695  25.016  20.027  0.0961 -0.1308 -0.1157
  718BOLB   GL117211  14.694  25.423  20.238 -0.0855  0.0964  0.0093
  718BOLB   GL217212  14.902  25.541  20.325  0.2086 -0.1399 -0.0920
  718BOLB   C1A17213  14.454  25.721  20.495 -0.3848  0.0938 -0.0789
  718BOLB   C2A17214  14.390  26.102  20.762  0.0177  0.0590 -0.0233
  718BOLB   C3A17215  14.307  26.338  21.127 -0.0689  0.1046 -0.1663
  718BOLB   C4A17216  14.220  26.518  21.472  0.1944 -0.2762 -0.2806
  718BOLB   C1B17217  14.861  25.808  20.725 -0.1970  0.1597 -0.2603
  718BOLB   C2B17218  14.736  26.081  21.141 -0.2757  0.2296 -0.2959
  718BOLB   C3B17219  14.710  26.396  21.495  0.2343  0.3306 -0.0486
  718BOLB   C4B17220  14.668  26.811  21.499  0.2633  0.5219 -0.1201
  718BOLB   NC217221  14.255  28.638  22.500 -0.2312 -0.1819  0.3236
  718BOLB   PO217222  14.748  28.450  22.576 -0.0874 -0.0432  0.1734
  718BOLB   GL317223  14.573  28.124  22.365 -0.2037  0.2936 -0.1812
  718BOLB   GL417224  14.678  27.908  22.636 -0.3036  0.0053 -0.2584
  718BOLB   C1C17225  14.405  28.067  21.903  0.0450 -0.2818  0.2282
  718BOLB   C2C17226  14.255  27.699  21.661 -0.0987 -0.0259  0.1032
  718BOLB   C3C17227  14.090  27.363  21.559 -0.1495  0.1952  0.0083
  718BOLB   C4C17228  14.114  26.877  21.611  0.0710 -0.0140  0.2028
  718BOLB   C1D17229  14.884  27.430  22.641 -0.2312  0.0479  0.0890
  718BOLB   C2D17230  14.776  27.200  23.023  0.0154  0.1368 -0.1740
  718BOLB   C3D17231  14.290  27.230  23.066 -0.2546  0.0533  0.0481
  718BOLB   C4D17232  14.006  26.980  23.099 -0.1033 -0.1962 -0.1761
  719BOLB   NC117233  12.306  29.815  17.834  0.2310  0.1640 -0.0493
  719BOLB   PO117234  12.150  29.951  18.246  0.0367 -0.0396 -0.1375
  719BOLB   GL117235  12.397  29.570  18.314 -0.0476 -0.0935 -0.1044
  719BOLB   GL217236  12.665  29.455  18.112 -0.2412  0.1811 -0.2177
  719BOLB   C1A17237  12.257  29.055  18.338  0.5140  0.3747  0.2267
  719BOLB   C2A17238  12.501  28.780  18.467 -0.1639  0.1275  0.3085
  719BOLB   C3A17239  12.526  28.529  18.819  0.0067  0.0829  0.3366
  719BOLB   C4A17240  12.462  28.389  19.232  0.0353  0.1433  0.0578
  719BOLB   C1B17241  12.615  29.144  18.008  0.0142 -0.1668 -0.0331
  719BOLB   C2B17242  12.712  28.927  17.616  0.0837  0.0927 -0.0934
  719BOLB   C3B17243  12.667  28.862  17.200 -0.1023 -0.0096  0.0000
  719BOLB   C4B17244  13.042  29.098  16.913  0.0679  0.3239  0.2473
  719BOLB   NC217245  10.690  29.036  20.434  0.0618  0.1751 -0.0987
  719BOLB   PO217246  10.944  28.825  20.152  0.2098  0.3469  0.2475
  719BOLB   GL317247  11.090  28.383  20.124  0.0304  0.0104 -0.1525
  719BOLB   GL417248  10.952  28.196  20.469 -0.0504  0.3406  0.1394
  719BOLB   C1C17249  11.214  27.940  20.120  0.0185 -0.2850  0.3279
  719BOLB   C2C17250  11.563  27.726  20.085  0.0144  0.1201 -0.1569
  719BOLB   C3C17251  11.866  27.854  19.815  0.3058  0.1659  0.0857
  719BOLB   C4C17252  12.181  28.040  19.436  0.0443 -0.0823 -0.0647
  719BOLB   C1D17253  11.360  28.190  20.504 -0.2657 -0.4613 -0.0928
  719BOLB   C2D17254  11.684  28.441  20.648  0.2382 -0.0470 -0.2821
  719BOLB   C3D17255  12.079  28.681  20.765 -0.1002  0.0635  0.1373
  719BOLB   C4D17256  12.391  28.898  20.495  0.0468 -0.0089 -0.1293
  720BOLB   NC117257  12.975  25.039  20.162  0.2201  0.2810 -0.2710
  720BOLB   PO117258  13.176  25.471  20.039 -0.1546 -0.0036 -0.0437
  720BOLB   GL117259  12.939  25.612  20.411 -0.0908 -0.2180  0.0607
  720BOLB   GL217260  12.709  25.344  20.486 -0.4216 -0.0781 -0.1079
  720BOLB   C1A17261  12.909  25.923  20.615 -0.0699  0.2083 -0.0803
  720BOLB   C2A17262  12.799  26.288  20.653 -0.0773  0.3227 -0.0054
  720BOLB   C3A17263  12.899  26.489  21.026 -0.1981 -0.3889  0.3576
  720BOLB   C4A17264  13.047  26.738  21.391  0.1494  0.1673  0.0029
  720BOLB   C1B17265  12.400  25.554  20.710 -0.0863 -0.2447  0.0592
  720BOLB   C2B17266  12.033  25.506  20.959  0.1723 -0.0364  0.0321
  720BOLB   C3B17267  11.941  25.706  21.370 -0.0545 -0.0029 -0.0630
  720BOLB   C4B17268  11.581  25.808  21.619  0.2980 -0.0665  0.0308
  720BOLB   NC217269  13.684  28.737  22.825  0.1147 -0.1919  0.2298
  720BOLB   PO217270  13.889  28.473  23.107  0.0453  0.0874  0.1490
  720BOLB   GL317271  13.491  28.143  22.927  0.0637 -0.3460 -0.0590
  720BOLB   GL417272  13.521  27.900  22.980  0.1975  0.0065 -0.0160
  720BOLB   C1C17273  13.217  28.053  22.561  0.2001 -0.0903  0.0644
  720BOLB   C2C17274  13.158  27.741  22.325 -0.1546 -0.0868  0.1816
  720BOLB   C3C17275  13.084  27.460  21.979  0.2593  0.0369 -0.0074
  720BOLB   C4C17276  13.179  27.161  21.647 -0.3148  0.0027  0.2012
  720BOLB   C1D17277  13.663  27.809  22.491 -0.2343 -0.4213  0.2058
  720BOLB   C2D17278  13.628  27.508  22.358 -0.1581 -0.4092  0.2515
  720BOLB   C3D17279  13.603  27.356  21.993 -0.0573 -0.2966 -0.0472
  720BOLB   C4D17280  13.688  27.118  21.736 -0.1695  0.2869 -0.2935
  721BOLB   NC117281  12.649  25.431  18.101  0.2103 -0.2187 -0.1539
  721BOLB   PO117282  12.617  25.719  18.457 -0.1214 -0.1058  0.3238
  721BOLB   GL117283  12.903  26.283  18.457 -0.0524 -0.2307 -0.3235
  721BOLB   GL217284  12.810  26.507  18.654 -0.3553 -0.0711  0.0230
  721BOLB   C1A17285  13.075  26.782  18.354  0.0985  0.0790 -0.1226
  721BOLB   C2A17286  13.183  27.192  18.031 -0.0221 -0.1076 -0.2914
  721BOLB   C3A17287  13.429  27.578  18.130 -0.1459  0.4408  0.1175
  721BOLB   C4A17288  13.626  27.932  18.264 -0.0521  0.1511 -0.1288
  721BOLB   C1B17289  12.733  26.531  19.081  0.0408  0.0603 -0.2384
  721BOLB   C2B17290  12.565  26.869  19.413 -0.1047 -0.0031  0.2470
  721BOLB   C3B17291  12.279  27.185  19.513  0.2625 -0.2100 -0.0374
  721BOLB   C4B17292  12.208  27.576  19.674 -0.1445 -0.0970  0.2280
  721BOLB   NC217293  13.815  30.131  18.183 -0.1221  0.3127 -0.0879
  721BOLB   PO217294  13.294  30.069  18.073 -0.0261  0.1327  0.2221
  721BOLB   GL317295  13.588  29.646  17.960 -0.2972 -0.2095 -0.0126
  721BOLB   GL417296  13.601  29.539  17.572 -0.0651  0.1463  0.2078
  721BOLB   C1C17297  14.009  29.402  17.989 -0.0981 -0.1889  0.0414
  721BOLB   C2C17298  14.038  28.960  17.980 -0.1673 -0.1349 -0.1979
  721BOLB   C3C17299  14.053  28.631  18.039 -0.0656  0.0644 -0.1379
  721BOLB   C4C17300  13.783  28.208  18.012  0.3484 -0.2227  0.0593
  721BOLB   C1D17301  13.565  29.252  17.603 -0.1297  0.0154  0.2136
  721BOLB   C2D17302  13.832  28.850  17.532 -0.2615 -0.1607 -0.0293
  721BOLB   C3D17303  13.975  28.591  17.254  0.1283  0.3812 -0.1437
  721BOLB   C4D17304  14.209  28.234  17.092  0.1775 -0.1393 -0.0815
  722BOLB   NC117305  16.661  25.212  18.889  0.0597 -0.1873 -0.3704
  722BOLB   PO117306  16.519  25.538  18.567 -0.0639 -0.0664  0.2260
  722BOLB   GL117307  16.729  25.835  18.524  0.4656 -0.0922 -0.2530
  722BOLB   GL217308  17.008  25.859  18.345 -0.1291 -0.1037  0.0343
  722BOLB   C1A17309  16.690  26.143  18.851  0.2688 -0.0889 -0.0077
  722BOLB   C2A17310  16.587  26.591  19.029 -0.0811 -0.0036 -0.3866
  722BOLB   C3A17311  16.574  27.017  19.032  0.0056  0.1568  0.3421
  722BOLB   C4A17312  16.303  27.216  18.808  0.0986 -0.0497 -0.0282
  722BOLB   C1B17313  16.974  26.279  18.380 -0.2736  0.2036  0.0037
  722BOLB   C2B17314  17.169  26.676  18.254 -0.0062  0.1965  0.2012
  722BOLB   C3B17315  17.324  27.204  18.280  0.1694  0.0790  0.2381
  722BOLB   C4B17316  17.260  27.544  18.562 -0.0880  0.2907  0.0314
  722BOLB   NC217317  16.667  29.008  20.305  0.1891 -0.0850  0.3046
  722BOLB   PO217318  16.618  28.685  20.547  0.1446  0.2982  0.1104
  722BOLB   GL317319  16.700  28.459  20.225  0.0981 -0.1063 -0.3729
  722BOLB   GL417320  17.047  28.308  20.308  0.2135  0.1257  0.2564
  722BOLB   C1C17321  16.710  28.254  19.809  0.1215 -0.1706  0.2195
  722BOLB   C2C17322  16.520  28.075  19.466  0.0899  0.3247  0.5130
  722BOLB   C3C17323  16.358  27.929  19.133 -0.2969  0.2402  0.2048
  722BOLB   C4C17324  16.226  27.650  18.735  0.0444 -0.0860 -0.0935
  722BOLB   C1D17325  16.981  27.981  20.191  0.0201 -0.0476 -0.0371
  722BOLB   C2D17326  17.077  27.584  20.060 -0.1925  0.0482 -0.1565
  722BOLB   C3D17327  16.950  27.099  19.959  0.0066  0.0738 -0.1400
  722BOLB   C4D17328  17.117  26.879  19.665  0.2820  0.0434 -0.2345
  723BOLB   NC117329  20.104  24.231  18.750  0.1470  0.1652  0.0157
  723BOLB   PO117330  19.844  24.686  18.843  0.3603 -0.0114  0.2672
  723BOLB   GL117331  20.128  25.020  19.026 -0.1857 -0.2532  0.0642
  723BOLB   GL217332  20.248  25.110  18.915  0.0789 -0.3628 -0.0130
  723BOLB   C1A17333  19.902  25.319  19.266 -0.2276  0.2876 -0.0105
  723BOLB   C2A17334  19.912  25.619  19.570  0.0039 -0.0290 -0.2235
  723BOLB   C3A17335  19.737  26.099  19.771 -0.3328 -0.0040  0.2300
  723BOLB   C4A17336  19.785  26.337  19.461  0.0861  0.1248  0.1738
  723BOLB   C1B17337  20.020  25.522  18.815 -0.2119 -0.3272 -0.1540
  723BOLB   C2B17338  19.615  25.530  18.873 -0.1998 -0.1137  0.1597
  723BOLB   C3B17339  19.244  25.592  19.027 -0.0744 -0.4509  0.0107
  723BOLB   C4B17340  18.934  25.410  19.193 -0.5004 -0.2292  0.3581
  723BOLB   NC217341  20.790  28.799  20.501  0.0912 -0.1314 -0.0354
  723BOLB   PO217342  20.474  28.482  20.405 -0.0684  0.1135  0.0260
  723BOLB   GL317343  20.445  28.329  19.963  0.0027 -0.1698  0.0522
  723BOLB   GL417344  20.743  28.194  19.872  0.1486  0.3924 -0.1230
  723BOLB   C1C17345  20.297  27.976  19.667  0.0064  0.1900  0.0681
  723BOLB   C2C17346  20.032  27.587  19.657 -0.0066  0.0331  0.2313
  723BOLB   C3C17347  19.875  27.130  19.373  0.2708  0.3533 -0.0417
  723BOLB   C4C17348  19.805  26.673  19.393 -0.2871  0.3199 -0.2865
  723BOLB   C1D17349  20.809  27.746  19.775  0.0970  0.3731 -0.4788
  723BOLB   C2D17350  20.579  27.417  19.586 -0.0234 -0.2237  0.3895
  723BOLB   C3D17351  20.811  27.084  19.537  0.2782 -0.0057  0.1273
  723BOLB   C4D17352  21.228  26.784  19.316 -0.1532  0.1959  0.0249
  724BOLB   NC117353  13.506  26.077  17.187  0.1727 -0.2601  0.1098
  724BOLB   PO117354  13.779  25.966  17.506 -0.1877  0.1686 -0.0667
  724BOLB   GL117355  14.040  26.379  17.491 -0.2065  0.1304  0.3457
  724BOLB   GL217356  14.311  26.210  17.420  0.2149 -0.2244  0.2169
  724BOLB   C1A17357  13.818  26.842  17.693 -0.1673  0.2630  0.3316
  724BOLB   C2A17358  13.625  27.244  17.795  0.2171 -0.1379  0.1806
  724BOLB   C3A17359  13.862  27.577  17.885 -0.2531 -0.4524  0.0681
  724BOLB   C4A17360  14.251  27.830  17.842  0.1327 -0.2227 -0.1572
  724BOLB   C1B17361  14.421  26.649  17.436  0.1792 -0.0284 -0.0153
  724BOLB   C2B17362  14.805  26.844  17.373  0.0186 -0.0109  0.0939
  724BOLB   C3B17363  14.971  27.232  17.594  0.1672 -0.1671 -0.0773
  724BOLB   C4B17364  14.863  27.710  17.750  0.0335 -0.1941  0.2061
  724BOLB   NC217365  14.749  30.007  18.322 -0.2888  0.0026  0.2165
  724BOLB   PO217366  15.166  30.110  18.082  0.0736 -0.0347 -0.0967
  724BOLB   GL317367  15.211  29.640  17.883  0.2554 -0.0658 -0.1672
  724BOLB   GL417368  14.812  29.651  17.922 -0.0362 -0.0027  0.1882
  724BOLB   C1C17369  15.033  29.179  18.082 -0.0598  0.0407  0.1323
  724BOLB   C2C17370  15.114  28.677  18.168 -0.1012 -0.2731  0.3522
  724BOLB   C3C17371  14.997  28.319  18.170 -0.2125 -0.3203  0.5283
  724BOLB   C4C17372  14.666  28.084  17.956  0.1010 -0.1790 -0.2755
  724BOLB   C1D17373  14.470  29.503  17.789 -0.0438  0.0438  0.1097
  724BOLB   C2D17374  14.252  29.136  17.580 -0.0640 -0.0732  0.1758
  724BOLB   C3D17375  14.351  28.747  17.564  0.1179  0.0434  0.2254
  724BOLB   C4D17376  14.168  28.356  17.621 -0.1628  0.2063 -0.0890
  725BOLB   NC117377  18.745  24.576  19.406 -0.1485 -0.0341  0.3128
  725BOLB   PO117378  19.246  24.565  19.658  0.3015  0.2991 -0.3220
  725BOLB   GL117379  19.286  24.948  19.974  0.1770 -0.0648 -0.2310
  725BOLB   GL217380  19.417  24.985  20.304  0.1185 -0.2290  0.1370
  725BOLB   C1A17381  19.152  25.345  19.980  0.0711 -0.1354 -0.0776
  725BOLB   C2A17382  19.193  25.697  20.223 -0.0657  0.0149 -0.3814
  725BOLB   C3A17383  19.444  25.801  20.527  0.1350 -0.1774  0.3564
  725BOLB   C4A17384  19.366  25.845  20.937  0.0879  0.0159 -0.4291
  725BOLB   C1B17385  19.193  25.320  20.515  0.1028  0.1000 -0.3540
  725BOLB   C2B17386  18.901  25.666  20.651 -0.0873  0.2135 -0.1359
  725BOLB   C3B17387  18.934  26.107  20.532 -0.3600 -0.0061  0.0680
  725BOLB   C4B17388  19.225  26.259  20.352  0.3079 -0.0129  0.0334
  725BOLB   NC217389  19.713  28.652  21.401 -0.0891 -0.3235 -0.1720
  725BOLB   PO217390  19.678  28.287  21.196  0.0985  0.0898 -0.2935
  725BOLB   GL317391  19.789  27.844  21.051 -0.0005 -0.1700 -0.0665
  725BOLB   GL417392  19.635  27.918  20.793  0.1958 -0.0991  0.3010
  725BOLB   C1C17393  19.670  27.439  20.998  0.0113  0.1202 -0.0413
  725BOLB   C2C17394  19.612  27.036  20.865 -0.2466  0.1329 -0.2658
  725BOLB   C3C17395  19.448  26.564  20.713 -0.0860 -0.3406 -0.1563
  725BOLB   C4C17396  19.291  26.254  20.882  0.1429  0.2000  0.0064
  725BOLB   C1D17397  19.355  27.690  20.558  0.1530  0.2341 -0.1225
  725BOLB   C2D17398  19.360  27.354  20.395 -0.0583 -0.0936  0.2006
  725BOLB   C3D17399  19.456  26.969  20.425 -0.0524 -0.0130 -0.1481
  725BOLB   C4D17400  19.828  26.581  20.427  0.1493  0.0181 -0.1483
  726BOLB   NC117401  22.497  26.763  17.857 -0.2075  0.0168  0.1727
  726BOLB   PO117402  22.445  26.382  18.185 -0.0846 -0.0088  0.3202
  726BOLB   GL117403  22.050  26.317  18.399 -0.0648 -0.2779 -0.1100
  726BOLB   GL217404  22.083  26.028  18.665 -0.0879 -0.4061 -0.2834
  726BOLB   C1A17405  21.740  26.612  18.625  0.1886 -0.3490 -0.1447
  726BOLB   C2A17406  21.508  26.741  18.921  0.1152  0.0278 -0.1682
  726BOLB   C3A17407  21.194  26.954  18.835  0.1027 -0.1044  0.2246
  726BOLB   C4A17408  20.963  27.060  19.028 -0.0552 -0.0102 -0.2864
  726BOLB   C1B17409  21.751  26.108  19.032  0.1725  0.1101  0.3577
  726BOLB   C2B17410  21.705  26.063  19.412 -0.1185  0.0976  0.0895
  726BOLB   C3B17411  21.478  26.190  19.763 -0.1072  0.0949  0.1875
  726BOLB   C4B17412  21.391  26.569  19.812 -0.2027  0.0601  0.0480
  726BOLB   NC217413  21.503  28.831  18.984 -0.1492 -0.1709 -0.1867
  726BOLB   PO217414  21.201  28.527  19.151 -0.0052 -0.3970  0.2258
  726BOLB   GL317415  20.866  28.245  19.218 -0.0006  0.0125 -0.0328
  726BOLB   GL417416  20.851  27.978  19.420 -0.0171 -0.1146  0.2103
  726BOLB   C1C17417  20.463  28.200  19.207 -0.0937  0.0684  0.2304
  726BOLB   C2C17418  20.095  27.805  19.150 -0.0580  0.1117 -0.2352
  726BOLB   C3C17419  20.229  27.375  19.152  0.0440  0.0685 -0.3131
  726BOLB   C4C17420  20.516  27.161  19.075  0.1903  0.0507  0.2565
  726BOLB   C1D17421  20.762  27.580  19.171 -0.0473  0.0018  0.2187
  726BOLB   C2D17422  20.807  27.447  18.730 -0.0901  0.3463 -0.0733
  726BOLB   C3D17423  21.025  27.206  18.431  0.2010 -0.1591  0.0832
  726BOLB   C4D17424  21.170  26.909  18.267 -0.3440 -0.0363  0.1115
  727BOLB   NC117425  16.548  24.551  20.521  0.1621  0.4966 -0.0824
  727BOLB   PO117426  16.413  24.856  20.198  0.2611  0.0881 -0.3368
  727BOLB   GL117427  16.701  25.128  20.206  0.1183 -0.1607  0.0226
  727BOLB   GL217428  16.698  25.293  19.859 -0.1575 -0.4627 -0.1057
  727BOLB   C1A17429  16.529  25.546  20.269 -0.1638 -0.0616 -0.2736
  727BOLB   C2A17430  16.569  26.021  20.449  0.0905  0.2877 -0.1213
  727BOLB   C3A17431  16.376  26.484  20.465  0.0001  0.0349 -0.0952
  727BOLB   C4A17432  16.449  26.880  20.686 -0.3684 -0.0171 -0.0367
  727BOLB   C1B17433  16.853  25.754  19.714  0.1036 -0.0464  0.1351
  727BOLB   C2B17434  16.683  26.139  19.788  0.0272 -0.2551 -0.3102
  727BOLB   C3B17435  16.587  26.480  19.650 -0.0943 -0.5021 -0.0368
  727BOLB   C4B17436  16.578  26.838  19.477 -0.0385  0.0023 -0.2728
  727BOLB   NC217437  16.219  28.851  20.767 -0.1813 -0.0734 -0.3151
  727BOLB   PO217438  16.319  28.754  21.133 -0.1755 -0.2385  0.2991
  727BOLB   GL317439  16.325  28.368  21.010 -0.0636 -0.1013  0.1128
  727BOLB   GL417440  16.647  28.374  20.912 -0.0617 -0.0528 -0.1992
  727BOLB   C1C17441  16.294  27.993  20.912 -0.1299  0.1872  0.0357
  727BOLB   C2C17442  16.643  27.808  21.044  0.0263 -0.4008 -0.0190
  727BOLB   C3C17443  16.744  27.420  21.194  0.0755 -0.0223 -0.0813
  727BOLB   C4C17444  16.590  27.184  20.927  0.1324 -0.0381 -0.2116
  727BOLB   C1D17445  16.606  28.056  20.502 -0.2390  0.0799  0.2001
  727BOLB   C2D17446  16.186  27.853  20.362 -0.0369 -0.0976 -0.1363
  727BOLB   C3D17447  15.682  28.149  20.152 -0.4472 -0.1432 -0.1420
  727BOLB   C4D17448  15.436  28.407  20.222  0.4361  0.0906  0.1662
  728BOLB   NC117449  14.484  25.490  19.641  0.1984  0.0104 -0.0188
  728BOLB   PO117450  14.219  25.279  19.989 -0.1381  0.0956 -0.0652
  728BOLB   GL117451  14.064  25.606  20.116  0.2451 -0.2298 -0.2281
  728BOLB   GL217452  14.336  25.779  19.991  0.0337 -0.4075 -0.1977
  728BOLB   C1A17453  13.997  26.016  20.378 -0.4684 -0.0574  0.2071
  728BOLB   C2A17454  13.880  26.193  20.737 -0.0098 -0.1932  0.1788
  728BOLB   C3A17455  13.929  26.579  20.984  0.2101 -0.1875  0.0158
  728BOLB   C4A17456  14.110  26.929  21.096  0.0600 -0.0154  0.0409
  728BOLB   C1B17457  14.410  26.152  20.125  0.0532  0.1858  0.0867
  728BOLB   C2B17458  14.490  26.550  20.276 -0.3794  0.2673  0.1147
  728BOLB   C3B17459  14.480  26.596  20.695 -0.0207  0.0385  0.2730
  728BOLB   C4B17460  14.671  26.666  21.034  0.1649  0.1933  0.1300
  728BOLB   NC217461  15.547  28.919  21.352 -0.0144  0.1230 -0.0393
  728BOLB   PO217462  15.899  29.002  21.651 -0.1127  0.1100 -0.0304
  728BOLB   GL317463  15.812  28.543  21.574 -0.1625 -0.0620  0.1556
  728BOLB   GL417464  16.066  28.358  21.440  0.4844 -0.2212  0.0980
  728BOLB   C1C17465  15.325  28.342  21.497  0.3054  0.0922  0.1515
  728BOLB   C2C17466  15.157  27.858  21.396 -0.2562  0.2472  0.0263
  728BOLB   C3C17467  14.989  27.482  21.222  0.0096  0.1372  0.3258
  728BOLB   C4C17468  14.516  27.186  21.254  0.0451 -0.0365 -0.1636
  728BOLB   C1D17469  15.808  28.097  21.194 -0.0219 -0.0255 -0.0353
  728BOLB   C2D17470  15.549  28.042  21.082 -0.2334  0.0231 -0.0594
  728BOLB   C3D17471  15.269  27.867  20.917 -0.2797  0.0575  0.1985
  728BOLB   C4D17472  15.146  27.592  20.670 -0.0246 -0.2358 -0.0684
  729BOLB   NC117473  16.363  25.130  17.621  0.2725  0.0369 -0.0030
  729BOLB   PO117474  16.623  25.505  17.649 -0.1102 -0.0861  0.0678
  729BOLB   GL117475  16.800  25.884  17.601  0.1397  0.1308  0.0954
  729BOLB   GL217476  16.802  26.165  17.870 -0.3461  0.0405  0.0657
  729BOLB   C1A17477  17.046  26.292  17.380 -0.0709  0.2745  0.1236
  729BOLB   C2A17478  16.985  26.688  17.274 -0.1833 -0.3178  0.1253
  729BOLB   C3A17479  16.796  27.032  17.083  0.3696  0.0528  0.0974
  729BOLB   C4A17480  16.745  27.480  17.022 -0.1271  0.1793 -0.0551
  729BOLB   C1B17481  16.732  26.638  17.718  0.0630 -0.0306 -0.1383
  729BOLB   C2B17482  16.842  27.063  17.562 -0.0831  0.0668  0.4080
  729BOLB   C3B17483  16.767  27.419  17.506 -0.0068  0.2315  0.1072
  729BOLB   C4B17484  16.909  27.778  17.483  0.0678  0.0867  0.3932
  729BOLB   NC217485  17.677  29.688  16.378 -0.2418  0.0759 -0.5468
  729BOLB   PO217486  17.429  29.617  16.747 -0.3727 -0.0125  0.2873
  729BOLB   GL317487  17.267  29.303  17.055 -0.0133 -0.1600 -0.0803
  729BOLB   GL417488  16.994  29.427  17.076  0.0182 -0.0508  0.1732
  729BOLB   C1C17489  17.002  28.944  16.938 -0.2125 -0.1875 -0.2397
  729BOLB   C2C17490  16.812  28.610  16.793  0.1280 -0.0654  0.0888
  729BOLB   C3C17491  16.729  28.266  16.735 -0.2189  0.1754  0.0758
  729BOLB   C4C17492  16.813  27.870  16.947 -0.0640  0.0213 -0.0889
  729BOLB   C1D17493  16.778  29.110  17.406 -0.1499  0.0063 -0.0707
  729BOLB   C2D17494  16.498  28.735  17.621 -0.3907 -0.2010  0.3484
  729BOLB   C3D17495  16.131  28.620  17.683 -0.0771  0.0345  0.4235
  729BOLB   C4D17496  15.733  28.647  17.475 -0.2094  0.0909  0.0970
  730BOLB   NC117497  13.567  25.347  16.171 -0.2161  0.1619  0.1907
  730BOLB   PO117498  13.557  25.833  16.282  0.0825 -0.1363  0.0634
  730BOLB   GL117499  13.682  26.171  16.123  0.1035  0.0490  0.1791
  730BOLB   GL217500  13.979  26.193  16.219  0.1439 -0.2378 -0.0850
  730BOLB   C1A17501  13.799  26.677  16.220 -0.2241 -0.1237 -0.0257
  730BOLB   C2A17502  13.866  27.160  16.243  0.0046 -0.1107 -0.0012
  730BOLB   C3A17503  14.040  27.539  16.555  0.0032 -0.0383 -0.0772
  730BOLB   C4A17504  14.131  27.914  16.713  0.0067  0.2699 -0.1980
  730BOLB   C1B17505  14.235  26.419  16.430 -0.1870  0.2215  0.0030
  730BOLB   C2B17506  14.370  26.835  16.311 -0.0384 -0.1090  0.1710
  730BOLB   C3B17507  14.448  27.235  16.050 -0.0983 -0.3197  0.2023
  730BOLB   C4B17508  14.426  27.725  16.032  0.3780 -0.2569 -0.3654
  730BOLB   NC217509  15.024  29.673  16.643 -0.0286 -0.1365 -0.1341
  730BOLB   PO217510  15.438  29.917  16.652  0.0334  0.1754 -0.0434
  730BOLB   GL317511  15.517  29.462  16.717 -0.0114  0.1481  0.0215
  730BOLB   GL417512  15.412  29.281  16.973 -0.3380  0.1787  0.1608
  730BOLB   C1C17513  15.373  29.071  16.503 -0.2464  0.0826  0.0822
  730BOLB   C2C17514  15.224  28.624  16.554 -0.1652 -0.2747  0.0995
  730BOLB   C3C17515  14.904  28.412  16.653  0.1951  0.1742 -0.3335
  730BOLB   C4C17516  14.402  28.270  16.565 -0.1087  0.0374 -0.0653
  730BOLB   C1D17517  15.519  28.851  16.965  0.1306  0.0635  0.1887
  730BOLB   C2D17518  15.788  28.457  16.999 -0.0676  0.1619 -0.1320
  730BOLB   C3D17519  15.636  28.155  17.262 -0.3255  0.0386 -0.0528
  730BOLB   C4D17520  15.742  27.733  17.338 -0.3320 -0.0209  0.2267
  731BOLB   NC117521  15.402  25.193  19.598  0.1781  0.1833  0.0605
  731BOLB   PO117522  15.515  24.951  19.933  0.1302  0.1310  0.0258
  731BOLB   GL117523  15.767  25.089  20.200 -0.1910 -0.1213  0.0948
  731BOLB   GL217524  15.920  25.301  20.130  0.2183  0.2803 -0.1309
  731BOLB   C1A17525  15.895  25.268  20.632 -0.0351 -0.2578 -0.3450
  731BOLB   C2A17526  15.818  25.650  20.949  0.3522 -0.2972 -0.0486
  731BOLB   C3A17527  15.817  26.039  21.036 -0.1129 -0.0766  0.2998
  731BOLB   C4A17528  15.648  26.472  21.127  0.0973  0.0674 -0.2186
  731BOLB   C1B17529  16.009  25.742  20.314 -0.0483  0.0885  0.2738
  731BOLB   C2B17530  16.122  25.957  20.713  0.1281  0.0870 -0.1741
  731BOLB   C3B17531  16.211  26.312  21.012  0.0371  0.2092  0.3368
  731BOLB   C4B17532  16.486  26.615  21.190  0.1019 -0.0611  0.2392
  731BOLB   NC217533  16.775  28.820  21.954 -0.2307 -0.1375  0.0380
  731BOLB   PO217534  16.472  28.556  22.157  0.3450  0.2235  0.2333
  731BOLB   GL317535  16.186  28.344  21.966 -0.2091 -0.1325 -0.1297
  731BOLB   GL417536  15.858  28.503  22.149 -0.1023 -0.2827  0.0377
  731BOLB   C1C17537  15.960  28.001  21.776 -0.0221 -0.2257  0.0255
  731BOLB   C2C17538  15.725  27.791  21.565 -0.0352  0.0629  0.1095
  731BOLB   C3C17539  15.651  27.393  21.506 -0.3924  0.1134  0.2160
  731BOLB   C4C17540  15.664  26.970  21.204  0.1756  0.1704 -0.0556
  731BOLB   C1D17541  15.555  28.264  21.934  0.2262  0.0605 -0.1716
  731BOLB   C2D17542  15.219  27.888  22.021 -0.1052 -0.1726  0.1133
  731BOLB   C3D17543  14.969  27.507  22.166 -0.0069  0.2502  0.2175
  731BOLB   C4D17544  14.561  27.597  22.291  0.3593 -0.1422  0.1908
  732BOLB   NC117545  19.748  24.727  19.397 -0.2214 -0.2737  0.0393
  732BOLB   PO117546  19.970  24.419  19.793 -0.1101 -0.0208  0.0741
  732BOLB   GL117547  19.810  24.874  19.892 -0.3560  0.2649 -0.2561
  732BOLB   GL217548  19.841  24.840  20.207  0.1310 -0.1376  0.0714
  732BOLB   C1A17549  19.679  25.221  19.842  0.1819 -0.0220  0.1195
  732BOLB   C2A17550  19.643  25.604  20.007  0.3508 -0.0193  0.2830
  732BOLB   C3A17551  19.732  26.067  20.246  0.1385  0.2756  0.1198
  732BOLB   C4A17552  20.076  26.334  20.109  0.0351 -0.0840 -0.0157
  732BOLB   C1B17553  19.980  25.194  20.380  0.0973  0.3088  0.1148
  732BOLB   C2B17554  19.930  25.599  20.562  0.1115 -0.1418  0.1128
  732BOLB   C3B17555  19.858  26.021  20.757 -0.1520 -0.1436 -0.2281
  732BOLB   C4B17556  19.894  26.482  20.858  0.2569  0.0708 -0.2819
  732BOLB   NC217557  18.923  28.876  19.834 -0.3889 -0.1363  0.3160
  732BOLB   PO217558  19.224  28.526  20.020  0.1551  0.2311  0.1573
  732BOLB   GL317559  19.157  28.107  20.070  0.0492 -0.1882  0.0934
  732BOLB   GL417560  19.104  28.095  20.480  0.0363  0.3133  0.0760
  732BOLB   C1C17561  19.450  27.733  20.059 -0.0993 -0.2175 -0.0413
  732BOLB   C2C17562  19.561  27.396  19.969  0.0113 -0.1106 -0.1154
  732BOLB   C3C17563  19.821  27.072  19.876  0.0925  0.0103  0.0374
  732BOLB   C4C17564  20.115  26.778  20.080  0.2200 -0.1145  0.0809
  732BOLB   C1D17565  18.654  28.042  20.290  0.0074 -0.2036 -0.0237
  732BOLB   C2D17566  18.393  27.659  20.360 -0.2778  0.1921  0.2622
  732BOLB   C3D17567  18.250  27.655  20.709 -0.1410  0.2812 -0.0127
  732BOLB   C4D17568  18.271  27.366  21.073  0.4805  0.1236  0.2714
  733BOLB   NC117569  13.760  26.004  18.740 -0.5454  0.1049 -0.0359
  733BOLB   PO117570  14.128  26.042  18.594 -0.2726 -0.3748 -0.4900
  733BOLB   GL117571  14.259  26.445  18.832  0.1881  0.0815 -0.0800
  733BOLB   GL217572  14.306  26.521  19.117 -0.0194 -0.3533  0.0428
  733BOLB   C1A17573  14.722  26.562  18.803  0.3071  0.2588  0.1792
  733BOLB   C2A17574  15.051  26.816  18.740  0.0326 -0.1585  0.0382
  733BOLB   C3A17575  15.263  27.260  18.826 -0.1141 -0.1315  0.1036
  733BOLB   C4A17576  15.139  27.679  18.925  0.1760 -0.0263  0.2556
  733BOLB   C1B17577  14.333  26.885  18.935  0.3005 -0.0232  0.0976
  733BOLB   C2B17578  14.378  27.282  18.983 -0.1985 -0.1504 -0.2150
  733BOLB   C3B17579  14.163  27.651  18.932  0.2924 -0.1984 -0.2776
  733BOLB   C4B17580  14.400  28.019  18.736  0.2251  0.1476  0.0164
  733BOLB   NC217581  14.133  30.284  18.491 -0.0360  0.0615  0.0526
  733BOLB   PO217582  14.501  30.218  18.662 -0.0250  0.0105  0.0405
  733BOLB   GL317583  14.614  29.754  18.760 -0.0747  0.0857  0.2993
  733BOLB   GL417584  14.650  29.661  19.064  0.1039 -0.2322 -0.0588
  733BOLB   C1C17585  14.869  29.336  18.517  0.0527  0.0919 -0.2311
  733BOLB   C2C17586  14.999  28.946  18.639  0.0802 -0.2179 -0.2127
  733BOLB   C3C17587  15.148  28.530  18.794  0.2098 -0.0742  0.0030
  733BOLB   C4C17588  15.082  28.126  18.863  0.0711  0.0194 -0.0293
  733BOLB   C1D17589  14.912  29.370  19.147 -0.1590 -0.0553  0.3244
  733BOLB   C2D17590  15.314  29.212  18.992  0.1757  0.3397 -0.1268
  733BOLB   C3D17591  15.470  28.967  18.693  0.2264  0.1007  0.2352
  733BOLB   C4D17592  15.443  29.042  18.339  0.1070  0.2773 -0.1119
  734BOLB   NC117593  16.269  25.054  19.752  0.0848  0.4193  0.1060
  734BOLB   PO117594  15.959  25.207  19.473 -0.0333  0.0498  0.1254
  734BOLB   GL117595  15.704  25.539  19.593 -0.1618 -0.0852  0.0480
  734BOLB   GL217596  15.456  25.604  19.854  0.2659 -0.0171 -0.0320
  734BOLB   C1A17597  15.796  25.952  19.819  0.2894 -0.0571  0.0624
  734BOLB   C2A17598  15.742  26.358  20.002 -0.3375  0.0146  0.0643
  734BOLB   C3A17599  15.900  26.634  20.202  0.3538 -0.2295  0.0153
  734BOLB   C4A17600  15.891  27.053  20.191 -0.2831 -0.0295  0.1973
  734BOLB   C1B17601  15.341  25.928  20.108  0.0464 -0.0372 -0.1199
  734BOLB   C2B17602  15.273  26.356  20.128  0.4046  0.3339  0.0105
  734BOLB   C3B17603  15.407  26.759  20.191 -0.0469  0.0660 -0.0828
  734BOLB   C4B17604  15.544  26.888  20.599 -0.2751 -0.2510 -0.1729
  734BOLB   NC217605  17.087  28.690  20.728  0.1566 -0.0277  0.1323
  734BOLB   PO217606  17.308  28.537  21.160  0.0876 -0.1973 -0.1242
  734BOLB   GL317607  17.301  28.196  20.985 -0.2475  0.0634  0.0433
  734BOLB   GL417608  17.582  28.094  21.103  0.2608 -0.0324  0.0366
  734BOLB   C1C17609  17.200  28.009  20.707 -0.3809 -0.0727  0.0915
  734BOLB   C2C17610  16.863  27.650  20.603  0.2827  0.1613  0.1515
  734BOLB   C3C17611  16.436  27.583  20.654 -0.0361  0.0751  0.4800
  734BOLB   C4C17612  16.141  27.286  20.414  0.1248 -0.0574  0.1854
  734BOLB   C1D17613  17.581  27.680  21.413 -0.0691 -0.2096 -0.1487
  734BOLB   C2D17614  17.651  27.294  21.699 -0.1126 -0.0063 -0.2835
  734BOLB   C3D17615  17.808  26.908  21.713  0.0816  0.2184 -0.0165
  734BOLB   C4D17616  17.856  26.465  21.853 -0.0873  0.0815  0.0692
  735BOLB   NC117617  21.051  24.618  18.881 -0.0210 -0.1719 -0.0379
  735BOLB   PO117618  20.661  24.802  19.140 -0.5375  0.0692 -0.0997
  735BOLB   GL117619  20.446  25.096  19.439  0.1664 -0.1530  0.3024
  735BOLB   GL217620  20.158  24.963  19.595  0.2541  0.1282  0.3292
  735BOLB   C1A17621  20.500  25.588  19.636  0.0867  0.4720  0.2432
  735BOLB   C2A17622  20.597  25.824  19.960  0.1990  0.2097 -0.0374
  735BOLB   C3A17623  20.532  26.267  20.061  0.1085 -0.3728 -0.0443
  735BOLB   C4A17624  20.459  26.473  20.373 -0.0952  0.1642  0.4415
  735BOLB   C1B17625  20.159  25.312  19.860  0.2029  0.0109  0.0525
  735BOLB   C2B17626  20.119  25.598  20.085 -0.0448 -0.3254 -0.2693
  735BOLB   C3B17627  20.302  25.956  20.367 -0.1160  0.0651 -0.0313
  735BOLB   C4B17628  20.372  26.160  20.781  0.4475 -0.0713 -0.2793
  735BOLB   NC217629  19.699  28.717  20.149  0.0861 -0.0403 -0.3253
  735BOLB   PO217630  20.162  28.711  20.056 -0.1191  0.1731  0.0119
  735BOLB   GL317631  19.968  28.308  19.980 -0.2631 -0.2746 -0.2390
  735BOLB   GL417632  19.656  28.201  19.838  0.1011 -0.0549 -0.0060
  735BOLB   C1C17633  19.902  27.805  20.080  0.0398  0.2885  0.3837
  735BOLB   C2C17634  19.942  27.511  20.387 -0.1990  0.1689  0.1016
  735BOLB   C3C17635  19.955  27.127  20.436  0.3194  0.2986 -0.1201
  735BOLB   C4C17636  20.250  26.718  20.643  0.0713 -0.1259  0.0097
  735BOLB   C1D17637  19.583  27.894  19.463  0.0826 -0.2574 -0.2237
  735BOLB   C2D17638  19.482  27.461  19.500  0.4472 -0.0723 -0.1180
  735BOLB   C3D17639  19.391  27.062  19.534 -0.1606 -0.1444 -0.3417
  735BOLB   C4D17640  19.110  26.804  19.671 -0.0376  0.2566  0.1304
  736BOLB   NC117641  10.066  28.251  21.332 -0.2227  0.4868  0.0970
  736BOLB   PO117642  10.260  27.981  21.584  0.0179  0.2268  0.1271
  736BOLB   GL117643  10.598  27.758  21.360  0.3303 -0.1664  0.2650
  736BOLB   GL217644  10.446  27.642  20.929 -0.1492  0.1358 -0.0321
  736BOLB   C1A17645  11.003  27.754  21.304  0.0605 -0.0072 -0.1480
  736BOLB   C2A17646  11.393  27.385  21.491 -0.2630  0.2614  0.0000
  736BOLB   C3A17647  11.376  27.066  21.819  0.1079 -0.0818 -0.1041
  736BOLB   C4A17648  11.368  26.766  21.971  0.2040  0.2186  0.1445
  736BOLB   C1B17649  10.527  27.306  21.173  0.0599  0.0676  0.3717
  736BOLB   C2B17650  10.394  26.821  21.226  0.0474  0.1927 -0.0907
  736BOLB   C3B17651  10.640  26.488  21.495  0.2861 -0.1457  0.5184
  736BOLB   C4B17652  10.917  26.314  21.877  0.0374 -0.0652 -0.0660
  736BOLB   NC217653   9.547  26.532  23.340 -0.1861  0.2874 -0.0003
  736BOLB   PO217654   9.460  26.904  23.124  0.1273 -0.2647 -0.3023
  736BOLB   GL317655   9.873  26.714  22.965 -0.0088  0.0779  0.2180
  736BOLB   GL417656  10.042  26.842  23.252  0.0746 -0.1114  0.2456
  736BOLB   C1C17657  10.163  26.517  22.744 -0.4788 -0.1879  0.3697
  736BOLB   C2C17658  10.557  26.735  22.469  0.2701 -0.2019 -0.1578
  736BOLB   C3C17659  10.885  26.532  22.322  0.2548  0.0425 -0.0661
  736BOLB   C4C17660  11.262  26.417  22.232 -0.1029 -0.2404  0.0480
  736BOLB   C1D17661  10.375  26.814  23.561 -0.2719  0.1721  0.0453
  736BOLB   C2D17662  10.913  26.793  23.547  0.3599 -0.1565 -0.0925
  736BOLB   C3D17663  11.293  26.801  23.613 -0.4680 -0.2653 -0.0826
  736BOLB   C4D17664  11.544  26.540  23.516  0.1429  0.0563 -0.0254
  737BOLB   NC117665  16.561  25.767  18.040  0.2314 -0.2628 -0.1677
  737BOLB   PO117666  16.168  25.838  18.109  0.3034 -0.2381  0.1439
  737BOLB   GL117667  16.371  26.175  18.265 -0.0395 -0.1209  0.3351
  737BOLB   GL217668  15.999  26.314  18.471  0.3273  0.0015  0.2797
  737BOLB   C1A17669  16.477  26.447  18.517 -0.0602 -0.0877 -0.3408
  737BOLB   C2A17670  16.591  26.860  18.237 -0.1209 -0.1009  0.2425
  737BOLB   C3A17671  16.811  27.098  18.066 -0.0433  0.0224  0.1539
  737BOLB   C4A17672  16.882  27.511  18.012 -0.0063  0.3780  0.0076
  737BOLB   C1B17673  15.670  26.396  18.800 -0.4616  0.3187 -0.1655
  737BOLB   C2B17674  15.669  26.826  18.842  0.3457  0.3315 -0.3607
  737BOLB   C3B17675  15.791  27.178  18.951 -0.1676 -0.3559 -0.1825
  737BOLB   C4B17676  15.823  27.597  19.033  0.1118 -0.2146 -0.3412
  737BOLB   NC217677  16.196  29.964  17.788 -0.1568  0.1564  0.1503
  737BOLB   PO217678  16.326  29.784  18.082  0.0052 -0.1514 -0.1838
  737BOLB   GL317679  16.132  29.389  18.274  0.2178  0.0267 -0.2392
  737BOLB   GL417680  15.846  29.312  18.450 -0.2718  0.0043  0.0069
  737BOLB   C1C17681  16.390  29.079  18.593  0.1615 -0.0768  0.2965
  737BOLB   C2C17682  16.604  28.578  18.543  0.0116 -0.2671  0.2047
  737BOLB   C3C17683  16.787  28.266  18.256 -0.0962  0.1900 -0.1671
  737BOLB   C4C17684  16.863  27.921  18.001  0.0790  0.0635  0.1043
  737BOLB   C1D17685  15.998  28.925  18.408  0.1544  0.0472 -0.3094
  737BOLB   C2D17686  16.164  28.499  18.238  0.1046  0.0549 -0.0458
  737BOLB   C3D17687  15.931  28.179  18.001 -0.2572 -0.1196 -0.0022
  737BOLB   C4D17688  15.656  28.021  17.772  0.2252  0.1155  0.2528
  738BOLB   NC117689  22.000  25.238  18.450 -0.1162  0.1502  0.1167
  738BOLB   PO117690  22.171  25.593  18.485 -0.0766  0.4431  0.0559
  738BOLB   GL117691  21.730  25.713  18.501  0.0168  0.1099  0.3205
  738BOLB   GL217692  21.500  25.430  18.426 -0.1512  0.1862  0.2112
  738BOLB   C1A17693  21.498  26.053  18.632  0.1836  0.0051 -0.2341
  738BOLB   C2A17694  21.180  26.386  18.796  0.0510  0.0523 -0.3414
  738BOLB   C3A17695  20.884  26.555  19.000 -0.3621  0.0266  0.2069
  738BOLB   C4A17696  20.688  26.534  19.254 -0.1198 -0.1264 -0.0192
  738BOLB   C1B17697  21.324  25.793  18.177  0.0996  0.2944 -0.0636
  738BOLB   C2B17698  21.175  26.224  18.149  0.4109  0.0807  0.1824
  738BOLB   C3B17699  20.933  26.474  18.342 -0.1735 -0.0584  0.0897
  738BOLB   C4B17700  20.771  26.859  18.642 -0.3089  0.0836  0.4030
  738BOLB   NC217701  20.063  28.333  20.490  0.2534  0.3032 -0.0963
  738BOLB   PO217702  20.091  28.322  20.871 -0.3150 -0.0150 -0.1219
  738BOLB   GL317703  20.195  27.878  20.695 -0.1291  0.0111 -0.3357
  738BOLB   GL417704  20.453  27.968  20.438  0.1491 -0.1915  0.0148
  738BOLB   C1C17705  20.355  27.370  20.616 -0.2715  0.0610  0.0326
  738BOLB   C2C17706  20.473  27.013  20.319 -0.0432 -0.0196 -0.0453
  738BOLB   C3C17707  20.637  26.835  19.960 -0.3963  0.2732 -0.2968
  738BOLB   C4C17708  20.886  26.579  19.636  0.2149  0.2963  0.0942
  738BOLB   C1D17709  20.413  27.619  20.057  0.1566 -0.1575 -0.1099
  738BOLB   C2D17710  20.220  27.285  20.004  0.0335 -0.0893  0.1990
  738BOLB   C3D17711  20.260  27.008  19.661 -0.2142 -0.2100  0.3535
  738BOLB   C4D17712  20.349  26.562  19.607 -0.1945  0.2013 -0.3721
  739BOLB   NC117713  17.227  24.809  19.346 -0.2980 -0.0809  0.1859
  739BOLB   PO117714  17.325  25.239  19.121 -0.0907 -0.0152  0.2634
  739BOLB   GL117715  17.665  25.580  19.162  0.0771  0.0802 -0.0545
  739BOLB   GL217716  17.594  25.641  18.925  0.0176  0.3302 -0.1810
  739BOLB   C1A17717  17.510  26.079  19.276  0.2424  0.0314 -0.0038
  739BOLB   C2A17718  17.545  26.540  19.376  0.1438 -0.1523  0.1356
  739BOLB   C3A17719  17.659  26.764  19.805  0.3589  0.0489  0.1080
  739BOLB   C4A17720  17.963  26.952  20.071  0.3804  0.0296  0.2240
  739BOLB   C1B17721  17.671  26.096  18.788  0.0363 -0.0842 -0.1032
  739BOLB   C2B17722  17.842  26.534  18.921  0.2140 -0.0626 -0.2306
  739BOLB   C3B17723  17.804  26.956  19.206 -0.1467  0.0731  0.2398
  739BOLB   C4B17724  17.581  27.147  19.461 -0.2308  0.1708  0.0554
  739BOLB   NC217725  18.477  28.694  21.412  0.0092  0.0846 -0.2074
  739BOLB   PO217726  18.360  28.267  21.535  0.1938  0.0434 -0.1746
  739BOLB   GL317727  18.471  27.832  21.411  0.1819 -0.3590  0.1357
  739BOLB   GL417728  18.395  27.774  21.702 -0.0551 -0.1035 -0.2102
  739BOLB   C1C17729  18.739  27.571  21.198  0.2166  0.2345  0.0258
  739BOLB   C2C17730  18.599  27.274  20.718  0.0817  0.1659  0.0757
  739BOLB   C3C17731  18.603  27.153  20.326  0.0428 -0.0648 -0.3424
  739BOLB   C4C17732  18.313  27.211  20.126  0.3911  0.1676  0.2166
  739BOLB   C1D17733  18.083  27.465  21.581  0.0404  0.1516  0.0867
  739BOLB   C2D17734  17.741  27.230  21.201 -0.1254  0.0916  0.0788
  739BOLB   C3D17735  17.597  27.141  20.865 -0.1978  0.3197 -0.1385
  739BOLB   C4D17736  17.671  27.060  20.467 -0.1429 -0.0849 -0.1171
  740BOLB   NC117737  14.934  26.248  17.665  0.2945 -0.1724 -0.0517
  740BOLB   PO117738  15.025  26.027  18.083  0.1221  0.1818 -0.1944
  740BOLB   GL117739  15.362  26.290  17.987  0.2040  0.1157 -0.1633
  740BOLB   GL217740  15.489  26.244  18.308  0.0506 -0.0758  0.2063
  740BOLB   C1A17741  15.616  26.704  17.934 -0.4122  0.0296 -0.0737
  740BOLB   C2A17742  15.891  27.117  17.983  0.3706  0.1979  0.0725
  740BOLB   C3A17743  16.245  27.375  18.259 -0.1511  0.0850  0.1610
  740BOLB   C4A17744  16.316  27.777  18.229  0.0269  0.0340 -0.0869
  740BOLB   C1B17745  15.433  26.633  18.419 -0.2010  0.0508 -0.0636
  740BOLB   C2B17746  15.368  27.040  18.317  0.2958 -0.2870 -0.2485
  740BOLB   C3B17747  15.392  27.378  17.962  0.2123  0.0226 -0.0611
  740BOLB   C4B17748  15.415  27.601  17.614 -0.0602 -0.0317 -0.1502
  740BOLB   NC217749  17.807  29.389  17.744  0.1939  0.1306 -0.1802
  740BOLB   PO217750  17.490  29.789  17.784  0.0409 -0.1361  0.0458
  740BOLB   GL317751  17.292  29.350  17.852 -0.0461  0.2277 -0.0664
  740BOLB   GL417752  17.337  29.301  17.520 -0.0205 -0.2600 -0.2183
  740BOLB   C1C17753  17.048  29.009  17.857  0.3351  0.4034  0.2380
  740BOLB   C2C17754  16.983  28.621  17.840  0.1427  0.0480  0.0532
  740BOLB   C3C17755  16.733  28.288  17.730  0.1877  0.0908  0.4128
  740BOLB   C4C17756  16.409  28.124  17.892 -0.0851 -0.2293  0.1279
  740BOLB   C1D17757  17.238  28.883  17.406 -0.0706  0.2905  0.0778
  740BOLB   C2D17758  17.128  28.503  17.348 -0.1055 -0.0957  0.0722
  740BOLB   C3D17759  16.719  28.394  17.212  0.2935  0.0357 -0.3358
  740BOLB   C4D17760  16.516  28.037  17.320  0.0152  0.1700 -0.0368
  741BOLB   NC117761  17.619  25.178  19.572  0.0225 -0.2622  0.0637
  741BOLB   PO117762  17.884  25.127  19.846 -0.1432  0.2066 -0.0035
  741BOLB   GL117763  17.780  25.633  19.916  0.2992 -0.0783  0.4141
  741BOLB   GL217764  17.487  25.670  19.656 -0.1581  0.2312 -0.0936
  741BOLB   C1A17765  17.566  25.928  20.104  0.0827  0.0999  0.1539
  741BOLB   C2A17766  17.391  26.289  20.228  0.0745 -0.2786 -0.0405
  741BOLB   C3A17767  17.330  26.818  20.176 -0.2033  0.0444 -0.0272
  741BOLB   C4A17768  17.437  27.198  19.977  0.0491  0.1038 -0.0042
  741BOLB   C1B17769  17.263  26.046  19.719 -0.0768  0.1648 -0.0889
  741BOLB   C2B17770  17.121  26.435  19.796 -0.2476 -0.3096  0.0128
  741BOLB   C3B17771  16.838  26.585  20.049  0.0983  0.0037  0.4750
  741BOLB   C4B17772  16.512  26.924  20.160  0.1394  0.1909 -0.0508
  741BOLB   NC217773  18.031  29.641  19.021  0.1376 -0.3764 -0.0459
  741BOLB   PO217774  17.868  29.271  19.072 -0.0855 -0.0534 -0.1177
  741BOLB   GL317775  17.551  28.955  19.130  0.1466 -0.0960 -0.0888
  741BOLB   GL417776  17.304  29.041  19.035 -0.1570 -0.2172 -0.3828
  741BOLB   C1C17777  17.513  28.541  18.931 -0.1589 -0.0181 -0.2777
  741BOLB   C2C17778  17.506  28.122  19.089  0.2280 -0.1734 -0.1600
  741BOLB   C3C17779  17.448  27.761  19.378  0.0264 -0.4715 -0.0048
  741BOLB   C4C17780  17.253  27.461  19.621  0.1715  0.1456  0.0099
  741BOLB   C1D17781  17.022  29.174  18.714 -0.1043  0.2169  0.0018
  741BOLB   C2D17782  16.991  29.252  18.304  0.1712  0.2080 -0.0041
  741BOLB   C3D17783  16.681  29.291  17.898  0.0466  0.1111 -0.1155
  741BOLB   C4D17784  16.309  29.152  17.539  0.2839  0.1345 -0.1355
  742BOLB   NC117785  17.715  25.394  17.813  0.0103 -0.1021  0.0758
  742BOLB   PO117786  17.398  25.495  18.166 -0.1523  0.0346 -0.2467
  742BOLB   GL117787  17.564  25.840  18.105 -0.0306  0.0326  0.0789
  742BOLB   GL217788  17.237  25.932  17.849  0.0217  0.0961  0.1477
  742BOLB   C1A17789  17.497  26.233  18.319  0.4086 -0.0867 -0.2846
  742BOLB   C2A17790  17.725  26.562  18.450  0.0817  0.0527  0.0251
  742BOLB   C3A17791  17.594  26.885  18.529  0.1171  0.2035 -0.0875
  742BOLB   C4A17792  17.526  27.152  18.818 -0.1294 -0.0721  0.0800
  742BOLB   C1B17793  17.227  26.353  17.832 -0.2770 -0.1087  0.0225
  742BOLB   C2B17794  17.309  26.669  17.679  0.0969 -0.0355  0.3115
  742BOLB   C3B17795  17.284  27.120  17.821  0.0796 -0.1380 -0.1954
  742BOLB   C4B17796  17.307  27.493  17.783 -0.0522 -0.3094  0.1229
  742BOLB   NC217797  18.676  29.545  17.408 -0.2642  0.2009 -0.1850
  742BOLB   PO217798  18.508  29.206  17.744  0.3894 -0.0779 -0.1860
  742BOLB   GL317799  18.474  28.817  17.971 -0.0278  0.2252  0.0870
  742BOLB   GL417800  18.564  28.586  17.679 -0.0325  0.0282  0.0874
  742BOLB   C1C17801  18.384  28.345  18.151 -0.1702 -0.1084 -0.0979
  742BOLB   C2C17802  17.938  28.190  18.296 -0.0068  0.2020  0.1919
  742BOLB   C3C17803  17.615  27.969  18.594 -0.1057  0.0525 -0.2757
  742BOLB   C4C17804  17.626  27.581  18.947  0.2685  0.1552 -0.1146
  742BOLB   C1D17805  18.888  28.481  18.022  0.2215 -0.1251 -0.0331
  742BOLB   C2D17806  19.277  28.124  18.036 -0.3206 -0.0880 -0.1131
  742BOLB   C3D17807  19.389  27.713  18.142 -0.2094 -0.2736  0.0167
  742BOLB   C4D17808  19.343  27.254  18.064 -0.3640 -0.1110  0.1145
  743BOLB   NC117809  14.250  25.072  18.788 -0.1476 -0.0972 -0.2071
  743BOLB   PO117810  14.273  25.419  19.209 -0.0003 -0.0186 -0.0628
  743BOLB   GL117811  14.395  25.907  19.280  0.1918 -0.0981  0.4134
  743BOLB   GL217812  14.083  26.100  19.145 -0.1377 -0.1128 -0.0987
  743BOLB   C1A17813  14.539  26.291  19.476  0.2158 -0.0597  0.1221
  743BOLB   C2A17814  14.362  26.596  19.784  0.1545 -0.0811  0.1354
  743BOLB   C3A17815  14.293  26.994  19.990  0.0424  0.1845 -0.0155
  743BOLB   C4A17816  14.283  27.429  19.999 -0.0115 -0.1785 -0.0080
  743BOLB   C1B17817  14.010  26.317  19.424 -0.3410  0.2665 -0.0779
  743BOLB   C2B17818  13.881  26.594  19.660 -0.2287  0.2188  0.1199
  743BOLB   C3B17819  13.904  27.071  19.730  0.2881 -0.0150  0.1080
  743BOLB   C4B17820  13.703  27.259  20.107 -0.4517 -0.2492 -0.0899
  743BOLB   NC217821  14.921  30.000  20.968  0.2778  0.0684  0.1838
  743BOLB   PO217822  14.831  29.806  20.519 -0.1977  0.4063  0.4073
  743BOLB   GL317823  14.822  29.222  20.485 -0.0322 -0.1075  0.0970
  743BOLB   GL417824  14.639  29.022  20.827  0.0636 -0.0634 -0.4042
  743BOLB   C1C17825  14.702  28.960  20.143 -0.0490 -0.2219  0.0171
  743BOLB   C2C17826  14.607  28.697  19.828  0.0740  0.1349  0.1384
  743BOLB   C3C17827  14.580  28.221  19.761  0.0358  0.0766 -0.0219
  743BOLB   C4C17828  14.440  27.854  20.003 -0.0827  0.1534  0.0911
  743BOLB   C1D17829  14.674  28.672  20.590 -0.1001  0.2329 -0.0674
  743BOLB   C2D17830  14.613  28.391  20.231 -0.0730 -0.1356  0.1495
  743BOLB   C3D17831  14.941  28.121  20.057  0.1079 -0.2048  0.1005
  743BOLB   C4D17832  15.335  28.102  19.776  0.0243  0.2567  0.2345
  744BOLB   NC117833  18.737  24.878  18.516  0.0810  0.1963 -0.0128
  744BOLB   PO117834  18.287  25.029  18.324  0.1821 -0.0817  0.0509
  744BOLB   GL117835  18.439  25.444  18.496  0.1931  0.0293  0.1622
  744BOLB   GL217836  18.744  25.349  18.616  0.0405 -0.2848 -0.3215
  744BOLB   C1A17837  18.437  25.766  18.320 -0.2364 -0.0892  0.1705
  744BOLB   C2A17838  18.610  26.152  18.434  0.0390 -0.0567  0.2701
  744BOLB   C3A17839  18.614  26.634  18.282  0.1140  0.1261 -0.1901
  744BOLB   C4A17840  18.605  26.993  18.626  0.1490 -0.1327 -0.0305
  744BOLB   C1B17841  18.730  25.780  18.804  0.0717  0.1128 -0.0364
  744BOLB   C2B17842  18.894  25.990  19.210 -0.3914  0.4943  0.0244
  744BOLB   C3B17843  18.997  26.363  19.513 -0.3175 -0.3010 -0.2988
  744BOLB   C4B17844  18.791  26.272  19.820 -0.0461  0.0512 -0.0035
  744BOLB   NC217845  18.396  29.428  20.024 -0.0974  0.0940 -0.0055
  744BOLB   PO217846  18.515  28.946  20.015  0.2155 -0.0201  0.2409
  744BOLB   GL317847  18.461  28.644  19.837 -0.1050  0.0005 -0.1659
  744BOLB   GL417848  18.132  28.630  19.715 -0.2751  0.0486  0.2696
  744BOLB   C1C17849  18.407  28.240  19.467  0.0095 -0.0682  0.1682
  744BOLB   C2C17850  18.358  27.859  19.541  0.2298  0.0120  0.0502
  744BOLB   C3C17851  18.534  27.612  19.178 -0.1266  0.1194 -0.2778
  744BOLB   C4C17852  18.615  27.330  18.940  0.1877  0.2922 -0.1409
  744BOLB   C1D17853  18.037  28.586  19.315 -0.1933 -0.1642  0.5420
  744BOLB   C2D17854  17.980  28.311  18.901  0.1007 -0.2330  0.1546
  744BOLB   C3D17855  18.076  27.846  18.934  0.0694 -0.1589  0.4716
  744BOLB   C4D17856  18.038  27.384  18.698 -0.0024 -0.0554  0.1535
  745BOLB   NC117857  17.734  24.816  20.208 -0.0562 -0.1513 -0.1083
  745BOLB   PO117858  17.410  24.753  19.880 -0.1265  0.4743  0.2849
  745BOLB   GL117859  17.339  25.177  20.069 -0.0811  0.1371 -0.1153
  745BOLB   GL217860  17.589  25.315  20.272  0.1200  0.2287 -0.0460
  745BOLB   C1A17861  17.084  25.493  20.079  0.0984 -0.3312 -0.2536
  745BOLB   C2A17862  16.967  26.003  20.210 -0.6673 -0.0866  0.2032
  745BOLB   C3A17863  16.888  26.393  20.525 -0.1260 -0.3105 -0.1086
  745BOLB   C4A17864  16.884  26.893  20.473 -0.1508 -0.0879 -0.0202
  745BOLB   C1B17865  17.897  25.620  20.412  0.1364 -0.1245  0.0655
  745BOLB   C2B17866  17.995  25.831  20.713  0.2304 -0.0548  0.3212
  745BOLB   C3B17867  17.913  26.024  21.128 -0.3229  0.4354 -0.1361
  745BOLB   C4B17868  18.277  26.270  21.335 -0.0447  0.0265 -0.0410
  745BOLB   NC217869  17.524  28.273  21.615  0.0812 -0.1005  0.1955
  745BOLB   PO217870  17.889  28.363  21.846 -0.1202 -0.1021 -0.2379
  745BOLB   GL317871  17.960  27.982  21.614 -0.0477 -0.0398  0.0874
  745BOLB   GL417872  17.796  27.789  21.837  0.0753 -0.1119 -0.1518
  745BOLB   C1C17873  17.986  27.755  21.139  0.2490  0.0141  0.2458
  745BOLB   C2C17874  17.748  27.567  20.818 -0.0488 -0.0550 -0.1544
  745BOLB   C3C17875  17.399  27.546  20.559 -0.1960  0.2168  0.0212
  745BOLB   C4C17876  17.181  27.245  20.440 -0.0242 -0.1457 -0.1063
  745BOLB   C1D17877  18.019  27.495  22.129 -0.1409 -0.0010  0.0688
  745BOLB   C2D17878  18.135  27.079  22.157 -0.0680  0.0327  0.2405
  745BOLB   C3D17879  18.317  26.630  22.225 -0.1749 -0.0444  0.0047
  745BOLB   C4D17880  18.186  26.189  22.383  0.3062  0.1495  0.3415
  746BOLB   NC117881  11.813  24.915  20.941 -0.3441  0.2333 -0.0062
  746BOLB   PO117882  12.037  24.859  20.603  0.3162  0.3718  0.0403
  746BOLB   GL117883  12.351  25.042  20.901  0.0578 -0.1195 -0.4397
  746BOLB   GL217884  12.667  24.952  21.095  0.2168  0.2327 -0.2567
  746BOLB   C1A17885  12.297  25.225  21.279 -0.0560  0.0900  0.0110
  746BOLB   C2A17886  12.309  25.446  21.677 -0.1664 -0.0554  0.2770
  746BOLB   C3A17887  12.563  25.784  21.832 -0.0110 -0.1174  0.0290
  746BOLB   C4A17888  12.509  26.070  22.053 -0.3125  0.0998  0.0924
  746BOLB   C1B17889  12.804  25.167  21.405 -0.1569 -0.2610 -0.2273
  746BOLB   C2B17890  12.873  25.587  21.505  0.0129 -0.0285 -0.1789
  746BOLB   C3B17891  13.110  25.880  21.819  0.2059  0.2427 -0.0135
  746BOLB   C4B17892  13.455  26.087  21.992 -0.5261 -0.1649 -0.0222
  746BOLB   NC217893  12.507  28.099  24.122 -0.3866  0.1095  0.0975
  746BOLB   PO217894  12.586  28.054  23.642 -0.0614 -0.2861  0.3436
  746BOLB   GL317895  12.812  27.755  23.407 -0.3555 -0.1188 -0.1585
  746BOLB   GL417896  13.044  27.824  23.157  0.0299  0.0109 -0.1108
  746BOLB   C1C17897  12.717  27.393  23.091  0.0428 -0.1215  0.0061
  746BOLB   C2C17898  12.502  27.144  22.731  0.0041  0.2584  0.0171
  746BOLB   C3C17899  12.397  26.867  22.468 -0.0811 -0.0287  0.1091
  746BOLB   C4C17900  12.318  26.506  22.172 -0.1673  0.0175  0.1090
  746BOLB   C1D17901  13.107  27.521  22.769  0.0605 -0.1599  0.1117
  746BOLB   C2D17902  13.115  27.261  22.466 -0.0973 -0.3256 -0.1046
  746BOLB   C3D17903  13.210  27.015  22.117  0.0241 -0.0605 -0.0990
  746BOLB   C4D17904  13.237  26.758  21.896 -0.2204 -0.1744  0.1208
  747BOLB   NC117905  17.178  23.983  20.477  0.1922  0.2611 -0.3005
  747BOLB   PO117906  17.049  24.386  20.683  0.1376 -0.3066  0.2226
  747BOLB   GL117907  16.963  24.801  20.881 -0.0615 -0.0472 -0.0188
  747BOLB   GL217908  16.606  24.810  20.995  0.0621  0.0276  0.0964
  747BOLB   C1A17909  16.950  25.211  21.142 -0.0015  0.1425 -0.0626
  747BOLB   C2A17910  16.825  25.629  21.263  0.1539 -0.3942  0.2200
  747BOLB   C3A17911  17.032  25.941  21.299  0.1123 -0.1715 -0.3962
  747BOLB   C4A17912  16.982  26.448  21.426  0.0567  0.1294 -0.0260
  747BOLB   C1B17913  16.465  25.092  21.165  0.2880  0.1429  0.0123
  747BOLB   C2B17914  16.531  25.163  21.547  0.0555 -0.1784  0.0183
  747BOLB   C3B17915  16.688  25.499  21.773 -0.0937 -0.2415  0.0602
  747BOLB   C4B17916  17.058  25.777  21.832 -0.2241  0.0053  0.0532
  747BOLB   NC217917  16.671  28.355  23.261  0.1421 -0.0076 -0.0409
  747BOLB   PO217918  16.750  28.230  22.905  0.1472 -0.0189  0.1547
  747BOLB   GL317919  16.645  27.774  22.797  0.0044  0.0802 -0.0583
  747BOLB   GL417920  16.826  27.570  22.974  0.0500 -0.1275 -0.0429
  747BOLB   C1C17921  16.633  27.408  22.538 -0.2160 -0.1820  0.0822
  747BOLB   C2C17922  16.754  27.402  22.151 -0.0358 -0.3277  0.0397
  747BOLB   C3C17923  16.598  27.090  21.818 -0.3025  0.0004 -0.0496
  747BOLB   C4C17924  16.874  26.855  21.513 -0.0045 -0.0573  0.1169
  747BOLB   C1D17925  16.847  27.092  22.883  0.1854 -0.0638 -0.1166
  747BOLB   C2D17926  16.706  26.651  22.884 -0.1665 -0.1104 -0.1650
  747BOLB   C3D17927  16.782  26.273  22.728 -0.2001  0.0966 -0.2403
  747BOLB   C4D17928  17.053  26.040  23.003 -0.3041 -0.2763  0.0687
  748BOLB   NC117929  11.679  26.800  18.183 -0.3018 -0.1369  0.4114
  748BOLB   PO117930  12.057  26.885  17.876  0.1169  0.0331  0.1174
  748BOLB   GL117931  12.403  27.209  17.882 -0.0613 -0.1334  0.0083
  748BOLB   GL217932  12.382  27.256  17.550  0.1597  0.1950 -0.1528
  748BOLB   C1A17933  12.760  27.429  18.062  0.3177  0.4228 -0.1963
  748BOLB   C2A17934  12.919  27.662  18.225 -0.1477  0.0354  0.1307
  748BOLB   C3A17935  13.123  28.010  18.193  0.0641 -0.0255 -0.1394
  748BOLB   C4A17936  13.336  28.359  18.340  0.0829 -0.0725 -0.0623
  748BOLB   C1B17937  12.612  27.622  17.576  0.1391 -0.0890  0.0301
  748BOLB   C2B17938  12.883  27.868  17.325 -0.1283  0.2707 -0.1223
  748BOLB   C3B17939  13.317  27.949  17.214 -0.1149  0.0000 -0.1032
  748BOLB   C4B17940  13.770  27.971  17.042  0.2642  0.1712  0.1388
  748BOLB   NC217941  14.470  30.712  17.850  0.0783 -0.0381  0.0623
  748BOLB   PO217942  14.271  30.285  17.935 -0.0390 -0.0763 -0.3002
  748BOLB   GL317943  14.242  29.856  18.182  0.1339  0.1061 -0.4982
  748BOLB   GL417944  13.982  29.788  18.422 -0.0239  0.2326  0.1123
  748BOLB   C1C17945  14.406  29.437  18.401  0.0640 -0.0452  0.0138
  748BOLB   C2C17946  14.382  28.994  18.443 -0.0529  0.2312 -0.1211
  748BOLB   C3C17947  14.175  28.570  18.551  0.1827 -0.1655 -0.2570
  748BOLB   C4C17948  13.811  28.366  18.463  0.0951  0.1829 -0.0396
  748BOLB   C1D17949  13.767  29.474  18.388  0.0698  0.1172 -0.0046
  748BOLB   C2D17950  13.600  29.130  18.091  0.0437  0.1159 -0.0177
  748BOLB   C3D17951  13.551  28.737  17.903 -0.0435 -0.1095 -0.0289
  748BOLB   C4D17952  13.230  28.794  17.552  0.0360 -0.0428  0.0746
  749BOLB   NC117953  16.109  25.730  17.652 -0.1177 -0.0424  0.2650
  749BOLB   PO117954  15.724  25.657  17.522  0.1111 -0.2054 -0.1812
  749BOLB   GL117955  15.773  26.085  17.605 -0.1245 -0.0756  0.0851
  749BOLB   GL217956  15.922  26.232  17.928 -0.1563  0.1261  0.2291
  749BOLB   C1A17957  15.941  26.474  17.496 -0.0704 -0.2400  0.0582
  749BOLB   C2A17958  15.825  26.888  17.525 -0.2273  0.1809  0.1061
  749BOLB   C3A17959  15.957  27.316  17.570  0.1994  0.0363  0.1686
  749BOLB   C4A17960  15.944  27.606  17.901 -0.0533  0.0297  0.1494
  749BOLB   C1B17961  16.169  26.635  18.084  0.2632 -0.1941  0.0549
  749BOLB   C2B17962  16.277  26.864  17.776  0.2435  0.0409  0.0622
  749BOLB   C3B17963  16.403  27.272  17.779  0.5236 -0.1367 -0.0209
  749BOLB   C4B17964  16.396  27.684  17.662  0.3047 -0.2633  0.0186
  749BOLB   NC217965  16.909  29.281  19.340 -0.0520 -0.1703  0.0352
  749BOLB   PO217966  16.488  29.322  19.554  0.0248  0.1503  0.0760
  749BOLB   GL317967  16.508  29.016  19.290  0.0715  0.0356  0.1841
  749BOLB   GL417968  16.744  28.892  18.990  0.1725 -0.1691  0.0302
  749BOLB   C1C17969  16.228  28.813  18.942 -0.1627 -0.1206 -0.0547
  749BOLB   C2C17970  16.125  28.463  18.747  0.0756 -0.2990  0.3164
  749BOLB   C3C17971  15.970  28.092  18.480 -0.0525  0.2024 -0.0832
  749BOLB   C4C17972  15.740  27.768  18.238 -0.1824 -0.0590 -0.0277
  749BOLB   C1D17973  17.039  28.622  18.932 -0.2487  0.2731  0.2277
  749BOLB   C2D17974  17.027  28.280  18.667 -0.2680  0.2137  0.1134
  749BOLB   C3D17975  17.171  27.950  18.340  0.1969  0.0696  0.0088
  749BOLB   C4D17976  17.455  27.780  18.138  0.1135 -0.3633 -0.3498
  750BOLB   NC117977  18.595  25.089  17.588  0.1688 -0.1289 -0.3573
  750BOLB   PO117978  18.577  25.410  17.335 -0.0789 -0.1176  0.0268
  750BOLB   GL117979  18.401  25.618  17.583  0.0916  0.2667 -0.2395
  750BOLB   GL217980  18.617  25.768  17.825 -0.0181 -0.0053  0.0148
  750BOLB   C1A17981  18.305  26.032  17.523 -0.0511  0.0670 -0.2107
  750BOLB   C2A17982  18.155  26.461  17.532  0.2659 -0.0579  0.1183
  750BOLB   C3A17983  18.178  26.795  17.656 -0.0915  0.0048 -0.0621
  750BOLB   C4A17984  18.121  27.231  17.713 -0.0636  0.1974  0.3089
  750BOLB   C1B17985  18.461  26.168  17.957  0.4307  0.2235 -0.0008
  750BOLB   C2B17986  18.217  26.440  18.020 -0.1481 -0.0521 -0.2734
  750BOLB   C3B17987  18.253  26.919  18.148 -0.2016  0.0125 -0.1765
  750BOLB   C4B17988  18.085  26.950  18.558  0.0942  0.3560 -0.1536
  750BOLB   NC217989  17.783  29.748  18.561  0.0615 -0.0114 -0.1218
  750BOLB   PO217990  18.088  29.329  18.607 -0.0560 -0.0075 -0.1432
  750BOLB   GL317991  17.973  28.916  18.439 -0.1742 -0.2141 -0.4979
  750BOLB   GL417992  17.930  28.856  18.736 -0.2542 -0.0321  0.1995
  750BOLB   C1C17993  17.992  28.642  18.097  0.1623  0.1068 -0.2166
  750BOLB   C2C17994  17.980  28.420  17.731  0.1998  0.0817 -0.1947
  750BOLB   C3C17995  17.910  27.969  17.815  0.0577 -0.1452 -0.1539
  750BOLB   C4C17996  17.915  27.597  17.739 -0.0898 -0.3832 -0.1519
  750BOLB   C1D17997  17.626  28.497  18.442  0.0617 -0.0996  0.0863
  750BOLB   C2D17998  17.335  28.354  18.111 -0.0488  0.1444 -0.0713
  750BOLB   C3D17999  17.248  28.164  17.704 -0.0959  0.0123 -0.0804
  750BOLB   C4D18000  17.551  27.990  17.502 -0.1913  0.0938  0.0058
  751BOLB   NC118001  23.162  25.791  19.398  0.1060 -0.2594  0.0658
  751BOLB   PO118002  22.748  25.976  19.349 -0.0974  0.2562  0.0143
  751BOLB   GL118003  22.364  25.760  19.566  0.4279  0.1845  0.1383
  751BOLB   GL218004  22.401  25.382  19.725  0.0478 -0.0651  0.3792
  751BOLB   C1A18005  21.927  25.875  19.781  0.4067 -0.0222  0.0262
  751BOLB   C2A18006  21.796  26.014  20.207 -0.0895  0.1226 -0.4527
  751BOLB   C3A18007  21.410  25.954  20.437 -0.0730  0.0739 -0.2927
  751BOLB   C4A18008  21.563  25.809  20.974  0.1056  0.3188  0.1728
  751BOLB   C1B18009  21.961  25.373  19.856  0.1153  0.0062  0.1574
  751BOLB   C2B18010  21.632  25.420  20.133  0.0993  0.2132  0.0857
  751BOLB   C3B18011  21.281  25.190  20.271  0.2115  0.3331 -0.0147
  751BOLB   C4B18012  20.910  25.280  20.598  0.0308 -0.0612  0.1973
  751BOLB   NC218013  22.212  26.786  23.282  0.4531  0.1267  0.0722
  751BOLB   PO218014  21.807  26.926  23.264  0.2183 -0.1605 -0.2078
  751BOLB   GL318015  21.841  26.614  22.963 -0.1159  0.4880  0.1455
  751BOLB   GL418016  21.769  26.388  23.040  0.1234  0.2486 -0.2356
  751BOLB   C1C18017  21.663  26.540  22.483 -0.0312 -0.2947  0.0427
  751BOLB   C2C18018  21.677  26.383  22.029  0.2873  0.1356 -0.1602
  751BOLB   C3C18019  21.539  26.211  21.667  0.3064 -0.0086 -0.1476
  751BOLB   C4C18020  21.576  25.848  21.483  0.1438  0.2931 -0.0152
  751BOLB   C1D18021  21.949  26.044  22.867 -0.0005 -0.3329  0.1386
  751BOLB   C2D18022  21.991  25.696  22.975  0.0057  0.0794  0.2496
  751BOLB   C3D18023  22.154  25.253  22.825  0.2826  0.1031 -0.0633
  751BOLB   C4D18024  21.884  25.018  22.511  0.1250  0.5741  0.0870
  752BOLB   NC118025  13.635  25.481  19.857 -0.0273  0.1770 -0.3426
  752BOLB   PO118026  13.528  25.159  20.113  0.0310  0.0616 -0.0034
  752BOLB   GL118027  13.535  25.609  20.373  0.1670  0.0416  0.0391
  752BOLB   GL218028  13.558  25.857  20.184  0.0591 -0.2408  0.0031
  752BOLB   C1A18029  13.426  25.839  20.703 -0.0303  0.0984 -0.1532
  752BOLB   C2A18030  13.068  25.952  21.118 -0.0924  0.0133 -0.2673
  752BOLB   C3A18031  12.856  26.174  21.510  0.1327  0.0864 -0.2259
  752BOLB   C4A18032  12.917  26.342  21.883 -0.0867  0.2224  0.3144
  752BOLB   C1B18033  13.569  26.186  20.281  0.2296 -0.1428 -0.1142
  752BOLB   C2B18034  13.350  26.312  20.729  0.0925  0.1808 -0.1044
  752BOLB   C3B18035  13.401  26.316  21.093 -0.1494  0.1952 -0.0255
  752BOLB   C4B18036  13.354  26.339  21.566  0.2902 -0.0984  0.2958
  752BOLB   NC218037  13.115  28.096  23.638 -0.1515  0.1050 -0.1312
  752BOLB   PO218038  13.268  27.765  23.911 -0.2495  0.0148 -0.2154
  752BOLB   GL318039  13.296  27.542  23.500 -0.0722 -0.0647 -0.2499
  752BOLB   GL418040  13.584  27.422  23.319  0.4101 -0.0532 -0.1958
  752BOLB   C1C18041  13.133  27.192  23.270 -0.1981 -0.0640  0.3351
  752BOLB   C2C18042  12.963  26.973  22.907  0.0192  0.2948  0.2141
  752BOLB   C3C18043  12.902  26.810  22.567 -0.0726 -0.0823 -0.1424
  752BOLB   C4C18044  12.818  26.627  22.138  0.2872  0.0637  0.3217
  752BOLB   C1D18045  13.582  26.956  23.303  0.2469 -0.0983 -0.1005
  752BOLB   C2D18046  13.587  26.573  23.159 -0.2580  0.0156  0.2086
  752BOLB   C3D18047  13.650  26.410  22.753 -0.1200  0.1739  0.0121
  752BOLB   C4D18048  13.892  26.277  22.352  0.3254 -0.0444  0.1520
  753BOLB   NC118049  13.002  25.343  19.508 -0.2805  0.0401 -0.1931
  753BOLB   PO118050  12.982  25.732  19.614 -0.3683  0.1137 -0.2950
  753BOLB   GL118051  12.747  25.897  19.980 -0.3283  0.4474  0.0507
  753BOLB   GL218052  13.003  25.989  20.092  0.2666 -0.1665 -0.2075
  753BOLB   C1A18053  12.569  26.381  20.106 -0.0404  0.0778 -0.3510
  753BOLB   C2A18054  12.798  26.783  20.276  0.1668 -0.0941 -0.5173
  753BOLB   C3A18055  13.016  27.210  20.422 -0.3173  0.0897 -0.0318
  753BOLB   C4A18056  13.343  27.452  20.507 -0.2231  0.0093  0.4260
  753BOLB   C1B18057  13.064  26.347  20.276 -0.2281 -0.0563 -0.2974
  753BOLB   C2B18058  13.122  26.736  20.601 -0.2073  0.0956  0.0483
  753BOLB   C3B18059  13.321  26.833  20.985 -0.0383 -0.1838 -0.0668
  753BOLB   C4B18060  13.588  26.747  21.421  0.1223  0.0347  0.2085
  753BOLB   NC218061  13.772  29.261  20.610 -0.0242  0.1775 -0.2313
  753BOLB   PO218062  13.855  29.501  20.978  0.0849 -0.0443  0.0335
  753BOLB   GL318063  14.152  29.079  20.907 -0.2156  0.1175 -0.1778
  753BOLB   GL418064  13.980  28.844  20.793 -0.0581 -0.6806 -0.1461
  753BOLB   C1C18065  14.357  28.630  21.020 -0.1666  0.0080 -0.1908
  753BOLB   C2C18066  14.283  28.200  20.823 -0.4046  0.2231  0.1288
  753BOLB   C3C18067  14.217  27.888  20.486  0.1643 -0.1673 -0.0585
  753BOLB   C4C18068  13.835  27.575  20.481 -0.0927 -0.3150  0.0613
  753BOLB   C1D18069  13.927  28.495  20.568 -0.2123  0.1690 -0.0749
  753BOLB   C2D18070  13.819  28.114  20.385  0.2894 -0.1421 -0.3387
  753BOLB   C3D18071  13.971  27.768  20.030 -0.0127 -0.1413  0.2346
  753BOLB   C4D18072  13.754  27.611  19.691  0.0839  0.2288 -0.1053
  754BOLB   NC118073  20.524  24.725  16.870  0.0126  0.0467  0.1441
  754BOLB   PO118074  20.128  24.990  16.924  0.1753  0.0169 -0.3254
  754BOLB   GL118075  19.906  25.374  16.824  0.1758  0.1812 -0.1845
  754BOLB   GL218076  19.909  25.487  17.162 -0.1094 -0.0410 -0.2191
  754BOLB   C1A18077  19.820  25.778  16.637  0.2552  0.0322  0.0703
  754BOLB   C2A18078  19.771  26.221  16.777  0.3485 -0.0259 -0.2303
  754BOLB   C3A18079  19.513  26.508  16.787  0.2697  0.1508 -0.0215
  754BOLB   C4A18080  19.553  26.912  17.004 -0.1570  0.1793  0.0845
  754BOLB   C1B18081  20.182  25.627  17.529  0.0506 -0.3092 -0.2390
  754BOLB   C2B18082  20.275  25.652  17.974 -0.1024 -0.1642  0.1479
  754BOLB   C3B18083  20.002  25.866  18.175 -0.1012  0.0666 -0.1065
  754BOLB   C4B18084  19.623  25.883  18.499 -0.0841 -0.0710  0.1362
  754BOLB   NC218085  19.941  28.767  16.103  0.0555 -0.0453  0.0928
  754BOLB   PO218086  19.726  28.983  16.479 -0.0410 -0.1533  0.0153
  754BOLB   GL318087  19.813  28.677  16.830 -0.0297  0.0607  0.0369
  754BOLB   GL418088  20.081  28.467  16.749 -0.0683 -0.2095  0.0272
  754BOLB   C1C18089  19.505  28.357  17.036 -0.0650  0.3788 -0.0808
  754BOLB   C2C18090  19.254  27.976  17.152 -0.1367  0.2696  0.1912
  754BOLB   C3C18091  19.150  27.551  17.150  0.0485 -0.2037  0.3593
  754BOLB   C4C18092  19.371  27.242  17.179  0.4812 -0.0918  0.1997
  754BOLB   C1D18093  19.964  28.160  16.822 -0.3337  0.0253 -0.0420
  754BOLB   C2D18094  19.689  27.763  16.920  0.1543 -0.1532  0.0321
  754BOLB   C3D18095  19.607  27.361  16.720  0.0632 -0.3689 -0.2467
  754BOLB   C4D18096  19.333  27.229  16.325  0.2364  0.3554 -0.0263
  755BOLB   NC118097  14.971  25.271  17.396  0.0516  0.1281 -0.3105
  755BOLB   PO118098  14.679  25.771  17.345 -0.2346  0.0171 -0.1562
  755BOLB   GL118099  14.669  26.051  17.084 -0.5326 -0.0329  0.1795
  755BOLB   GL218100  14.342  26.026  16.800 -0.2101 -0.1454 -0.1070
  755BOLB   C1A18101  14.778  26.399  17.025  0.1898 -0.2206 -0.2764
  755BOLB   C2A18102  15.121  26.737  16.977 -0.2076  0.1982  0.0018
  755BOLB   C3A18103  14.935  27.212  16.980  0.1177  0.2181  0.2390
  755BOLB   C4A18104  15.098  27.716  16.824  0.0756  0.0082  0.1845
  755BOLB   C1B18105  14.270  26.463  16.969 -0.1595  0.1128 -0.1067
  755BOLB   C2B18106  14.568  26.834  16.892  0.1225 -0.3912 -0.1055
  755BOLB   C3B18107  14.528  27.077  16.685  0.1274 -0.2325  0.0652
  755BOLB   C4B18108  14.544  27.549  16.813 -0.3636 -0.0409  0.1459
  755BOLB   NC218109  15.283  30.088  17.574 -0.0080 -0.0717  0.4098
  755BOLB   PO218110  15.638  29.939  17.678  0.1165 -0.0317 -0.0639
  755BOLB   GL318111  15.525  29.623  17.505 -0.0940  0.2212 -0.2401
  755BOLB   GL418112  15.669  29.568  17.253 -0.0074  0.0572 -0.1843
  755BOLB   C1C18113  15.243  29.318  17.419  0.1344 -0.1341  0.0574
  755BOLB   C2C18114  15.052  28.836  17.234 -0.1982 -0.1096 -0.1924
  755BOLB   C3C18115  15.189  28.394  17.147 -0.0155 -0.0875 -0.1025
  755BOLB   C4C18116  15.188  28.103  16.859 -0.0255  0.2487  0.3008
  755BOLB   C1D18117  15.734  29.078  17.350  0.5242  0.0826 -0.0413
  755BOLB   C2D18118  16.041  28.867  17.128  0.0007  0.1148  0.0456
  755BOLB   C3D18119  16.243  28.438  17.182  0.0829  0.0918 -0.1915
  755BOLB   C4D18120  16.094  28.149  17.499 -0.1847  0.1658 -0.1858
  756BOLB   NC118121  17.620  24.922  18.879  0.0656  0.0564 -0.1948
  756BOLB   PO118122  17.869  25.005  19.173  0.4369  0.0629  0.2261
  756BOLB   GL118123  18.056  25.380  19.370  0.0105 -0.2183  0.1544
  756BOLB   GL218124  18.396  25.424  19.416  0.2562  0.4477 -0.3060
  756BOLB   C1A18125  17.949  25.812  19.491  0.1116  0.2629  0.0830
  756BOLB   C2A18126  17.751  26.186  19.706 -0.2306  0.1229 -0.0359
  756BOLB   C3A18127  17.787  26.359  19.964 -0.0896 -0.1146  0.2046
  756BOLB   C4A18128  17.794  26.594  20.316  0.1384 -0.0906 -0.2153
  756BOLB   C1B18129  18.468  25.869  19.411 -0.1410  0.2619 -0.1427
  756BOLB   C2B18130  18.508  26.283  19.392 -0.3380 -0.1065  0.1456
  756BOLB   C3B18131  18.548  26.689  19.461 -0.2516  0.0796 -0.1682
  756BOLB   C4B18132  18.569  26.933  19.857  0.4368 -0.1055  0.0814
  756BOLB   NC218133  17.497  28.185  22.477  0.2183 -0.1225  0.3394
  756BOLB   PO218134  17.402  28.055  22.037 -0.1260 -0.0388  0.3350
  756BOLB   GL318135  17.159  27.775  21.850 -0.2684  0.3488  0.2029
  756BOLB   GL418136  16.856  27.816  21.808 -0.2114 -0.2149  0.2937
  756BOLB   C1C18137  17.099  27.421  21.567  0.3361  0.0479  0.1399
  756BOLB   C2C18138  17.325  27.077  21.363 -0.0503  0.0523  0.0327
  756BOLB   C3C18139  17.374  26.749  21.168 -0.1630 -0.0968  0.1173
  756BOLB   C4C18140  17.391  26.737  20.645  0.0255 -0.1958  0.2684
  756BOLB   C1D18141  16.535  27.564  21.580 -0.2919  0.0025  0.2709
  756BOLB   C2D18142  16.148  27.327  21.681  0.2093 -0.0732 -0.0758
  756BOLB   C3D18143  15.967  27.469  21.969  0.1700  0.0414  0.0467
  756BOLB   C4D18144  15.751  27.815  22.194  0.0162  0.3303  0.1628
  757BOLB   NC118145  19.429  24.396  19.232  0.1962 -0.0838 -0.3813
  757BOLB   PO118146  19.171  24.787  19.186 -0.0906  0.1917  0.2189
  757BOLB   GL118147  19.215  25.104  19.475  0.1331  0.0608 -0.1210
  757BOLB   GL218148  18.842  25.061  19.692  0.2415  0.1886  0.2520
  757BOLB   C1A18149  19.375  25.584  19.541  0.0288  0.0682 -0.1528
  757BOLB   C2A18150  19.422  25.962  19.424 -0.2454 -0.1671  0.4466
  757BOLB   C3A18151  19.246  26.340  19.111  0.0346  0.0901  0.3153
  757BOLB   C4A18152  19.458  26.774  19.010 -0.0737  0.2391 -0.0190
  757BOLB   C1B18153  18.848  25.540  19.644 -0.1403 -0.1222  0.1628
  757BOLB   C2B18154  19.091  25.906  19.806  0.0967 -0.3505 -0.1192
  757BOLB   C3B18155  19.294  26.257  19.862 -0.3092  0.2892 -0.1285
  757BOLB   C4B18156  19.538  26.651  19.769  0.2279  0.1937 -0.2559
  757BOLB   NC218157  19.042  29.172  19.206  0.1540  0.1766  0.1089
  757BOLB   PO218158  18.728  28.881  19.409  0.3267  0.2199  0.3170
  757BOLB   GL318159  18.895  28.477  19.487  0.1401  0.0035  0.2036
  757BOLB   GL418160  18.858  28.339  19.753  0.0291  0.1625  0.1693
  757BOLB   C1C18161  18.849  28.144  19.260 -0.2291  0.3086 -0.1470
  757BOLB   C2C18162  18.908  27.831  18.983  0.0458 -0.2559 -0.3183
  757BOLB   C3C18163  19.099  27.477  19.129 -0.0072 -0.1822  0.2390
  757BOLB   C4C18164  19.287  27.093  19.012 -0.1568 -0.2757  0.1718
  757BOLB   C1D18165  18.971  27.860  19.694 -0.1137  0.1427 -0.0945
  757BOLB   C2D18166  19.106  27.388  19.843  0.2339  0.3250  0.3797
  757BOLB   C3D18167  19.027  27.107  20.079 -0.2217 -0.0422  0.1081
  757BOLB   C4D18168  19.181  26.693  20.132  0.2370 -0.0804  0.4270
  758BOLB   NC118169  14.304  25.677  18.198  0.0109 -0.2754  0.3437
  758BOLB   PO118170  14.636  25.877  18.344 -0.0339  0.3912  0.1926
  758BOLB   GL118171  14.815  26.139  18.591 -0.2122  0.1816 -0.0231
  758BOLB   GL218172  14.931  26.359  18.403  0.2514  0.1776 -0.0027
  758BOLB   C1A18173  15.197  26.359  18.858  0.1462  0.1328 -0.3204
  758BOLB   C2A18174  15.333  26.732  19.215 -0.1528 -0.1497  0.0591
  758BOLB   C3A18175  15.238  27.117  19.358 -0.0838  0.2889 -0.1275
  758BOLB   C4A18176  15.324  27.479  19.358  0.1311 -0.1723 -0.0150
  758BOLB   C1B18177  14.952  26.722  18.243 -0.2393  0.1036  0.2531
  758BOLB   C2B18178  15.165  26.919  17.922  0.1721  0.1792 -0.1631
  758BOLB   C3B18179  15.331  26.905  17.417  0.1468  0.1377 -0.0872
  758BOLB   C4B18180  15.612  27.228  17.257  0.2595 -0.1401 -0.0149
  758BOLB   NC218181  15.647  29.972  19.376  0.1714 -0.1383  0.2005
  758BOLB   PO218182  15.363  29.945  19.625  0.5564  0.1154 -0.4023
  758BOLB   GL318183  15.136  29.535  19.620 -0.1522  0.1925  0.1460
  758BOLB   GL418184  14.833  29.536  19.577 -0.3063 -0.0677  0.4389
  758BOLB   C1C18185  15.180  29.090  19.498 -0.2408  0.1853  0.0902
  758BOLB   C2C18186  15.410  28.746  19.358  0.2242 -0.3682 -0.2950
  758BOLB   C3C18187  15.367  28.342  19.242 -0.1250  0.1411 -0.0935
  758BOLB   C4C18188  15.504  27.917  19.282 -0.1652 -0.1354 -0.1400
  758BOLB   C1D18189  14.700  29.190  19.608 -0.1165  0.0166  0.2880
  758BOLB   C2D18190  14.889  28.837  19.194 -0.0859  0.2132 -0.1129
  758BOLB   C3D18191  14.668  28.376  19.170 -0.0391 -0.1513 -0.4327
  758BOLB   C4D18192  14.445  28.056  19.282 -0.0776  0.1471 -0.1949
  759BOLB   NC118193  20.541  24.687  18.241 -0.2604 -0.2820  0.0032
  759BOLB   PO118194  20.895  25.010  18.087 -0.1759  0.1383 -0.2566
  759BOLB   GL118195  20.773  25.441  17.948  0.2920 -0.0575 -0.0722
  759BOLB   GL218196  20.679  25.548  17.677  0.1107 -0.1934  0.2197
  759BOLB   C1A18197  20.788  25.891  18.084 -0.1813 -0.2455  0.0563
  759BOLB   C2A18198  20.541  26.137  18.248  0.2118 -0.1798 -0.1919
  759BOLB   C3A18199  20.040  26.359  18.295  0.1364  0.0996 -0.4712
  759BOLB   C4A18200  19.930  26.798  18.279  0.1525 -0.1585  0.1162
  759BOLB   C1B18201  20.547  25.984  17.648  0.1101  0.0813 -0.2451
  759BOLB   C2B18202  20.125  26.139  17.730  0.1226  0.0079  0.0958
  759BOLB   C3B18203  19.770  26.420  17.842 -0.1585 -0.1510 -0.2214
  759BOLB   C4B18204  19.503  26.726  18.003 -0.0969  0.0702  0.0214
  759BOLB   NC218205  20.116  29.403  17.469  0.1712 -0.1523  0.0073
  759BOLB   PO218206  19.658  29.196  17.406  0.2125  0.0117  0.2230
  759BOLB   GL318207  19.828  28.711  17.603  0.0796 -0.0763  0.1262
  759BOLB   GL418208  19.925  28.745  18.008  0.0701  0.5066  0.1099
  759BOLB   C1C18209  20.054  28.246  17.748 -0.0730 -0.2865  0.3366
  759BOLB   C2C18210  19.875  27.885  17.749  0.3286  0.1428  0.0460
  759BOLB   C3C18211  19.916  27.451  17.815 -0.0746  0.3465 -0.1236
  759BOLB   C4C18212  19.884  27.145  18.048  0.1412  0.3582 -0.0298
  759BOLB   C1D18213  19.748  28.262  18.166  0.0388 -0.4079  0.1002
  759BOLB   C2D18214  19.442  28.042  18.489 -0.1618 -0.1247  0.1392
  759BOLB   C3D18215  19.229  27.617  18.640 -0.3522 -0.4015 -0.0235
  759BOLB   C4D18216  19.057  27.213  18.532  0.1112 -0.0283 -0.0042
  760BOLB   NC118217  19.277  25.368  17.957  0.0269 -0.1782 -0.2401
  760BOLB   PO118218  18.950  25.447  17.650 -0.0337  0.0579 -0.2282
  760BOLB   GL118219  19.136  25.828  17.668  0.0176 -0.4890  0.2158
  760BOLB   GL218220  18.898  25.898  17.436  0.0613 -0.0408  0.0110
  760BOLB   C1A18221  19.338  26.305  17.682 -0.0037 -0.2834 -0.0871
  760BOLB   C2A18222  19.122  26.687  17.667  0.1376  0.1331  0.4694
  760BOLB   C3A18223  19.096  27.117  17.652 -0.1511  0.0205  0.3593
  760BOLB   C4A18224  19.005  27.608  17.765 -0.1956 -0.0024 -0.0819
  760BOLB   C1B18225  18.855  26.242  17.544  0.1173  0.0200 -0.1775
  760BOLB   C2B18226  18.665  26.536  17.663 -0.1251 -0.0551  0.3650
  760BOLB   C3B18227  18.652  26.911  17.641 -0.0319 -0.0903 -0.0682
  760BOLB   C4B18228  18.626  27.318  17.479 -0.0721 -0.1525  0.3521
  760BOLB   NC218229  17.980  29.821  17.564  0.0331 -0.1374  0.1745
  760BOLB   PO218230  18.120  29.426  17.373 -0.1517 -0.0828  0.4667
  760BOLB   GL318231  17.974  29.130  17.174 -0.0473 -0.0256 -0.0621
  760BOLB   GL418232  18.160  29.067  16.828 -0.0043  0.0709 -0.1199
  760BOLB   C1C18233  18.074  28.578  17.115 -0.1426  0.0187 -0.1531
  760BOLB   C2C18234  18.156  28.170  17.325  0.2137 -0.4104  0.0095
  760BOLB   C3C18235  18.416  28.087  17.678  0.2227 -0.3158  0.2117
  760BOLB   C4C18236  18.819  28.031  17.802 -0.1108  0.2765  0.3789
  760BOLB   C1D18237  18.074  28.725  16.612 -0.0998  0.2959 -0.0373
  760BOLB   C2D18238  18.122  28.288  16.674  0.0241  0.4444  0.1431
  760BOLB   C3D18239  18.188  27.876  16.888  0.2798 -0.0076 -0.0500
  760BOLB   C4D18240  18.361  27.528  16.842 -0.0086  0.0187 -0.2962
  761BOLB   NC118241  12.425  25.753  19.628  0.2523  0.1615  0.0218
  761BOLB   PO118242  12.355  26.137  19.371  0.2405  0.1218  0.0089
  761BOLB   GL118243  12.802  26.185  19.522 -0.0074 -0.0558  0.0227
  761BOLB   GL218244  13.129  26.176  19.427  0.2665 -0.0752 -0.0329
  761BOLB   C1A18245  12.943  26.536  19.764 -0.0003 -0.0013 -0.1101
  761BOLB   C2A18246  13.005  27.042  19.861 -0.2110  0.1019 -0.0168
  761BOLB   C3A18247  13.166  27.491  20.025  0.3698 -0.0377 -0.2429
  761BOLB   C4A18248  13.440  27.745  20.127 -0.0732  0.2321  0.2193
  761BOLB   C1B18249  13.482  26.540  19.380 -0.5314  0.0028 -0.2703
  761BOLB   C2B18250  13.434  26.819  19.650  0.1681 -0.2351 -0.2213
  761BOLB   C3B18251  13.393  27.247  19.615  0.0701 -0.0080  0.3123
  761BOLB   C4B18252  13.237  27.690  19.561 -0.1898 -0.1010 -0.2992
  761BOLB   NC218253  13.781  30.585  19.371  0.0452  0.0265  0.0647
  761BOLB   PO218254  13.728  30.096  19.354 -0.0145 -0.1838  0.1700
  761BOLB   GL318255  13.838  29.652  19.170 -0.1127  0.1285 -0.0602
  761BOLB   GL418256  13.737  29.658  18.835 -0.1118 -0.3760  0.1322
  761BOLB   C1C18257  13.819  29.281  19.162 -0.1541 -0.2403 -0.1709
  761BOLB   C2C18258  13.686  28.787  19.289 -0.2790 -0.5824 -0.1288
  761BOLB   C3C18259  13.697  28.337  19.448  0.0464  0.0156 -0.0570
  761BOLB   C4C18260  13.607  28.111  19.866  0.0127 -0.3589  0.0859
  761BOLB   C1D18261  14.185  29.409  18.830  0.1087 -0.1316  0.3306
  761BOLB   C2D18262  14.550  29.189  18.856  0.1617  0.0927  0.2934
  761BOLB   C3D18263  14.591  28.764  18.830  0.0208  0.0052  0.4440
  761BOLB   C4D18264  14.683  28.447  18.542  0.3226  0.0427  0.1908
  762BOLB   NC118265  21.183  24.974  18.477  0.3327 -0.0494 -0.1499
  762BOLB   PO118266  21.258  25.156  18.870 -0.1311  0.1209  0.0504
  762BOLB   GL118267  21.100  25.515  18.731  0.2272 -0.0841 -0.1703
  762BOLB   GL218268  20.924  25.438  18.489  0.0644  0.0424 -0.2281
  762BOLB   C1A18269  20.970  25.949  18.569 -0.0649  0.0085  0.1866
  762BOLB   C2A18270  20.675  26.280  18.710 -0.1628  0.2399  0.3295
  762BOLB   C3A18271  20.317  26.487  18.693  0.2871 -0.0244  0.1332
  762BOLB   C4A18272  19.902  26.695  18.773 -0.4013  0.0997 -0.1313
  762BOLB   C1B18273  20.486  25.533  18.592  0.3420  0.4014 -0.3196
  762BOLB   C2B18274  20.286  25.944  18.609 -0.0548 -0.2830 -0.1897
  762BOLB   C3B18275  19.945  26.208  18.812 -0.0840 -0.2216 -0.0570
  762BOLB   C4B18276  19.715  25.999  18.990 -0.0803 -0.0941 -0.0909
  762BOLB   NC218277  18.561  29.215  18.435 -0.1298  0.0015 -0.0878
  762BOLB   PO218278  18.713  29.039  18.851  0.0256  0.2227  0.1893
  762BOLB   GL318279  18.956  28.708  18.928 -0.0442 -0.2188  0.1629
  762BOLB   GL418280  18.799  28.477  18.899  0.1742  0.0662 -0.0446
  762BOLB   C1C18281  19.285  28.381  18.908  0.0618  0.1186  0.0720
  762BOLB   C2C18282  19.417  27.945  19.000 -0.0411  0.2161  0.1991
  762BOLB   C3C18283  19.608  27.542  18.955 -0.1071  0.0695 -0.3189
  762BOLB   C4C18284  19.832  27.159  18.889 -0.0626 -0.2334  0.0146
  762BOLB   C1D18285  18.489  28.167  18.927 -0.2540  0.1020  0.1388
  762BOLB   C2D18286  18.302  27.928  18.531 -0.1488  0.2595 -0.0432
  762BOLB   C3D18287  18.289  27.807  18.102  0.1826 -0.2110 -0.0702
  762BOLB   C4D18288  18.501  27.607  17.882 -0.1145 -0.1536 -0.0725
  763BOLB   NC118289  13.254  25.174  19.108 -0.3556  0.4092  0.2929
  763BOLB   PO118290  13.509  25.499  19.406 -0.2069  0.1115  0.0051
  763BOLB   GL118291  13.561  25.905  19.583  0.2721 -0.1109  0.0266
  763BOLB   GL218292  13.602  26.043  19.427  0.0530  0.1168  0.0309
  763BOLB   C1A18293  13.846  26.127  19.901  0.2154 -0.0652 -0.0813
  763BOLB   C2A18294  13.972  26.475  20.146 -0.3330  0.1136  0.0681
  763BOLB   C3A18295  14.038  26.766  20.466 -0.1344  0.2744  0.1879
  763BOLB   C4A18296  14.177  27.125  20.606 -0.1264  0.1684 -0.1547
  763BOLB   C1B18297  13.361  26.292  19.822  0.2691  0.1118  0.2783
  763BOLB   C2B18298  13.463  26.621  20.131 -0.1706  0.3189  0.1799
  763BOLB   C3B18299  13.526  26.922  20.412 -0.1859  0.1663 -0.1174
  763BOLB   C4B18300  13.654  27.121  20.786  0.0938  0.1096  0.1667
  763BOLB   NC218301  13.837  29.338  22.242 -0.2541 -0.0934  0.1763
  763BOLB   PO218302  13.758  28.850  22.352 -0.1839 -0.2411 -0.0924
  763BOLB   GL318303  13.942  28.578  22.084  0.3235  0.1617  0.0232
  763BOLB   GL418304  14.022  28.342  22.198  0.1535 -0.1114 -0.2066
  763BOLB   C1C18305  13.999  28.563  21.672  0.1679 -0.1375 -0.0722
  763BOLB   C2C18306  14.001  28.096  21.428 -0.2544  0.0735 -0.1054
  763BOLB   C3C18307  14.047  27.818  21.078  0.4102 -0.1103  0.2103
  763BOLB   C4C18308  14.151  27.428  21.009 -0.3233  0.1776  0.2119
  763BOLB   C1D18309  14.088  27.946  22.277  0.2303 -0.0146  0.0461
  763BOLB   C2D18310  14.056  27.533  22.151 -0.0639 -0.3628 -0.0851
  763BOLB   C3D18311  13.884  27.127  22.279  0.0032  0.0734 -0.2045
  763BOLB   C4D18312  13.731  26.790  22.099 -0.2306  0.1475  0.1462
  764BOLB   NC118313  12.722  26.349  17.955  0.2634  0.1369  0.0059
  764BOLB   PO118314  12.631  26.717  17.784 -0.4194  0.0140 -0.0324
  764BOLB   GL118315  13.064  26.743  17.725  0.3486  0.4234  0.0617
  764BOLB   GL218316  13.299  26.857  17.548 -0.1749 -0.0428 -0.3249
  764BOLB   C1A18317  13.451  26.821  18.084  0.0544 -0.0090  0.0200
  764BOLB   C2A18318  13.719  27.234  18.262  0.0694 -0.2421  0.0089
  764BOLB   C3A18319  13.798  27.507  18.564  0.0216 -0.0116  0.1362
  764BOLB   C4A18320  13.758  27.885  18.757 -0.3454  0.0567 -0.0147
  764BOLB   C1B18321  13.182  27.252  17.548 -0.1996  0.1465  0.2069
  764BOLB   C2B18322  13.161  27.654  17.735 -0.1420  0.2990  0.0747
  764BOLB   C3B18323  13.462  27.907  17.727 -0.1393  0.0202 -0.2035
  764BOLB   C4B18324  13.912  27.972  17.469  0.1570 -0.2151 -0.1490
  764BOLB   NC218325  12.576  29.569  19.943  0.0736  0.1663  0.4261
  764BOLB   PO218326  12.538  29.170  19.913  0.0472  0.3416 -0.1316
  764BOLB   GL318327  12.817  29.047  19.544 -0.1115  0.4691 -0.1031
  764BOLB   GL418328  12.805  28.726  19.702  0.2880  0.2991  0.0462
  764BOLB   C1C18329  13.124  29.156  19.187  0.1202 -0.0473 -0.1940
  764BOLB   C2C18330  13.482  29.038  18.906  0.4338  0.0816  0.2115
  764BOLB   C3C18331  13.583  28.621  18.836 -0.1064  0.1501 -0.2259
  764BOLB   C4C18332  13.637  28.227  18.899  0.0184  0.0611  0.2496
  764BOLB   C1D18333  12.673  28.496  20.077  0.5409 -0.1017 -0.0356
  764BOLB   C2D18334  12.419  28.296  20.452  0.2319  0.2606  0.0827
  764BOLB   C3D18335  12.614  27.966  20.637 -0.2528 -0.1826 -0.0970
  764BOLB   C4D18336  12.945  27.572  20.760 -0.1736  0.1798 -0.3707
  765BOLB   NC118337  22.263  25.699  19.004  0.2291  0.3021 -0.1005
  765BOLB   PO118338  22.223  25.267  19.252 -0.0326 -0.1552  0.1314
  765BOLB   GL118339  21.800  25.520  19.342  0.2420 -0.2350 -0.2103
  765BOLB   GL218340  21.416  25.525  19.153 -0.3562  0.3459  0.0577
  765BOLB   C1A18341  21.566  25.599  19.613  0.1257  0.1499  0.3684
  765BOLB   C2A18342  21.210  25.533  19.890 -0.0712  0.0927 -0.2445
  765BOLB   C3A18343  20.987  25.682  20.251  0.0529 -0.2322 -0.0076
  765BOLB   C4A18344  20.836  26.043  20.457  0.4528 -0.1098 -0.0985
  765BOLB   C1B18345  21.205  25.899  19.040 -0.0241  0.2117  0.0101
  765BOLB   C2B18346  20.797  26.009  19.131  0.2229  0.1688 -0.3088
  765BOLB   C3B18347  20.659  26.105  19.554  0.0173  0.2421  0.1640
  765BOLB   C4B18348  20.201  26.020  19.669 -0.0514 -0.3442  0.0097
  765BOLB   NC218349  21.700  27.782  21.738  0.0064  0.5015 -0.3274
  765BOLB   PO218350  22.000  27.818  21.412 -0.0654  0.1436 -0.1216
  765BOLB   GL318351  21.717  27.416  21.282  0.1561  0.1570  0.0173
  765BOLB   GL418352  21.500  27.739  21.284  0.0347  0.0485  0.2019
  765BOLB   C1C18353  21.356  27.122  21.342  0.2227 -0.0560  0.2170
  765BOLB   C2C18354  21.027  26.929  21.235 -0.1387  0.1999 -0.0200
  765BOLB   C3C18355  21.016  26.615  21.039  0.1692 -0.1229 -0.3054
  765BOLB   C4C18356  20.758  26.411  20.752  0.1853  0.2437 -0.0198
  765BOLB   C1D18357  21.287  27.522  20.968 -0.0784 -0.1450 -0.1039
  765BOLB   C2D18358  21.263  27.123  20.718 -0.1836 -0.2949 -0.2750
  765BOLB   C3D18359  21.403  26.675  20.720  0.1189 -0.0519  0.0555
  765BOLB   C4D18360  21.245  26.237  20.806 -0.0023 -0.2122  0.1591
  766BOLB   NC118361  18.029  25.264  18.782  0.2748  0.0780  0.1459
  766BOLB   PO118362  18.292  25.263  18.938  0.1770  0.1754  0.3846
  766BOLB   GL118363  18.186  25.719  19.001  0.0210  0.0687  0.1098
  766BOLB   GL218364  18.135  25.758  18.752  0.1652 -0.0043 -0.2082
  766BOLB   C1A18365  18.051  26.188  19.195  0.0156 -0.0553  0.2709
  766BOLB   C2A18366  18.089  26.544  19.423 -0.0389 -0.2856 -0.0165
  766BOLB   C3A18367  18.056  26.975  19.614 -0.4339 -0.1969  0.2187
  766BOLB   C4A18368  17.888  27.402  19.785 -0.0079 -0.4054  0.2994
  766BOLB   C1B18369  18.442  26.147  18.891  0.0664  0.1021  0.0926
  766BOLB   C2B18370  18.724  26.420  18.913 -0.0074 -0.1229 -0.0820
  766BOLB   C3B18371  18.885  26.828  19.102  0.1196  0.0885  0.0400
  766BOLB   C4B18372  18.822  27.204  19.470  0.1468 -0.1593  0.2584
  766BOLB   NC218373  18.821  29.143  21.092 -0.0419 -0.1820 -0.4391
  766BOLB   PO218374  18.693  28.694  20.991  0.0686  0.0580  0.0314
  766BOLB   GL318375  18.591  28.359  20.720 -0.1213 -0.0869  0.0943
  766BOLB   GL418376  18.662  28.076  20.896  0.1068 -0.0642  0.0938
  766BOLB   C1C18377  18.206  28.139  20.609 -0.1230  0.1649 -0.0164
  766BOLB   C2C18378  17.743  28.146  20.564  0.4602 -0.2343 -0.0055
  766BOLB   C3C18379  17.489  27.970  20.239  0.2153 -0.2632  0.0216
  766BOLB   C4C18380  17.610  27.787  19.861  0.1217  0.1539 -0.2471
  766BOLB   C1D18381  18.821  27.715  20.731  0.2461  0.2181  0.0496
  766BOLB   C2D18382  18.911  27.596  20.323 -0.0043  0.2459 -0.2518
  766BOLB   C3D18383  18.634  27.503  19.973  0.1617  0.1218  0.3441
  766BOLB   C4D18384  18.416  27.386  19.628  0.1571  0.3290  0.0274
  767BOLB   NC118385  17.326  25.466  16.378  0.2643  0.0591  0.1981
  767BOLB   PO118386  17.303  25.682  16.751 -0.1627 -0.0880 -0.0852
  767BOLB   GL118387  17.193  26.046  16.811 -0.1224  0.1980 -0.1508
  767BOLB   GL218388  17.165  26.156  16.525 -0.1307 -0.1540  0.0175
  767BOLB   C1A18389  17.331  26.541  16.920  0.0871  0.0290 -0.0425
  767BOLB   C2A18390  17.345  26.978  17.028 -0.2214 -0.1319 -0.0168
  767BOLB   C3A18391  17.652  27.328  16.937 -0.0088  0.1167 -0.0230
  767BOLB   C4A18392  17.702  27.745  17.087  0.0608  0.0183  0.4862
  767BOLB   C1B18393  17.068  26.457  16.288 -0.1680 -0.0702 -0.2302
  767BOLB   C2B18394  17.303  26.835  16.305  0.3657  0.1351 -0.0070
  767BOLB   C3B18395  17.309  27.240  16.585 -0.1245  0.2587 -0.0665
  767BOLB   C4B18396  17.295  27.703  16.757  0.1461  0.0128 -0.0362
  767BOLB   NC218397  17.768  30.210  17.934 -0.1158 -0.1387  0.2162
  767BOLB   PO218398  17.875  29.796  18.089 -0.0444  0.0464  0.0848
  767BOLB   GL318399  17.625  29.286  18.221 -0.3049  0.4065  0.0923
  767BOLB   GL418400  17.617  29.246  18.626  0.0340 -0.0548  0.2888
  767BOLB   C1C18401  17.537  28.928  18.090 -0.0210 -0.2134  0.2801
  767BOLB   C2C18402  17.538  28.719  17.789  0.1539  0.1901  0.3157
  767BOLB   C3C18403  17.646  28.549  17.369 -0.2894  0.0291  0.0060
  767BOLB   C4C18404  17.713  28.196  17.048 -0.1138  0.0941 -0.0947
  767BOLB   C1D18405  17.420  28.918  18.565  0.2552  0.1084  0.3442
  767BOLB   C2D18406  17.045  28.770  18.417  0.2023  0.0192  0.1828
  767BOLB   C3D18407  16.593  28.888  18.155  0.0576  0.1184  0.0278
  767BOLB   C4D18408  16.305  28.983  17.990 -0.2358  0.0317 -0.0440
  768BOLB   NC118409  12.037  25.500  19.300  0.0297  0.3211 -0.1492
  768BOLB   PO118410  11.728  25.638  19.641 -0.0511  0.2454  0.1822
  768BOLB   GL118411  11.897  25.701  20.045 -0.2245 -0.1267 -0.0449
  768BOLB   GL218412  12.190  25.874  20.085 -0.3119  0.3591  0.4462
  768BOLB   C1A18413  11.942  25.830  20.513 -0.0164 -0.0059  0.0237
  768BOLB   C2A18414  11.963  26.120  20.894 -0.0231  0.1056 -0.2278
  768BOLB   C3A18415  11.703  26.507  20.929 -0.3533 -0.0364 -0.0715
  768BOLB   C4A18416  11.602  26.960  20.936  0.1865 -0.1094 -0.3597
  768BOLB   C1B18417  12.407  26.033  20.449 -0.0695 -0.0451 -0.0425
  768BOLB   C2B18418  12.450  26.069  20.844 -0.0537 -0.1868  0.2440
  768BOLB   C3B18419  12.428  26.472  20.986  0.0800 -0.0456  0.1268
  768BOLB   C4B18420  12.456  26.859  21.343  0.1979 -0.1543 -0.1743
  768BOLB   NC218421  11.966  29.436  21.112 -0.0064 -0.3589  0.2181
  768BOLB   PO218422  12.279  29.154  21.400  0.0907  0.2793 -0.2106
  768BOLB   GL318423  12.325  28.705  21.473 -0.2468 -0.0365 -0.1290
  768BOLB   GL418424  12.376  28.641  21.791 -0.1099  0.2662  0.1468
  768BOLB   C1C18425  12.309  28.233  21.517  0.2159  0.0376  0.3748
  768BOLB   C2C18426  12.257  27.808  21.496 -0.3768 -0.0732  0.1650
  768BOLB   C3C18427  11.904  27.597  21.436  0.0856  0.3489 -0.0689
  768BOLB   C4C18428  11.688  27.383  21.079  0.1407  0.0435 -0.1771
  768BOLB   C1D18429  12.753  28.432  21.733 -0.0288 -0.1376  0.3046
  768BOLB   C2D18430  13.053  28.473  21.409  0.2499 -0.0367  0.1886
  768BOLB   C3D18431  13.329  28.501  21.064  0.0379 -0.0031 -0.1454
  768BOLB   C4D18432  13.432  28.634  20.662 -0.0506  0.2341  0.0350
  769BOLB   NC118433  18.193  24.755  20.072 -0.3105 -0.0252  0.2563
  769BOLB   PO118434  18.065  24.518  20.391 -0.0959 -0.2290  0.0138
  769BOLB   GL118435  18.081  24.847  20.618  0.1493 -0.0779  0.0767
  769BOLB   GL218436  18.464  24.958  20.518  0.1199  0.1270  0.0230
  769BOLB   C1A18437  18.144  25.289  20.774 -0.2292 -0.1670  0.1506
  769BOLB   C2A18438  18.321  25.581  21.018 -0.3154  0.0903  0.0215
  769BOLB   C3A18439  18.405  25.788  21.305 -0.2606  0.0106  0.0965
  769BOLB   C4A18440  18.662  26.043  21.529  0.1353  0.0273 -0.2951
  769BOLB   C1B18441  18.751  25.183  20.762  0.0218 -0.0961 -0.0164
  769BOLB   C2B18442  18.807  25.442  21.119 -0.2430  0.0829  0.0395
  769BOLB   C3B18443  18.869  25.851  21.143 -0.1271  0.1317 -0.1462
  769BOLB   C4B18444  19.106  26.099  21.341  0.1004  0.3042 -0.0612
  769BOLB   NC218445  19.920  28.236  22.213  0.1823  0.3308 -0.1380
  769BOLB   PO218446  20.013  27.884  22.391 -0.1614 -0.1909  0.1210
  769BOLB   GL318447  20.074  27.448  22.194 -0.2332  0.0055  0.0451
  769BOLB   GL418448  20.329  27.322  22.078  0.0729  0.0150 -0.0279
  769BOLB   C1C18449  19.804  27.124  22.001 -0.2882  0.1298 -0.2999
  769BOLB   C2C18450  19.634  26.814  21.704  0.1675 -0.0275  0.0751
  769BOLB   C3C18451  19.212  26.778  21.550  0.0156 -0.4810  0.2926
  769BOLB   C4C18452  18.812  26.494  21.439  0.1462  0.1762 -0.0205
  769BOLB   C1D18453  20.407  26.918  22.098  0.2201  0.2931  0.2747
  769BOLB   C2D18454  20.120  26.618  21.930 -0.1393  0.2416  0.2100
  769BOLB   C3D18455  19.806  26.368  21.702  0.4736 -0.0500  0.1435
  769BOLB   C4D18456  19.434  26.216  21.691  0.1757 -0.2746 -0.1122
  770BOLB   NC118457  22.563  24.559  19.360 -0.1947 -0.3643  0.2983
  770BOLB   PO118458  22.241  24.792  19.470 -0.0181 -0.0834  0.3069
  770BOLB   GL118459  22.316  24.910  19.937 -0.1277  0.0015 -0.2910
  770BOLB   GL218460  22.521  25.045  20.278 -0.0844 -0.1090  0.1465
  770BOLB   C1A18461  22.077  25.276  20.328  0.2810 -0.1830  0.2114
  770BOLB   C2A18462  21.861  25.697  20.599 -0.0116  0.0116 -0.0875
  770BOLB   C3A18463  22.139  25.883  21.026 -0.0321  0.0708 -0.2339
  770BOLB   C4A18464  22.415  26.183  21.176 -0.1126  0.3527 -0.0252
  770BOLB   C1B18465  22.533  25.507  20.232 -0.2322 -0.1157  0.0317
  770BOLB   C2B18466  22.363  25.941  20.292 -0.1304  0.1727 -0.1633
  770BOLB   C3B18467  22.179  26.383  20.155  0.1094  0.1804 -0.3239
  770BOLB   C4B18468  21.908  26.441  19.878 -0.1985  0.1398 -0.1559
  770BOLB   NC218469  22.478  27.848  20.022 -0.3616  0.0464  0.2547
  770BOLB   PO218470  22.701  27.511  19.733 -0.1354 -0.0609 -0.0386
  770BOLB   GL318471  22.510  27.188  19.990 -0.2448  0.0020  0.2500
  770BOLB   GL418472  22.292  27.353  20.199 -0.0309 -0.1999 -0.0968
  770BOLB   C1C18473  22.135  26.890  20.195 -0.1181 -0.0472  0.2607
  770BOLB   C2C18474  22.062  26.784  20.576  0.0155  0.0874  0.2939
  770BOLB   C3C18475  22.419  26.747  20.782  0.0077  0.2092 -0.2607
  770BOLB   C4C18476  22.515  26.598  21.184 -0.0002  0.2456  0.0094
  770BOLB   C1D18477  22.289  27.242  20.546 -0.0723  0.0877 -0.3811
  770BOLB   C2D18478  22.245  27.359  20.976  0.0718 -0.1523  0.1745
  770BOLB   C3D18479  22.265  27.132  21.328 -0.1695 -0.2344  0.2699
  770BOLB   C4D18480  22.189  26.811  21.498  0.2610  0.1098 -0.0462
  771BOLB   NC118481  14.674  24.231  21.717  0.0570 -0.0986 -0.0307
  771BOLB   PO118482  14.241  24.310  21.567 -0.0609 -0.0012  0.0435
  771BOLB   GL118483  14.579  24.723  21.650 -0.2972 -0.4531 -0.0952
  771BOLB   GL218484  14.638  24.881  21.324  0.1148  0.1107  0.1050
  771BOLB   C1A18485  14.767  25.045  21.812 -0.2269 -0.1748 -0.4490
  771BOLB   C2A18486  14.940  25.423  22.051  0.2608  0.0912  0.2629
  771BOLB   C3A18487  14.834  25.716  22.393 -0.0721 -0.1140  0.0209
  771BOLB   C4A18488  14.586  25.860  22.927 -0.2401 -0.1556 -0.4383
  771BOLB   C1B18489  14.670  25.368  21.445 -0.1705  0.5239  0.0003
  771BOLB   C2B18490  14.768  25.762  21.711  0.1541  0.2010 -0.0019
  771BOLB   C3B18491  14.770  26.070  21.894 -0.1493 -0.1696  0.1455
  771BOLB   C4B18492  14.730  26.249  22.268 -0.2846  0.0475 -0.1988
  771BOLB   NC218493  15.579  27.115  24.011 -0.1300  0.0776  0.2541
  771BOLB   PO218494  15.380  26.909  24.264  0.1252  0.3151 -0.3126
  771BOLB   GL318495  15.312  26.584  23.933  0.0148 -0.0948  0.1306
  771BOLB   GL418496  15.430  26.724  23.680 -0.4014  0.1577  0.0436
  771BOLB   C1C18497  15.034  26.269  23.866 -0.3389  0.0998  0.1995
  771BOLB   C2C18498  14.561  26.052  23.845  0.2507 -0.0982 -0.0369
  771BOLB   C3C18499  14.231  26.170  23.634  0.1244  0.1487  0.6064
  771BOLB   C4C18500  14.253  26.034  23.174 -0.0995  0.1503 -0.1496
  771BOLB   C1D18501  15.668  26.517  23.409  0.1159  0.0051  0.0970
  771BOLB   C2D18502  15.757  26.404  23.019 -0.0609  0.0270 -0.1596
  771BOLB   C3D18503  15.766  26.143  22.611 -0.0257 -0.4310  0.1395
  771BOLB   C4D18504  15.638  26.342  22.273  0.1729 -0.2557 -0.0173
  772BOLB   NC118505  15.146  25.277  19.972 -0.2104  0.2109  0.0218
  772BOLB   PO118506  14.975  25.525  19.719 -0.2292 -0.1176  0.0991
  772BOLB   GL118507  14.900  25.863  19.899 -0.1487 -0.0356 -0.0645
  772BOLB   GL218508  14.733  25.977  19.790  0.0444  0.1088 -0.3712
  772BOLB   C1A18509  14.879  26.053  20.251 -0.0064  0.0583 -0.0733
  772BOLB   C2A18510  14.960  26.294  20.570  0.0340  0.0741 -0.1374
  772BOLB   C3A18511  15.036  26.730  20.608 -0.1641 -0.2252 -0.0016
  772BOLB   C4A18512  14.818  27.110  20.888 -0.0095  0.0457  0.3984
  772BOLB   C1B18513  14.822  26.437  19.875 -0.2031 -0.2697 -0.0779
  772BOLB   C2B18514  14.874  26.832  20.142  0.2224  0.2224  0.1581
  772BOLB   C3B18515  15.203  27.163  20.439  0.0168 -0.2699 -0.2141
  772BOLB   C4B18516  15.599  27.360  20.465  0.2365  0.0539 -0.1254
  772BOLB   NC218517  13.992  29.756  21.622  0.2127 -0.5492 -0.0096
  772BOLB   PO218518  14.037  29.414  21.828  0.1463  0.0075 -0.1500
  772BOLB   GL318519  14.165  29.213  21.455 -0.1413  0.1381 -0.1942
  772BOLB   GL418520  13.957  28.986  21.310  0.0890 -0.3333 -0.2985
  772BOLB   C1C18521  14.411  28.844  21.558 -0.3071  0.0309  0.0486
  772BOLB   C2C18522  14.496  28.273  21.414 -0.1079 -0.0821 -0.2353
  772BOLB   C3C18523  14.592  27.840  21.236 -0.0472 -0.1648  0.1941
  772BOLB   C4C18524  14.644  27.571  20.873  0.1190  0.1141  0.0740
  772BOLB   C1D18525  13.802  28.581  21.179  0.1637 -0.1342 -0.2445
  772BOLB   C2D18526  13.724  28.191  20.940 -0.0389 -0.3004 -0.2278
  772BOLB   C3D18527  13.363  28.114  20.595 -0.2045  0.0837  0.0046
  772BOLB   C4D18528  12.940  28.321  20.652 -0.2127  0.1507 -0.0848
  773BOLB   NC118529  17.920  24.858  17.755 -0.2282 -0.4258 -0.3504
  773BOLB   PO118530  18.205  25.226  17.908 -0.4796 -0.3368  0.0743
  773BOLB   GL118531  18.046  25.738  17.940  0.0955  0.3593  0.0529
  773BOLB   GL218532  17.839  25.825  17.637  0.1006 -0.4465  0.2075
  773BOLB   C1A18533  18.035  26.037  18.250 -0.0335 -0.0783  0.3042
  773BOLB   C2A18534  18.182  26.409  18.552  0.0625 -0.1890  0.6093
  773BOLB   C3A18535  18.328  26.715  19.017 -0.1858  0.0314  0.3490
  773BOLB   C4A18536  18.298  27.074  19.175 -0.1296  0.1268 -0.0183
  773BOLB   C1B18537  17.736  26.224  17.831 -0.2887  0.0663  0.1715
  773BOLB   C2B18538  17.746  26.617  17.942 -0.1454 -0.0172  0.2520
  773BOLB   C3B18539  17.788  27.098  18.015  0.0632 -0.1287 -0.4160
  773BOLB   C4B18540  17.830  27.458  18.208  0.2748  0.0599  0.0237
  773BOLB   NC218541  18.125  29.044  20.392  0.2976 -0.2056  0.0306
  773BOLB   PO218542  17.742  28.940  20.550  0.0712  0.0474 -0.1785
  773BOLB   GL318543  17.990  28.570  20.432 -0.0480  0.1245 -0.0825
  773BOLB   GL418544  18.300  28.553  20.347 -0.0576  0.0805  0.1229
  773BOLB   C1C18545  17.797  28.301  20.039  0.1350 -0.0080 -0.2436
  773BOLB   C2C18546  17.815  28.211  19.548 -0.1541  0.0118 -0.3200
  773BOLB   C3C18547  17.907  27.790  19.413 -0.0505  0.2374  0.0618
  773BOLB   C4C18548  17.969  27.432  19.302  0.2243  0.1359  0.1762
  773BOLB   C1D18549  18.274  28.163  19.999  0.2876 -0.2458  0.2003
  773BOLB   C2D18550  18.059  27.863  20.024  0.0427  0.3260  0.1097
  773BOLB   C3D18551  17.854  27.466  20.246 -0.3038 -0.0636 -0.2555
  773BOLB   C4D18552  18.081  27.196  20.633 -0.2043  0.3414 -0.0028
  774BOLB   NC118553  19.765  24.920  17.218  0.0955 -0.1348  0.0431
  774BOLB   PO118554  19.452  25.216  17.130 -0.2800 -0.0749 -0.2156
  774BOLB   GL118555  19.405  25.541  17.356  0.1194 -0.3734 -0.0949
  774BOLB   GL218556  19.592  25.510  17.574 -0.3413 -0.1479 -0.2208
  774BOLB   C1A18557  19.685  25.938  17.227  0.0760 -0.1504 -0.3811
  774BOLB   C2A18558  19.606  26.390  17.282 -0.0450 -0.0198 -0.1197
  774BOLB   C3A18559  19.547  26.729  17.457 -0.0865 -0.0523  0.0899
  774BOLB   C4A18560  19.664  27.089  17.576 -0.1227  0.1192  0.2365
  774BOLB   C1B18561  19.622  25.880  17.712  0.0340  0.0486 -0.1025
  774BOLB   C2B18562  19.477  26.080  18.103  0.1823 -0.0946  0.2263
  774BOLB   C3B18563  19.521  26.402  18.338 -0.1218  0.1808 -0.1230
  774BOLB   C4B18564  19.530  26.410  18.685 -0.1145  0.0076 -0.1385
  774BOLB   NC218565  19.823  29.563  18.330  0.0970  0.0290 -0.2601
  774BOLB   PO218566  19.515  29.257  18.278  0.2086  0.0340  0.1870
  774BOLB   GL318567  19.459  28.891  18.204 -0.0301 -0.0400  0.2571
  774BOLB   GL418568  19.618  28.772  18.428 -0.0473 -0.2644  0.1182
  774BOLB   C1C18569  19.414  28.606  17.836 -0.0981 -0.1565  0.1736
  774BOLB   C2C18570  19.538  28.226  17.654 -0.0090  0.0499  0.1474
  774BOLB   C3C18571  19.436  27.837  17.607  0.0547  0.0604  0.1053
  774BOLB   C4C18572  19.477  27.429  17.589  0.1178 -0.1264  0.0677
  774BOLB   C1D18573  19.202  28.505  18.408 -0.3532 -0.2508  0.3353
  774BOLB   C2D18574  18.883  28.120  18.440 -0.4137 -0.2385  0.5581
  774BOLB   C3D18575  18.858  27.794  18.258  0.0855  0.0321  0.1535
  774BOLB   C4D18576  18.509  27.463  18.425  0.0189  0.1914  0.1119
  775BOLB   NC118577  10.870  27.023  17.906 -0.3026  0.0781  0.0967
  775BOLB   PO118578  11.264  27.241  18.115 -0.0918  0.2686  0.1957
  775BOLB   GL118579  11.680  27.301  18.399  0.3301  0.0153  0.0835
  775BOLB   GL218580  11.926  27.241  18.259 -0.1271  0.0958 -0.1026
  775BOLB   C1A18581  12.043  27.561  18.592  0.1570  0.0695  0.0335
  775BOLB   C2A18582  12.474  27.643  18.530 -0.0507 -0.0134 -0.0161
  775BOLB   C3A18583  12.833  27.589  18.676  0.3759 -0.0496 -0.0607
  775BOLB   C4A18584  13.121  27.474  19.044 -0.0664  0.0817 -0.0295
  775BOLB   C1B18585  12.347  27.143  18.386 -0.1644 -0.1509  0.4184
  775BOLB   C2B18586  12.747  27.147  18.464  0.1816 -0.0203 -0.1939
  775BOLB   C3B18587  13.189  27.239  18.571  0.3034  0.0722 -0.1033
  775BOLB   C4B18588  13.529  26.963  18.582  0.2090  0.0985 -0.0537
  775BOLB   NC218589  12.351  30.184  19.043 -0.0900 -0.0445 -0.1743
  775BOLB   PO218590  12.612  29.742  19.044  0.1565 -0.2802 -0.0531
  775BOLB   GL318591  12.548  29.318  19.002 -0.1406 -0.2092  0.0809
  775BOLB   GL418592  12.609  29.241  18.687 -0.3486  0.0640  0.2037
  775BOLB   C1C18593  12.447  28.903  19.221  0.2459  0.0082  0.2309
  775BOLB   C2C18594  12.837  28.752  19.173 -0.1292 -0.0601  0.2286
  775BOLB   C3C18595  13.233  28.341  19.171  0.0099 -0.1994 -0.1664
  775BOLB   C4C18596  13.327  27.905  19.167  0.5959 -0.0474 -0.0743
  775BOLB   C1D18597  12.995  28.953  18.733 -0.0718 -0.0593 -0.0185
  775BOLB   C2D18598  12.999  28.552  18.723 -0.0567  0.0679  0.3491
  775BOLB   C3D18599  13.127  28.142  18.656  0.1138  0.0203 -0.0327
  775BOLB   C4D18600  13.285  27.724  18.637 -0.1703 -0.0356 -0.0353
  776BOLB   NC118601  16.912  24.477  20.075 -0.0177 -0.1251 -0.0084
  776BOLB   PO118602  17.021  24.795  20.372 -0.0617 -0.0045  0.0420
  776BOLB   GL118603  17.353  25.030  20.636 -0.0077  0.0482 -0.3422
  776BOLB   GL218604  17.663  25.009  20.765  0.0066 -0.1997  0.0268
  776BOLB   C1A18605  17.281  25.424  20.701 -0.1054 -0.1621 -0.2334
  776BOLB   C2A18606  17.434  25.801  20.603  0.1178 -0.3942  0.3572
  776BOLB   C3A18607  17.492  26.244  20.719 -0.2167 -0.0161  0.2556
  776BOLB   C4A18608  17.124  26.354  20.963 -0.0067  0.0244  0.0694
  776BOLB   C1B18609  17.711  25.450  20.897  0.0707  0.2179  0.0224
  776BOLB   C2B18610  17.524  25.770  21.067 -0.1537 -0.2730 -0.3974
  776BOLB   C3B18611  17.468  26.176  21.295  0.3307  0.2994  0.1370
  776BOLB   C4B18612  17.819  26.520  21.343 -0.0840 -0.0254 -0.4101
  776BOLB   NC218613  17.360  28.949  21.429 -0.1700 -0.1456 -0.0184
  776BOLB   PO218614  17.182  28.659  21.641  0.0045  0.0968  0.2320
  776BOLB   GL318615  17.083  28.131  21.502  0.1165 -0.1970  0.0822
  776BOLB   GL418616  16.779  28.208  21.339  0.0548 -0.0837  0.0024
  776BOLB   C1C18617  17.058  27.810  21.255 -0.2959 -0.1701 -0.0754
  776BOLB   C2C18618  17.295  27.539  21.056  0.1867  0.3625  0.1846
  776BOLB   C3C18619  17.132  27.128  20.900  0.2230  0.0548 -0.5700
  776BOLB   C4C18620  16.906  26.755  20.971  0.1137  0.2685 -0.1743
  776BOLB   C1D18621  16.453  28.092  21.564  0.1227 -0.0968 -0.3044
  776BOLB   C2D18622  16.183  27.791  21.388  0.2609 -0.0986 -0.2331
  776BOLB   C3D18623  16.151  27.471  21.203  0.3531  0.0178  0.1401
  776BOLB   C4D18624  16.383  27.086  21.344  0.0146 -0.2068  0.0616
  777BOLB   NC118625  13.705  25.303  18.290 -0.2070 -0.1863  0.0697
  777BOLB   PO118626  13.799  25.759  18.285 -0.1516  0.0077  0.1066
  777BOLB   GL118627  13.997  26.114  18.031 -0.1414  0.0230 -0.0377
  777BOLB   GL218628  13.781  26.418  18.205 -0.2733 -0.1168 -0.0015
  777BOLB   C1A18629  14.163  26.494  17.910 -0.1374  0.1825  0.0433
  777BOLB   C2A18630  14.140  26.999  18.037  0.1448  0.2913 -0.0944
  777BOLB   C3A18631  14.291  27.387  18.357 -0.4392 -0.0185 -0.1559
  777BOLB   C4A18632  14.217  27.771  18.348  0.0313  0.2391 -0.2098
  777BOLB   C1B18633  13.942  26.758  18.473 -0.1928 -0.0665  0.4526
  777BOLB   C2B18634  13.932  27.118  18.862 -0.0349 -0.2218 -0.0413
  777BOLB   C3B18635  13.977  27.284  19.290 -0.0103 -0.2298 -0.0763
  777BOLB   C4B18636  14.303  27.599  19.527  0.3193 -0.1892  0.0238
  777BOLB   NC218637  14.322  30.111  17.240 -0.1881  0.2709  0.4362
  777BOLB   PO218638  14.792  29.991  17.297 -0.1256 -0.2803 -0.0011
  777BOLB   GL318639  14.811  29.535  17.356  0.3799 -0.1736  0.1125
  777BOLB   GL418640  14.839  29.313  17.045 -0.0644 -0.2861  0.4360
  777BOLB   C1C18641  14.784  29.141  17.594 -0.0162 -0.1357  0.2932
  777BOLB   C2C18642  14.547  28.984  17.955 -0.2579  0.2274  0.0885
  777BOLB   C3C18643  14.554  28.543  18.090  0.0877 -0.0284  0.1665
  777BOLB   C4C18644  14.234  28.200  18.231  0.3601  0.2122  0.1418
  777BOLB   C1D18645  14.600  28.930  17.096  0.1890  0.0589 -0.1067
  777BOLB   C2D18646  14.351  28.674  16.823  0.1873  0.2570  0.0783
  777BOLB   C3D18647  13.908  28.467  16.760  0.1132  0.0658 -0.0467
  777BOLB   C4D18648  13.513  28.387  17.062  0.0209 -0.0168  0.0130
  778BOLB   NC118649  11.152  28.291  18.895 -0.3614  0.2818  0.2406
  778BOLB   PO118650  10.712  28.007  19.054 -0.1586  0.2841 -0.2101
  778BOLB   GL118651  11.095  27.824  19.229 -0.2453  0.0635 -0.1513
  778BOLB   GL218652  11.381  28.099  19.271  0.0541 -0.1572 -0.2450
  778BOLB   C1A18653  11.474  27.666  19.468  0.0319  0.1764 -0.2153
  778BOLB   C2A18654  11.846  27.561  19.295 -0.0435  0.1883  0.0115
  778BOLB   C3A18655  12.162  27.701  19.051  0.0945 -0.1280  0.0053
  778BOLB   C4A18656  12.429  27.982  18.987 -0.0894 -0.3600  0.1246
  778BOLB   C1B18657  11.712  27.956  18.923  0.0614  0.1768  0.3276
  778BOLB   C2B18658  12.043  28.094  18.570 -0.2534 -0.2789  0.3234
  778BOLB   C3B18659  12.302  28.361  18.219  0.3749  0.1564  0.2240
  778BOLB   C4B18660  12.514  28.636  17.968  0.2883  0.1257  0.0765
  778BOLB   NC218661  12.524  30.255  17.694 -0.0503 -0.3645  0.0787
  778BOLB   PO218662  12.736  29.782  17.519  0.0718 -0.0012  0.4606
  778BOLB   GL318663  13.131  29.643  17.813 -0.1267  0.0438  0.2434
  778BOLB   GL418664  13.102  29.659  18.144 -0.0395  0.0885 -0.1170
  778BOLB   C1C18665  13.062  29.105  17.927 -0.0335 -0.0629 -0.2648
  778BOLB   C2C18666  13.005  28.700  18.112  0.0390 -0.0279  0.1843
  778BOLB   C3C18667  12.824  28.373  18.271  0.0168 -0.2233 -0.1387
  778BOLB   C4C18668  12.641  28.107  18.485 -0.1131 -0.0754 -0.0857
  778BOLB   C1D18669  13.225  29.270  18.414  0.0078  0.1322  0.0419
  778BOLB   C2D18670  13.395  28.897  18.422 -0.0058  0.2150 -0.1254
  778BOLB   C3D18671  13.859  28.980  18.500  0.2791 -0.1410 -0.1824
  778BOLB   C4D18672  14.114  28.925  18.932 -0.2486 -0.0382  0.2876
  779BOLB   NC118673  15.615  24.713  20.440 -0.0035  0.2476  0.0095
  779BOLB   PO118674  16.035  24.645  20.481  0.4104 -0.3058 -0.0934
  779BOLB   GL118675  16.190  24.955  20.772  0.2076  0.1321 -0.0130
  779BOLB   GL218676  16.394  25.134  20.629 -0.1335 -0.2339 -0.0889
  779BOLB   C1A18677  16.306  25.539  20.899  0.0770  0.1350  0.1917
  779BOLB   C2A18678  16.284  25.876  21.183  0.2380  0.0852  0.3908
  779BOLB   C3A18679  16.102  26.249  21.443 -0.0680  0.0731 -0.2230
  779BOLB   C4A18680  16.056  26.740  21.481  0.3762  0.0815  0.2008
  779BOLB   C1B18681  16.800  25.344  20.705  0.0123 -0.0565  0.0062
  779BOLB   C2B18682  16.888  25.786  20.770 -0.0882  0.0251 -0.0571
  779BOLB   C3B18683  16.717  26.129  20.945 -0.3126  0.2356  0.0756
  779BOLB   C4B18684  16.562  26.157  21.397 -0.1315  0.1232 -0.3042
  779BOLB   NC218685  16.051  27.726  23.305  0.0586  0.2863 -0.1110
  779BOLB   PO218686  15.741  27.407  23.638 -0.3889  0.0842 -0.0338
  779BOLB   GL318687  15.865  27.206  23.217  0.2701 -0.1614  0.1007
  779BOLB   GL418688  15.518  26.942  23.195 -0.1712 -0.0357 -0.1836
  779BOLB   C1C18689  15.743  27.098  22.815  0.2502  0.1593 -0.0126
  779BOLB   C2C18690  15.613  26.812  22.484  0.3416  0.0072  0.2282
  779BOLB   C3C18691  15.655  26.845  22.019  0.3210  0.1463  0.1192
  779BOLB   C4C18692  15.826  26.929  21.701  0.1756  0.2624  0.2080
  779BOLB   C1D18693  15.253  27.056  22.809  0.3152 -0.3047 -0.2590
  779BOLB   C2D18694  15.161  27.079  22.369 -0.2569 -0.0284  0.1030
  779BOLB   C3D18695  14.924  26.908  21.999  0.0813  0.1015  0.1000
  779BOLB   C4D18696  14.670  26.636  21.965 -0.0931 -0.0562  0.5804
  780BOLB   NC118697  22.481  25.907  18.051 -0.1108 -0.0187 -0.0670
  780BOLB   PO118698  22.146  25.822  17.621  0.0064  0.2385  0.0160
  780BOLB   GL118699  21.726  25.965  17.638 -0.1342  0.1562 -0.0651
  780BOLB   GL218700  21.566  26.087  17.321 -0.3657  0.0295  0.2275
  780BOLB   C1A18701  21.437  26.411  17.633  0.0623 -0.1288 -0.3215
  780BOLB   C2A18702  21.116  26.601  17.820 -0.1950 -0.2570 -0.2499
  780BOLB   C3A18703  20.736  26.455  17.909 -0.0244 -0.0318 -0.2779
  780BOLB   C4A18704  20.474  26.637  18.278  0.0167  0.1175  0.3897
  780BOLB   C1B18705  21.207  26.102  17.072  0.0199  0.0178 -0.0790
  780BOLB   C2B18706  20.945  26.406  16.834 -0.2554 -0.0150 -0.0695
  780BOLB   C3B18707  20.753  26.734  16.673  0.0304 -0.0588 -0.0158
  780BOLB   C4B18708  20.605  27.166  16.503  0.3980  0.1642 -0.0419
  780BOLB   NC218709  21.801  28.309  18.522 -0.1864 -0.0304  0.1762
  780BOLB   PO218710  21.439  28.657  18.518  0.2149  0.1082  0.1579
  780BOLB   GL318711  21.268  28.254  18.719  0.4593  0.0092 -0.1130
  780BOLB   GL418712  21.450  28.011  18.698 -0.2594  0.2119 -0.0712
  780BOLB   C1C18713  20.856  27.978  18.757 -0.2710 -0.0624  0.0721
  780BOLB   C2C18714  20.451  27.850  18.798 -0.0685 -0.0848  0.0050
  780BOLB   C3C18715  20.272  27.522  18.666 -0.2610  0.2420 -0.0705
  780BOLB   C4C18716  20.290  26.974  18.577  0.0523  0.0912 -0.0490
  780BOLB   C1D18717  21.288  27.595  18.830  0.1907 -0.1179  0.3824
  780BOLB   C2D18718  21.255  27.460  19.283 -0.0468  0.2721 -0.1907
  780BOLB   C3D18719  21.206  27.571  19.586 -0.4302 -0.4136 -0.0994
  780BOLB   C4D18720  21.370  27.560  19.959  0.2519  0.3684 -0.3362
  781BOLB   NC118721  14.553  25.049  20.477  0.0978 -0.0471 -0.1503
  781BOLB   PO118722  15.087  25.049  20.410 -0.1665 -0.1851  0.3184
  781BOLB   GL118723  15.343  25.361  20.610 -0.1066 -0.1335  0.3470
  781BOLB   GL218724  15.543  25.506  20.342  0.0736 -0.1538  0.0197
  781BOLB   C1A18725  15.349  25.775  20.847 -0.1640 -0.1643 -0.0631
  781BOLB   C2A18726  15.302  26.161  20.948 -0.4792  0.1410  0.0416
  781BOLB   C3A18727  15.162  26.621  21.061  0.0529 -0.2156  0.0201
  781BOLB   C4A18728  15.092  26.989  21.274 -0.0411  0.4551  0.0303
  781BOLB   C1B18729  15.633  25.940  20.513 -0.1333  0.4176  0.2289
  781BOLB   C2B18730  15.698  26.330  20.647 -0.4293  0.1617  0.2631
  781BOLB   C3B18731  15.990  26.735  20.809 -0.1626 -0.2863 -0.1257
  781BOLB   C4B18732  16.013  27.144  20.885 -0.3897 -0.0485 -0.4290
  781BOLB   NC218733  15.976  28.447  23.067 -0.2411 -0.1332 -0.2199
  781BOLB   PO218734  16.294  28.102  23.009  0.0966  0.5660 -0.1523
  781BOLB   GL318735  16.009  27.851  22.830 -0.1089 -0.0267  0.1230
  781BOLB   GL418736  16.194  27.755  22.593 -0.0471 -0.3787 -0.0916
  781BOLB   C1C18737  15.640  27.688  22.643 -0.1923  0.1305 -0.2682
  781BOLB   C2C18738  15.626  27.309  22.367 -0.0039  0.1075 -0.3941
  781BOLB   C3C18739  15.403  27.247  21.962 -0.3882  0.0694 -0.0346
  781BOLB   C4C18740  15.138  27.307  21.644 -0.0468 -0.0335 -0.0141
  781BOLB   C1D18741  16.132  27.437  22.501  0.2324  0.0443  0.0669
  781BOLB   C2D18742  16.041  27.030  22.358 -0.1848 -0.1081 -0.0403
  781BOLB   C3D18743  16.222  26.846  21.996  0.1049  0.1443  0.0128
  781BOLB   C4D18744  16.378  26.490  21.733 -0.1331 -0.2690  0.0013
  782BOLB   NC118745  20.780  25.024  17.572 -0.0664 -0.1215  0.1032
  782BOLB   PO118746  20.562  24.999  17.340  0.0483 -0.0466  0.3628
  782BOLB   GL118747  20.727  25.217  17.039 -0.0869 -0.0741  0.0208
  782BOLB   GL218748  20.450  25.482  17.122  0.0792 -0.0593  0.1056
  782BOLB   C1A18749  20.885  25.569  16.793  0.1516 -0.2857  0.3212
  782BOLB   C2A18750  20.803  25.971  16.715  0.0094  0.2605 -0.1134
  782BOLB   C3A18751  20.459  26.260  16.737 -0.0001 -0.2557  0.1629
  782BOLB   C4A18752  20.175  26.625  16.783 -0.1259  0.3607  0.2658
  782BOLB   C1B18753  20.258  25.900  17.010  0.2401 -0.1493 -0.1094
  782BOLB   C2B18754  20.089  26.294  17.217 -0.1048 -0.1878 -0.0825
  782BOLB   C3B18755  20.011  26.793  17.247 -0.1396  0.1493  0.3441
  782BOLB   C4B18756  20.167  27.149  17.604  0.1011  0.1399  0.0298
  782BOLB   NC218757  21.089  29.085  16.801  0.0636  0.0253  0.4506
  782BOLB   PO218758  20.619  28.980  16.851 -0.3803 -0.4796 -0.1084
  782BOLB   GL318759  20.526  28.629  17.120 -0.1294 -0.0811  0.0575
  782BOLB   GL418760  20.252  28.775  17.271 -0.2193  0.1617  0.1358
  782BOLB   C1C18761  20.478  28.225  16.951  0.0743 -0.0502 -0.0722
  782BOLB   C2C18762  20.255  27.822  17.008  0.2063  0.0395 -0.2242
  782BOLB   C3C18763  20.150  27.535  16.781  0.2951  0.1168  0.0204
  782BOLB   C4C18764  20.058  27.087  16.731 -0.2173  0.1627 -0.0806
  782BOLB   C1D18765  20.132  28.402  17.269  0.2064  0.0378 -0.1428
  782BOLB   C2D18766  19.877  28.118  17.299  0.3517  0.0407  0.1089
  782BOLB   C3D18767  19.869  27.644  17.363  0.2696  0.3870 -0.2774
  782BOLB   C4D18768  19.906  27.283  17.162  0.2035 -0.0468 -0.0751
  783BOLB   NC118769  11.727  26.392  18.884  0.0501  0.0687  0.1685
  783BOLB   PO118770  11.923  26.460  18.432 -0.0264 -0.0497  0.0498
  783BOLB   GL118771  12.070  26.760  18.602 -0.1136  0.1019  0.1729
  783BOLB   GL218772  12.002  27.070  18.728  0.1714 -0.3315  0.1339
  783BOLB   C1A18773  12.438  26.785  18.785  0.0748  0.1508  0.0944
  783BOLB   C2A18774  12.833  26.967  18.936  0.1364  0.0837 -0.3403
  783BOLB   C3A18775  12.990  27.094  19.347 -0.0688  0.1973  0.2641
  783BOLB   C4A18776  12.743  27.431  19.612  0.5280  0.0177  0.1934
  783BOLB   C1B18777  12.264  27.202  18.978 -0.1205  0.0433 -0.2369
  783BOLB   C2B18778  12.610  27.373  19.129 -0.0284 -0.0079  0.2308
  783BOLB   C3B18779  12.788  27.834  19.283 -0.0597  0.1733  0.1722
  783BOLB   C4B18780  12.865  28.225  19.564  0.3979  0.4872 -0.0672
  783BOLB   NC218781  11.309  29.568  20.692  0.0854  0.0837 -0.0648
  783BOLB   PO218782  11.682  29.322  20.658 -0.3376  0.2951 -0.1044
  783BOLB   GL318783  11.774  28.929  20.331  0.0411 -0.0321  0.3745
  783BOLB   GL418784  11.525  28.737  20.217  0.1857  0.0323  0.0175
  783BOLB   C1C18785  12.095  28.594  20.225  0.1920  0.2135 -0.3425
  783BOLB   C2C18786  12.196  28.298  19.952  0.0405  0.0307 -0.0401
  783BOLB   C3C18787  12.480  28.012  20.017  0.3224 -0.0858 -0.0666
  783BOLB   C4C18788  12.749  27.761  19.826  0.1748  0.0525  0.0730
  783BOLB   C1D18789  11.633  28.312  20.035  0.0484  0.1075  0.1116
  783BOLB   C2D18790  11.892  28.064  20.314 -0.0352 -0.0806 -0.2136
  783BOLB   C3D18791  12.182  27.747  20.286 -0.2713 -0.0708  0.0476
  783BOLB   C4D18792  12.052  27.380  20.178 -0.1821  0.2808  0.0490
  784BOLB   NC118793  11.303  25.975  19.510  0.2299  0.0572 -0.1146
  784BOLB   PO118794  11.594  26.244  19.370 -0.3378  0.5478  0.4658
  784BOLB   GL118795  11.900  26.506  19.424 -0.0147 -0.2687 -0.5028
  784BOLB   GL218796  12.080  26.698  19.192 -0.0055  0.2687  0.3198
  784BOLB   C1A18797  12.149  26.727  19.671 -0.0070  0.0609 -0.4968
  784BOLB   C2A18798  12.476  26.913  19.918 -0.1510  0.1064 -0.1650
  784BOLB   C3A18799  12.521  27.255  20.008 -0.2414  0.0258  0.3910
  784BOLB   C4A18800  12.684  27.580  20.276 -0.2038  0.2290 -0.0841
  784BOLB   C1B18801  11.840  26.995  19.309  0.0868 -0.0255  0.1358
  784BOLB   C2B18802  11.812  27.175  19.774 -0.1927  0.1349 -0.3616
  784BOLB   C3B18803  11.554  27.254  20.153 -0.0798  0.0505 -0.1581
  784BOLB   C4B18804  11.373  27.200  20.609 -0.0250 -0.0039 -0.0995
  784BOLB   NC218805  13.850  29.688  19.733 -0.2459  0.1741 -0.3951
  784BOLB   PO218806  13.556  29.506  20.073 -0.0625  0.1779 -0.0283
  784BOLB   GL318807  13.477  29.210  19.694  0.0812 -0.0948 -0.0685
  784BOLB   GL418808  13.778  29.111  19.675  0.0905 -0.2276  0.0485
  784BOLB   C1C18809  13.275  28.842  19.572 -0.2759  0.0485  0.0486
  784BOLB   C2C18810  13.298  28.429  19.708  0.2747  0.3231 -0.2274
  784BOLB   C3C18811  13.124  28.280  20.032  0.2547  0.0132  0.0711
  784BOLB   C4C18812  12.984  27.873  20.294 -0.2751 -0.1552  0.0050
  784BOLB   C1D18813  13.731  28.707  19.792 -0.0369 -0.1523 -0.1506
  784BOLB   C2D18814  13.578  28.545  20.214  0.1158 -0.2174  0.1404
  784BOLB   C3D18815  13.109  28.681  20.307 -0.1667  0.2580 -0.2165
  784BOLB   C4D18816  12.863  28.787  20.703 -0.2339  0.2759  0.0016
  785BOLB   NC118817  16.172  25.458  18.933 -0.1801  0.1514  0.1520
  785BOLB   PO118818  16.473  25.318  19.363  0.2024 -0.0672  0.5740
  785BOLB   GL118819  16.215  25.612  19.429  0.3230  0.2760  0.0021
  785BOLB   GL218820  16.162  25.633  19.766  0.1887  0.2933  0.1671
  785BOLB   C1A18821  16.246  26.059  19.524 -0.2649 -0.0435  0.0619
  785BOLB   C2A18822  16.220  26.472  19.393  0.3494  0.0581 -0.1479
  785BOLB   C3A18823  16.142  26.962  19.344  0.0230  0.1170  0.1324
  785BOLB   C4A18824  16.364  27.422  19.264 -0.1135  0.3315 -0.3855
  785BOLB   C1B18825  16.324  25.953  20.056  0.1624  0.0496 -0.3148
  785BOLB   C2B18826  16.303  26.362  20.023 -0.1326  0.2098 -0.0834
  785BOLB   C3B18827  16.171  26.778  19.793  0.0254  0.3027 -0.4910
  785BOLB   C4B18828  16.192  27.287  19.789  0.1683  0.1191  0.0197
  785BOLB   NC218829  17.603  29.412  19.467  0.1923  0.0301 -0.0500
  785BOLB   PO218830  17.376  29.177  19.592 -0.1502 -0.1628  0.1141
  785BOLB   GL318831  17.187  28.832  19.516  0.1109  0.7069 -0.0840
  785BOLB   GL418832  17.520  28.716  19.794  0.0468 -0.1933 -0.1000
  785BOLB   C1C18833  17.175  28.488  19.383 -0.0123  0.3767  0.0939
  785BOLB   C2C18834  16.985  28.148  19.229 -0.1547  0.0932  0.1856
  785BOLB   C3C18835  16.923  27.842  18.992  0.0170 -0.1557 -0.1603
  785BOLB   C4C18836  16.688  27.523  19.032 -0.2923 -0.2313 -0.0916
  785BOLB   C1D18837  17.332  28.316  19.841 -0.1575 -0.3086  0.1760
  785BOLB   C2D18838  17.094  27.923  19.681  0.0012 -0.1122 -0.0674
  785BOLB   C3D18839  16.838  27.701  19.449  0.4849  0.0322 -0.0603
  785BOLB   C4D18840  16.803  27.312  19.508  0.2452 -0.0528 -0.1864
  786BOLB   NC118841  19.298  24.027  19.997  0.2272  0.2280  0.1120
  786BOLB   PO118842  19.551  24.067  20.387  0.2134  0.3094  0.0012
  786BOLB   GL118843  19.614  24.487  20.579  0.0720 -0.0598  0.1875
  786BOLB   GL218844  19.321  24.551  20.578  0.3014  0.0660  0.1166
  786BOLB   C1A18845  19.900  24.758  20.746  0.1171  0.0859  0.2948
  786BOLB   C2A18846  19.850  25.140  20.876 -0.0414  0.1478 -0.1111
  786BOLB   C3A18847  20.104  25.477  21.072  0.3023  0.1499 -0.1283
  786BOLB   C4A18848  19.844  25.809  21.268 -0.0272 -0.0900 -0.0634
  786BOLB   C1B18849  19.402  24.954  20.797  0.0393  0.2021  0.3025
  786BOLB   C2B18850  19.404  25.320  21.082  0.1882  0.1549 -0.1442
  786BOLB   C3B18851  19.331  25.488  21.411  0.2654  0.1628 -0.0924
  786BOLB   C4B18852  18.867  25.579  21.606  0.2365  0.0939 -0.1854
  786BOLB   NC218853  19.274  28.186  21.538  0.3646 -0.1026  0.1604
  786BOLB   PO218854  19.587  28.326  21.857 -0.0729  0.1257  0.0591
  786BOLB   GL318855  19.545  27.842  21.795 -0.1249 -0.1839  0.2209
  786BOLB   GL418856  19.393  27.692  21.479 -0.4592 -0.0325 -0.0172
  786BOLB   C1C18857  19.795  27.477  21.625  0.1524 -0.1376 -0.1074
  786BOLB   C2C18858  19.764  27.106  21.343 -0.0536  0.1845  0.3593
  786BOLB   C3C18859  19.633  26.691  21.239 -0.3547  0.1771 -0.2232
  786BOLB   C4C18860  19.653  26.214  21.255  0.0749  0.0338 -0.2143
  786BOLB   C1D18861  19.222  27.765  21.048 -0.0678  0.3564  0.0087
  786BOLB   C2D18862  19.106  27.287  20.798 -0.2796 -0.1971 -0.2540
  786BOLB   C3D18863  18.987  26.873  20.598 -0.1059  0.0883  0.0312
  786BOLB   C4D18864  18.723  26.566  20.295  0.2612 -0.0992 -0.2785
  787BOLB   NC118865  19.516  24.827  18.154  0.0302 -0.1108  0.0248
  787BOLB   PO118866  19.131  25.051  18.292  0.1051  0.1110  0.3745
  787BOLB   GL118867  19.228  25.474  18.456  0.0268 -0.0846 -0.4872
  787BOLB   GL218868  18.984  25.722  18.223  0.3597  0.4070 -0.3704
  787BOLB   C1A18869  19.181  25.907  18.627 -0.0241  0.1381  0.0948
  787BOLB   C2A18870  19.059  26.237  18.558 -0.2242  0.1627 -0.0429
  787BOLB   C3A18871  19.166  26.741  18.609 -0.1373 -0.0455  0.2580
  787BOLB   C4A18872  19.484  27.005  18.550 -0.1346  0.3321 -0.1971
  787BOLB   C1B18873  18.930  26.163  18.102 -0.2844  0.3489  0.0655
  787BOLB   C2B18874  19.117  26.497  18.100 -0.2615  0.3091  0.1408
  787BOLB   C3B18875  18.995  26.899  18.083 -0.0157 -0.1206  0.0360
  787BOLB   C4B18876  18.734  27.197  18.095 -0.0735  0.0128 -0.0595
  787BOLB   NC218877  20.282  29.057  17.775  0.3540  0.2020 -0.0992
  787BOLB   PO218878  20.809  28.947  17.874 -0.2089 -0.0735 -0.1278
  787BOLB   GL318879  20.589  28.574  17.876  0.0635  0.0468  0.3571
  787BOLB   GL418880  20.530  28.601  17.653  0.6375 -0.2939 -0.1671
  787BOLB   C1C18881  20.347  28.347  18.190  0.6024 -0.1461 -0.0575
  787BOLB   C2C18882  20.138  27.976  18.152 -0.0610 -0.2685 -0.1964
  787BOLB   C3C18883  19.879  27.674  18.260  0.0814  0.1953 -0.0896
  787BOLB   C4C18884  19.656  27.355  18.435  0.1075 -0.0824 -0.1844
  787BOLB   C1D18885  20.497  28.222  17.502 -0.0062 -0.1694 -0.0743
  787BOLB   C2D18886  20.450  27.855  17.775  0.0866 -0.2341 -0.2556
  787BOLB   C3D18887  20.393  27.538  17.903 -0.0660  0.0002 -0.3980
  787BOLB   C4D18888  20.329  27.293  18.203 -0.1956  0.1620  0.0920
  788BOLB   NC118889  22.616  10.916  18.066  0.0705  0.1745 -0.2890
  788BOLB   PO118890  22.481  10.841  17.613 -0.2743  0.0662  0.1518
  788BOLB   GL118891  22.510  10.390  17.684 -0.1230  0.0146  0.2117
  788BOLB   GL218892  22.600  10.334  17.370  0.2278 -0.0677 -0.1535
  788BOLB   C1A18893  22.622   9.976  17.874 -0.0361 -0.1089  0.2186
  788BOLB   C2A18894  22.857   9.525  17.902 -0.0874 -0.0883  0.1254
  788BOLB   C3A18895  23.125   9.283  17.907 -0.2284  0.2117 -0.0153
  788BOLB   C4A18896  23.435   9.001  17.920  0.1099  0.3210 -0.4447
  788BOLB   C1B18897  22.701  10.048  17.076  0.3995  0.0611 -0.3797
  788BOLB   C2B18898  22.971   9.802  16.947  0.0915  0.0121  0.1133
  788BOLB   C3B18899  22.959   9.494  17.225  0.0147 -0.1409 -0.1274
  788BOLB   C4B18900  22.912   9.114  17.486 -0.1108 -0.1942  0.0800
  788BOLB   NC218901  25.194   7.537  18.290 -0.3977  0.1287 -0.2200
  788BOLB   PO218902  25.090   7.839  18.573 -0.0051  0.0312 -0.0637
  788BOLB   GL318903  24.907   8.237  18.712 -0.1670  0.2873 -0.0886
  788BOLB   GL418904  24.597   8.012  18.835 -0.0905  0.3050 -0.3185
  788BOLB   C1C18905  24.715   8.484  18.933  0.1969 -0.1021 -0.2168
  788BOLB   C2C18906  24.517   8.844  18.634  0.1578 -0.2045 -0.1126
  788BOLB   C3C18907  24.217   9.049  18.311 -0.1602  0.2537 -0.1980
  788BOLB   C4C18908  23.752   9.097  18.167  0.0199  0.0829  0.0046
  788BOLB   C1D18909  24.309   8.313  18.654 -0.1030 -0.0508  0.2164
  788BOLB   C2D18910  24.019   8.578  18.901  0.0142 -0.0244  0.0348
  788BOLB   C3D18911  24.156   8.988  19.068  0.0461 -0.0694  0.1633
  788BOLB   C4D18912  23.932   9.354  19.126  0.0666 -0.0486  0.0351
  789BOLB   NC118913  21.473  10.957  17.934  0.1049 -0.2906 -0.2016
  789BOLB   PO118914  21.721  10.648  18.308 -0.2441 -0.3119 -0.0377
  789BOLB   GL118915  22.022  10.292  18.498  0.2310 -0.0723  0.2292
  789BOLB   GL218916  21.842  10.021  18.585 -0.1519 -0.1497 -0.0335
  789BOLB   C1A18917  22.309  10.014  18.292  0.0982  0.0432 -0.1117
  789BOLB   C2A18918  22.534   9.589  18.276  0.0154 -0.3114 -0.3208
  789BOLB   C3A18919  22.774   9.217  18.432  0.2128  0.1330 -0.2542
  789BOLB   C4A18920  23.081   8.990  18.299 -0.3723 -0.2686 -0.2936
  789BOLB   C1B18921  22.121   9.731  18.686 -0.2591  0.2947 -0.0953
  789BOLB   C2B18922  22.207   9.286  18.839 -0.2052 -0.1054  0.0622
  789BOLB   C3B18923  22.433   8.884  18.821  0.1385 -0.0206  0.0533
  789BOLB   C4B18924  22.710   8.497  18.955  0.1133  0.0942 -0.0859
  789BOLB   NC218925  24.481   6.896  18.408  0.1579  0.0336 -0.4410
  789BOLB   PO218926  24.309   7.031  17.991 -0.0977  0.0885 -0.1533
  789BOLB   GL318927  24.177   7.409  18.026  0.0180  0.5228  0.3107
  789BOLB   GL418928  24.226   7.406  18.312  0.0301 -0.2959  0.1074
  789BOLB   C1C18929  23.949   7.754  17.998  0.1949  0.0637  0.0308
  789BOLB   C2C18930  23.832   8.137  17.935  0.1313  0.1214 -0.1480
  789BOLB   C3C18931  23.499   8.438  17.904  0.2117  0.2803  0.1310
  789BOLB   C4C18932  23.199   8.606  18.175  0.1624  0.0670  0.0167
  789BOLB   C1D18933  23.783   7.527  18.397 -0.2171  0.0480  0.1174
  789BOLB   C2D18934  23.475   7.711  18.139  0.0240 -0.1121 -0.3407
  789BOLB   C3D18935  23.328   7.976  17.901  0.1858 -0.0919 -0.0297
  789BOLB   C4D18936  23.536   7.791  17.533 -0.1269 -0.2323 -0.2234
  790BOLB   NC118937  23.581  11.877  20.668 -0.0693  0.2556 -0.1235
  790BOLB   PO118938  23.587  12.225  20.973 -0.1946 -0.6354 -0.0320
  790BOLB   GL118939  23.676  11.794  21.141  0.0526  0.1224  0.0062
  790BOLB   GL218940  23.953  11.631  21.118  0.3264  0.1574  0.0898
  790BOLB   C1A18941  23.606  11.570  21.480  0.3102  0.1854  0.0486
  790BOLB   C2A18942  23.652  11.187  21.680  0.1919  0.0490  0.1704
  790BOLB   C3A18943  23.836  11.015  22.055  0.1170  0.2462 -0.1196
  790BOLB   C4A18944  23.816  10.559  22.155  0.2103 -0.0384 -0.3003
  790BOLB   C1B18945  24.382  11.412  20.999  0.0478 -0.1959 -0.1338
  790BOLB   C2B18946  24.527  11.124  21.302 -0.0558 -0.2153  0.2200
  790BOLB   C3B18947  24.551  10.668  21.607 -0.0414 -0.0196  0.2851
  790BOLB   C4B18948  24.747  10.584  21.967 -0.1750 -0.3150 -0.1441
  790BOLB   NC218949  24.774   8.816  23.633  0.2027  0.2263  0.1083
  790BOLB   PO218950  24.617   9.090  23.372  0.1561  0.3053 -0.0404
  790BOLB   GL318951  24.594   9.348  23.057  0.1794  0.2341 -0.1467
  790BOLB   GL418952  24.800   9.438  22.853  0.0054 -0.0158  0.1847
  790BOLB   C1C18953  24.238   9.508  23.081 -0.0844  0.2501 -0.1301
  790BOLB   C2C18954  23.992   9.842  23.046 -0.1521  0.1762 -0.0953
  790BOLB   C3C18955  24.013  10.130  22.753 -0.3002  0.0311 -0.1245
  790BOLB   C4C18956  23.875  10.356  22.539  0.1085  0.3854  0.0013
  790BOLB   C1D18957  24.811   9.734  22.637  0.0491  0.2119 -0.0425
  790BOLB   C2D18958  25.031   9.653  22.177  0.0495  0.1836  0.0123
  790BOLB   C3D18959  25.236   9.887  21.823  0.0831 -0.0694 -0.2239
  790BOLB   C4D18960  25.086   9.886  21.464  0.1428  0.1970 -0.1063
  791BOLB   NC118961  27.933  10.919  16.731  0.3628  0.2350  0.3185
  791BOLB   PO118962  27.713  10.659  16.599 -0.0085 -0.2922 -0.0834
  791BOLB   GL118963  27.337  10.603  16.864  0.1816 -0.0539 -0.0542
  791BOLB   GL218964  27.195  10.286  16.705  0.0735 -0.0172  0.1045
  791BOLB   C1A18965  27.163  10.660  17.237 -0.0706 -0.2795 -0.0350
  791BOLB   C2A18966  26.949  10.695  17.642 -0.0671  0.0168 -0.4662
  791BOLB   C3A18967  26.889  10.700  18.046  0.1067  0.1470  0.2643
  791BOLB   C4A18968  26.480  10.667  18.318  0.1601  0.1439  0.3206
  791BOLB   C1B18969  26.883  10.369  16.927  0.1275 -0.0153 -0.1860
  791BOLB   C2B18970  26.629  10.678  16.966  0.0003 -0.5025 -0.1455
  791BOLB   C3B18971  26.512  11.145  16.894 -0.1968 -0.1397  0.1211
  791BOLB   C4B18972  26.602  11.527  16.662  0.3254 -0.1604  0.0001
  791BOLB   NC218973  27.087   9.311  20.440 -0.0860  0.4326 -0.1875
  791BOLB   PO218974  27.011   9.285  19.876 -0.0570  0.2601 -0.1419
  791BOLB   GL318975  26.956   9.551  19.570 -0.2123  0.1637 -0.4771
  791BOLB   GL418976  27.053   9.805  19.473  0.2174 -0.1114  0.0805
  791BOLB   C1C18977  26.750   9.541  19.187  0.2247  0.1099 -0.4013
  791BOLB   C2C18978  26.607   9.934  18.997 -0.1653  0.3781  0.2287
  791BOLB   C3C18979  26.572  10.325  18.944  0.0245  0.1327  0.0583
  791BOLB   C4C18980  26.363  10.512  18.613  0.0413 -0.2354 -0.0917
  791BOLB   C1D18981  26.930  10.012  19.850 -0.2435  0.1569 -0.3366
  791BOLB   C2D18982  26.700  10.074  19.948 -0.2633 -0.2306  0.0860
  791BOLB   C3D18983  26.337  10.374  19.801  0.0667 -0.0873  0.0369
  791BOLB   C4D18984  26.292  10.541  19.457  0.1059  0.3155 -0.0594
  792BOLB   NC118985  26.534  12.606  18.588  0.0420 -0.0608  0.2821
  792BOLB   PO118986  26.889  12.391  18.693 -0.0906  0.0763 -0.2215
  792BOLB   GL118987  26.701  11.972  18.779  0.2269 -0.2507 -0.0569
  792BOLB   GL218988  26.458  11.972  18.611  0.0607 -0.1475 -0.2434
  792BOLB   C1A18989  26.460  11.780  19.123 -0.1007 -0.0847  0.0476
  792BOLB   C2A18990  26.522  11.587  19.540  0.0944  0.0635  0.2204
  792BOLB   C3A18991  26.331  11.345  20.002 -0.0219 -0.2351  0.1084
  792BOLB   C4A18992  26.247  11.151  20.517 -0.1991  0.0351  0.0890
  792BOLB   C1B18993  26.239  11.557  18.239  0.0964  0.1678  0.1921
  792BOLB   C2B18994  26.446  11.277  18.133 -0.3317  0.0063 -0.2172
  792BOLB   C3B18995  26.472  10.952  17.854 -0.3005  0.0498  0.0452
  792BOLB   C4B18996  26.467  10.456  17.845 -0.3191  0.1212 -0.1289
  792BOLB   NC218997  27.868  11.280  22.449 -0.2632  0.1477 -0.0636
  792BOLB   PO218998  27.745  11.411  22.113 -0.0065  0.3134  0.2429
  792BOLB   GL318999  27.458  11.585  21.895  0.1878 -0.0106  0.0265
  792BOLB   GL419000  27.157  11.714  22.069 -0.0902 -0.0866  0.1215
  792BOLB   C1C19001  27.368  11.323  21.399 -0.2608 -0.1726 -0.1771
  792BOLB   C2C19002  27.002  11.075  21.340 -0.3780 -0.1248  0.1400
  792BOLB   C3C19003  26.728  10.977  21.071  0.0833 -0.1954 -0.0727
  792BOLB   C4C19004  26.353  11.046  20.890 -0.1988 -0.0144 -0.1256
  792BOLB   C1D19005  26.807  11.721  22.148  0.3359  0.0294  0.0264
  792BOLB   C2D19006  26.338  12.044  22.264  0.0264 -0.2213 -0.0857
  792BOLB   C3D19007  26.089  12.039  22.630 -0.0153 -0.2187 -0.1305
  792BOLB   C4D19008  25.892  12.414  22.852  0.0843 -0.0132  0.1679
  793BOLB   NC119009  25.888  15.427  22.147  0.2961 -0.0143  0.1796
  793BOLB   PO119010  25.838  15.528  22.519  0.3397 -0.1212 -0.1031
  793BOLB   GL119011  25.734  15.495  22.891  0.3436  0.0238  0.2053
  793BOLB   GL219012  25.682  15.168  22.896  0.3632 -0.0919 -0.3454
  793BOLB   C1A19013  25.818  15.640  23.336  0.0237  0.3340  0.0340
  793BOLB   C2A19014  25.613  15.575  23.789 -0.0836 -0.0574  0.3021
  793BOLB   C3A19015  25.414  15.336  24.065  0.1042  0.0192 -0.0917
  793BOLB   C4A19016  25.322  15.286  24.415  0.0684 -0.1385 -0.2718
  793BOLB   C1B19017  25.806  14.774  23.008  0.0748  0.2291  0.0618
  793BOLB   C2B19018  25.636  14.414  22.925 -0.1559  0.0253 -0.1086
  793BOLB   C3B19019  25.546  14.119  23.292 -0.2027 -0.0891 -0.0211
  793BOLB   C4B19020  25.376  13.739  23.542 -0.1236  0.2758 -0.5217
  793BOLB   NC219021  25.692  14.672  26.278  0.0616  0.1086  0.3452
  793BOLB   PO219022  25.331  14.640  26.319 -0.1980 -0.1486 -0.3623
  793BOLB   GL319023  25.322  15.037  26.105  0.0581  0.0131 -0.0552
  793BOLB   GL419024  25.304  15.383  26.230  0.1515  0.4411  0.1594
  793BOLB   C1C19025  25.175  15.194  25.715 -0.0557 -0.2837 -0.0530
  793BOLB   C2C19026  24.958  15.400  25.571  0.1004 -0.1277  0.2522
  793BOLB   C3C19027  24.888  15.482  25.032 -0.0168 -0.0256  0.0507
  793BOLB   C4C19028  25.021  15.455  24.636  0.0417 -0.0433 -0.3118
  793BOLB   C1D19029  24.853  15.566  26.092 -0.1307 -0.0083 -0.1776
  793BOLB   C2D19030  24.439  15.512  26.274 -0.0191  0.4052  0.1350
  793BOLB   C3D19031  24.150  15.243  26.068 -0.0873  0.1076  0.0742
  793BOLB   C4D19032  23.827  14.992  25.913  0.0302 -0.0109 -0.1413
  794BOLB   NC119033  26.958  20.981  20.290 -0.1526  0.0425  0.1244
  794BOLB   PO119034  26.801  21.284  20.089  0.2060  0.1599 -0.2216
  794BOLB   GL119035  26.461  21.119  19.965  0.1004  0.0825 -0.1342
  794BOLB   GL219036  26.270  21.359  19.709 -0.1927  0.4124 -0.2245
  794BOLB   C1A19037  26.202  20.815  19.808 -0.3262  0.3382  0.1314
  794BOLB   C2A19038  25.707  20.784  19.967 -0.0260 -0.0425  0.1707
  794BOLB   C3A19039  25.597  21.026  20.361  0.4241 -0.0061  0.1544
  794BOLB   C4A19040  25.589  21.422  20.610 -0.1036 -0.0130 -0.1633
  794BOLB   C1B19041  25.959  21.145  19.610  0.1140 -0.0189 -0.0119
  794BOLB   C2B19042  25.685  21.117  19.219  0.0107 -0.1983 -0.1809
  794BOLB   C3B19043  25.733  21.382  18.851  0.0954  0.0070  0.0026
  794BOLB   C4B19044  26.020  21.498  18.584  0.3673  0.1513  0.0257
  794BOLB   NC219045  26.310  22.765  23.010  0.1358  0.3977  0.3143
  794BOLB   PO219046  25.962  22.670  22.703 -0.0751 -0.5303 -0.1316
  794BOLB   GL319047  25.804  22.448  22.350 -0.1049  0.1470 -0.1117
  794BOLB   GL419048  25.584  22.228  22.521  0.1292 -0.0299  0.2806
  794BOLB   C1C19049  25.537  22.130  22.058 -0.5729  0.0801 -0.2531
  794BOLB   C2C19050  25.393  22.189  21.640  0.1467  0.3646  0.2626
  794BOLB   C3C19051  25.355  21.942  21.254  0.0255 -0.0744 -0.0556
  794BOLB   C4C19052  25.449  21.706  20.835  0.0840  0.1057  0.1120
  794BOLB   C1D19053  25.271  22.224  22.944  0.0707  0.5925  0.1351
  794BOLB   C2D19054  24.981  22.311  23.210  0.1167 -0.0812  0.1239
  794BOLB   C3D19055  24.904  22.416  23.642 -0.0681 -0.0197  0.0296
  794BOLB   C4D19056  24.990  22.752  23.923 -0.0138  0.1152  0.0774
  795BOLB   NC119057  22.657  11.760  20.163 -0.4295  0.2158  0.1259
  795BOLB   PO119058  22.799  11.449  19.963  0.2852 -0.0447 -0.1511
  795BOLB   GL119059  22.928  10.974  20.038  0.0077  0.2091 -0.0182
  795BOLB   GL219060  22.737  10.958  19.775  0.1205 -0.0576 -0.1181
  795BOLB   C1A19061  23.260  10.691  20.149 -0.0565  0.2498  0.1291
  795BOLB   C2A19062  23.508  10.296  20.062  0.2393  0.1057  0.0674
  795BOLB   C3A19063  23.642   9.873  20.181 -0.0403 -0.0623  0.1003
  795BOLB   C4A19064  23.813   9.390  20.377  0.0474 -0.0864  0.1365
  795BOLB   C1B19065  22.726  10.540  19.649  0.0372 -0.0570 -0.4017
  795BOLB   C2B19066  22.649  10.132  19.764 -0.0689  0.2481  0.0518
  795BOLB   C3B19067  22.554   9.734  19.711 -0.2315  0.0580  0.2758
  795BOLB   C4B19068  22.815   9.394  19.655  0.4882 -0.2667  0.2368
  795BOLB   NC219069  24.893   8.161  21.635 -0.2342 -0.1664 -0.0991
  795BOLB   PO219070  24.804   8.358  22.094 -0.1118  0.0088 -0.2555
  795BOLB   GL319071  24.539   8.540  21.688 -0.3468  0.1529 -0.1507
  795BOLB   GL419072  24.361   8.794  21.923  0.2485  0.1252 -0.4176
  795BOLB   C1C19073  24.348   8.545  21.328 -0.0304  0.1242  0.0287
  795BOLB   C2C19074  24.225   8.391  20.988  0.0895  0.1492  0.0843
  795BOLB   C3C19075  24.029   8.509  20.682  0.0516 -0.2019 -0.1310
  795BOLB   C4C19076  23.759   8.922  20.596  0.2149 -0.1961 -0.0192
  795BOLB   C1D19077  24.369   9.208  21.733  0.0637 -0.1623  0.5433
  795BOLB   C2D19078  24.002   9.310  21.481  0.0632 -0.1785  0.2237
  795BOLB   C3D19079  23.602   9.442  21.361  0.3437  0.0386 -0.1316
  795BOLB   C4D19080  23.558   9.768  21.092 -0.4638  0.3502  0.1122
  796BOLB   NC119081  24.515  26.523  21.219 -0.2765 -0.1842  0.0866
  796BOLB   PO119082  24.109  26.737  21.150  0.0819  0.1731 -0.0456
  796BOLB   GL119083  23.723  26.580  21.135 -0.0261  0.1298  0.3521
  796BOLB   GL219084  23.542  26.850  20.958  0.2654 -0.0880 -0.1085
  796BOLB   C1A19085  23.339  26.301  21.296  0.1197  0.0614 -0.1756
  796BOLB   C2A19086  23.311  26.032  21.665  0.0409  0.3660  0.0063
  796BOLB   C3A19087  23.255  26.125  22.143 -0.1693  0.2461  0.0036
  796BOLB   C4A19088  22.956  26.359  22.262 -0.1724 -0.2047 -0.1231
  796BOLB   C1B19089  23.013  26.683  20.917 -0.2350 -0.0824 -0.1994
  796BOLB   C2B19090  22.791  26.292  20.874  0.4785  0.2829  0.0599
  796BOLB   C3B19091  22.586  25.913  20.737  0.0366 -0.1933 -0.1553
  796BOLB   C4B19092  22.339  25.536  20.689 -0.2108 -0.1477 -0.0180
  796BOLB   NC219093  23.055  28.147  20.504 -0.0706 -0.3222 -0.0983
  796BOLB   PO219094  22.885  27.798  20.470  0.3492  0.2955  0.1176
  796BOLB   GL319095  22.760  27.431  20.770 -0.0631  0.1894  0.1587
  796BOLB   GL419096  22.954  27.522  21.048  0.0878  0.2041 -0.0490
  796BOLB   C1C19097  22.666  27.089  21.022 -0.0534  0.1408  0.0952
  796BOLB   C2C19098  22.784  26.964  21.399  0.1010  0.2766  0.0332
  796BOLB   C3C19099  22.775  26.957  21.812 -0.0022  0.1000 -0.3633
  796BOLB   C4C19100  22.717  26.582  22.042 -0.2121  0.4519 -0.1006
  796BOLB   C1D19101  23.163  27.150  21.106 -0.1680 -0.3057  0.2186
  796BOLB   C2D19102  23.284  26.770  21.425  0.1083 -0.0043 -0.3479
  796BOLB   C3D19103  23.704  26.541  21.617  0.1845 -0.0443 -0.0576
  796BOLB   C4D19104  24.122  26.299  21.744 -0.3147 -0.1880 -0.1821
  797BOLB   NC119105  27.833  11.804  18.625 -0.0355  0.0962 -0.1304
  797BOLB   PO119106  27.613  11.717  18.248  0.0000  0.1110  0.1505
  797BOLB   GL119107  27.263  11.678  17.945  0.1362 -0.0461 -0.1777
  797BOLB   GL219108  27.027  11.575  18.176  0.0865  0.0599  0.1305
  797BOLB   C1A19109  27.012  11.739  17.534  0.0741 -0.0352 -0.2312
  797BOLB   C2A19110  26.773  11.643  17.104  0.0079 -0.3286 -0.0300
  797BOLB   C3A19111  26.370  11.756  17.138 -0.0264 -0.1586  0.2716
  797BOLB   C4A19112  26.112  11.484  17.231 -0.0803  0.0798 -0.1736
  797BOLB   C1B19113  26.793  11.508  18.564  0.0956  0.1176  0.0857
  797BOLB   C2B19114  26.348  11.479  18.745  0.1113 -0.0083 -0.1318
  797BOLB   C3B19115  26.403  11.227  19.092 -0.0809 -0.1914  0.1578
  797BOLB   C4B19116  26.368  11.041  19.504  0.4031  0.2811 -0.0080
  797BOLB   NC219117  27.120   8.797  16.744 -0.1200  0.4376 -0.0103
  797BOLB   PO219118  27.150   9.230  16.770  0.2885 -0.1054 -0.3155
  797BOLB   GL319119  27.050   9.555  17.049  0.0558 -0.1741  0.0073
  797BOLB   GL419120  26.953   9.394  17.377 -0.4519 -0.0755  0.0044
  797BOLB   C1C19121  26.894   9.944  17.194 -0.0244  0.0132 -0.0662
  797BOLB   C2C19122  26.838  10.276  17.430 -0.2825  0.0983  0.1677
  797BOLB   C3C19123  26.515  10.746  17.420  0.1961  0.2480  0.2711
  797BOLB   C4C19124  26.214  11.058  17.297 -0.3298  0.0099 -0.0054
  797BOLB   C1D19125  26.528   9.651  17.312  0.0023 -0.0565  0.0164
  797BOLB   C2D19126  26.164   9.701  17.304 -0.2766  0.0483  0.3753
  797BOLB   C3D19127  25.817   9.837  17.111 -0.2882  0.1024 -0.0909
  797BOLB   C4D19128  25.394   9.954  17.142 -0.3850 -0.2373 -0.2361
  798BOLB   NC119129  25.703  13.145  20.246 -0.2123  0.1081  0.1054
  798BOLB   PO119130  25.690  12.925  20.639 -0.1487 -0.3092 -0.0425
  798BOLB   GL119131  25.795  12.547  20.765  0.1413 -0.2151  0.0850
  798BOLB   GL219132  25.723  12.473  21.141  0.1441 -0.2095  0.5314
  798BOLB   C1A19133  25.972  12.232  20.747  0.1295  0.0805  0.0734
  798BOLB   C2A19134  26.051  11.954  20.983  0.1173 -0.1247 -0.2652
  798BOLB   C3A19135  26.025  11.697  21.426  0.0903  0.1667 -0.1619
  798BOLB   C4A19136  25.706  11.586  21.702  0.2267 -0.0614 -0.1805
  798BOLB   C1B19137  25.517  12.170  20.971  0.0950  0.0513 -0.0014
  798BOLB   C2B19138  25.269  11.824  21.223  0.0430  0.2028 -0.0755
  798BOLB   C3B19139  24.918  11.927  21.396 -0.0598 -0.2244 -0.0117
  798BOLB   C4B19140  24.754  12.303  21.302  0.0570 -0.0699  0.1038
  798BOLB   NC219141  27.393  10.810  23.724  0.2557 -0.2260 -0.0563
  798BOLB   PO219142  27.035  10.885  23.582  0.2122  0.1109  0.3232
  798BOLB   GL319143  26.738  11.033  23.283 -0.0312  0.0225 -0.0295
  798BOLB   GL419144  26.480  11.269  23.401 -0.2083  0.0568  0.2749
  798BOLB   C1C19145  26.379  10.870  22.934 -0.1310 -0.2264 -0.0450
  798BOLB   C2C19146  26.213  11.063  22.577  0.0617 -0.0676 -0.2290
  798BOLB   C3C19147  25.947  11.086  22.207 -0.0763  0.0132 -0.1182
  798BOLB   C4C19148  25.655  11.253  21.890 -0.0005 -0.0562  0.0250
  798BOLB   C1D19149  26.094  11.324  23.646  0.2193 -0.1304  0.2008
  798BOLB   C2D19150  25.758  11.043  23.622  0.3193  0.3155  0.1324
  798BOLB   C3D19151  25.404  10.897  23.703 -0.0818  0.2973  0.0339
  798BOLB   C4D19152  24.933  10.775  23.634 -0.2244 -0.4498  0.3199
  799BOLB   NC119153  23.451  11.501  18.239  0.0620  0.1999 -0.1161
  799BOLB   PO119154  23.201  11.265  18.569  0.3703 -0.0638 -0.3952
  799BOLB   GL119155  23.478  10.912  18.472 -0.2823 -0.2496 -0.0050
  799BOLB   GL219156  23.598  10.986  18.109  0.0042 -0.0980 -0.1182
  799BOLB   C1A19157  23.727  10.567  18.419 -0.1266  0.0220  0.1203
  799BOLB   C2A19158  23.849  10.363  18.829  0.0700  0.1133 -0.2460
  799BOLB   C3A19159  23.951   9.916  19.064 -0.2487 -0.0047 -0.3605
  799BOLB   C4A19160  24.279   9.712  19.301  0.0074 -0.1871 -0.2107
  799BOLB   C1B19161  23.795  10.701  17.846 -0.2049  0.0031 -0.3127
  799BOLB   C2B19162  23.996  10.290  17.625  0.1270 -0.0261  0.0398
  799BOLB   C3B19163  24.014   9.979  17.385  0.1060  0.0630 -0.0921
  799BOLB   C4B19164  24.000   9.594  17.478 -0.1158 -0.3262  0.1262
  799BOLB   NC219165  24.805   7.662  19.592  0.0624 -0.0985 -0.0924
  799BOLB   PO219166  24.920   7.672  19.959 -0.2151  0.1370  0.0385
  799BOLB   GL319167  24.759   8.127  20.015  0.4102 -0.3154  0.3184
  799BOLB   GL419168  24.958   8.361  20.215  0.0158 -0.3416 -0.3893
  799BOLB   C1C19169  24.399   8.484  20.082  0.3084  0.0903  0.1177
  799BOLB   C2C19170  24.247   8.802  20.212  0.3778 -0.0166 -0.1448
  799BOLB   C3C19171  24.140   9.144  19.997 -0.2075 -0.0161 -0.0910
  799BOLB   C4C19172  24.288   9.331  19.618 -0.1343  0.2028  0.1580
  799BOLB   C1D19173  24.911   8.662  19.981 -0.1547  0.1555 -0.2211
  799BOLB   C2D19174  24.537   8.917  19.818 -0.1193 -0.1709  0.0826
  799BOLB   C3D19175  24.237   8.796  19.524 -0.2028  0.0690  0.0680
  799BOLB   C4D19176  24.153   8.378  19.705 -0.1833  0.0344  0.1481
  800BOLB   NC119177  26.789  20.311  23.061 -0.0404  0.2568 -0.4142
  800BOLB   PO119178  27.059  20.345  22.713 -0.3759 -0.0450  0.0379
  800BOLB   GL119179  26.618  20.398  22.601  0.4026  0.0493  0.0781
  800BOLB   GL219180  26.738  20.263  22.307 -0.0898 -0.0557  0.2250
  800BOLB   C1A19181  26.262  20.284  22.196  0.4837 -0.1390 -0.0995
  800BOLB   C2A19182  25.809  20.440  22.125 -0.1357  0.1055  0.1995
  800BOLB   C3A19183  25.407  20.297  21.979  0.2886 -0.1625  0.0531
  800BOLB   C4A19184  25.160  20.037  21.824 -0.1200 -0.2352 -0.1023
  800BOLB   C1B19185  26.493  19.950  22.553 -0.2767 -0.1772 -0.3722
  800BOLB   C2B19186  26.376  19.559  22.664  0.2467 -0.1234  0.1729
  800BOLB   C3B19187  26.053  19.272  22.875 -0.1343 -0.0278 -0.3129
  800BOLB   C4B19188  25.900  18.942  23.061  0.1853  0.4139  0.0155
  800BOLB   NC219189  27.321  18.857  22.095 -0.1454 -0.0868 -0.2167
  800BOLB   PO219190  27.300  19.131  22.344  0.0502  0.1267 -0.0296
  800BOLB   GL319191  26.878  19.056  22.218  0.0188  0.3534  0.4326
  800BOLB   GL419192  26.686  18.905  22.442  0.1235 -0.1850  0.1068
  800BOLB   C1C19193  26.484  19.295  22.106 -0.0497 -0.1367 -0.0311
  800BOLB   C2C19194  26.054  19.567  21.999 -0.0301 -0.0832  0.3471
  800BOLB   C3C19195  25.626  19.407  21.946  0.1273  0.0799 -0.0800
  800BOLB   C4C19196  25.219  19.522  21.847  0.1035 -0.0791  0.2084
  800BOLB   C1D19197  26.537  19.080  22.735  0.0614  0.2079  0.3711
  800BOLB   C2D19198  26.340  19.095  23.249 -0.1297 -0.0864 -0.0785
  800BOLB   C3D19199  26.046  19.070  23.551 -0.0718 -0.0020 -0.0472
  800BOLB   C4D19200  25.637  18.944  23.914  0.1207 -0.2047  0.2330
  801BOLB   NC119201  23.773  23.414  20.415  0.2848  0.0750 -0.0693
  801BOLB   PO119202  23.416  23.735  20.621 -0.3744 -0.0982  0.2022
  801BOLB   GL119203  23.234  23.745  20.994  0.1297 -0.2263  0.0710
  801BOLB   GL219204  23.284  23.431  21.152  0.2930 -0.1043  0.2893
  801BOLB   C1A19205  22.937  23.668  21.425  0.4998  0.0866  0.1237
  801BOLB   C2A19206  22.927  24.056  21.631 -0.4291  0.0585  0.1360
  801BOLB   C3A19207  22.924  24.073  22.119 -0.1840 -0.1732  0.0878
  801BOLB   C4A19208  22.870  24.246  22.425 -0.2136 -0.1370  0.2708
  801BOLB   C1B19209  23.630  23.297  21.382 -0.4183 -0.1156 -0.0003
  801BOLB   C2B19210  23.939  23.524  21.504  0.0323  0.1751  0.3168
  801BOLB   C3B19211  24.203  23.596  21.648  0.0165 -0.1319  0.0325
  801BOLB   C4B19212  24.248  23.520  21.995  0.3206 -0.1201 -0.1891
  801BOLB   NC219213  24.072  25.318  24.294  0.1977 -0.1854  0.2584
  801BOLB   PO219214  23.747  25.004  24.382 -0.2308 -0.3597  0.1716
  801BOLB   GL319215  23.499  24.809  24.100  0.0777 -0.1767 -0.0900
  801BOLB   GL419216  23.322  24.987  24.009 -0.1353  0.1224 -0.1435
  801BOLB   C1C19217  23.498  24.524  23.768 -0.0124  0.0533  0.0386
  801BOLB   C2C19218  23.322  24.168  23.518  0.2667  0.0914 -0.1402
  801BOLB   C3C19219  23.063  24.292  23.165 -0.2421 -0.2492  0.0788
  801BOLB   C4C19220  22.787  24.284  22.827 -0.1689  0.0714 -0.1980
  801BOLB   C1D19221  22.943  24.886  23.821 -0.1246  0.0012  0.1003
  801BOLB   C2D19222  22.870  24.753  23.390 -0.0700 -0.1468 -0.2423
  801BOLB   C3D19223  23.078  24.775  23.013 -0.1572  0.1722 -0.2958
  801BOLB   C4D19224  22.956  24.723  22.545 -0.1355 -0.3158 -0.3771
  802BOLB   NC119225  24.197  12.007  18.021  0.1203 -0.0093 -0.0640
  802BOLB   PO119226  23.900  11.607  18.009 -0.1848 -0.0676 -0.0685
  802BOLB   GL119227  24.013  11.200  17.920 -0.2092  0.0471 -0.0196
  802BOLB   GL219228  24.089  10.911  18.217 -0.0080 -0.0880 -0.1574
  802BOLB   C1A19229  24.313  10.868  17.784  0.1273 -0.2081 -0.3223
  802BOLB   C2A19230  24.709  10.833  17.844  0.2357  0.0569  0.3694
  802BOLB   C3A19231  24.897  10.465  17.878 -0.2605 -0.2135  0.5119
  802BOLB   C4A19232  25.249  10.252  18.079 -0.1494 -0.0866 -0.1592
  802BOLB   C1B19233  24.145  10.470  18.102  0.2855  0.0037 -0.2206
  802BOLB   C2B19234  24.433  10.345  18.048 -0.3414  0.2186  0.1956
  802BOLB   C3B19235  24.473  10.119  17.660  0.1104 -0.0216  0.0720
  802BOLB   C4B19236  24.483   9.722  17.546  0.1172 -0.2660  0.0758
  802BOLB   NC219237  26.086   8.302  19.295 -0.1128 -0.1868  0.2966
  802BOLB   PO219238  26.563   8.388  19.191 -0.0858  0.0680  0.1716
  802BOLB   GL319239  26.264   8.671  18.971  0.0305 -0.1066 -0.0232
  802BOLB   GL419240  26.236   8.913  19.279 -0.1117 -0.0658  0.3148
  802BOLB   C1C19241  26.081   9.061  18.816 -0.4925 -0.4755 -0.0332
  802BOLB   C2C19242  25.912   9.381  18.616 -0.1599  0.3219 -0.0104
  802BOLB   C3C19243  25.876   9.759  18.331  0.3854 -0.1434  0.0200
  802BOLB   C4C19244  25.542  10.034  18.184  0.0495  0.0825  0.0275
  802BOLB   C1D19245  26.311   9.346  19.168 -0.0259  0.3631 -0.2117
  802BOLB   C2D19246  26.350   9.606  19.510 -0.1706 -0.0151  0.0473
  802BOLB   C3D19247  26.581  10.008  19.463 -0.1323 -0.1906 -0.1475
  802BOLB   C4D19248  26.937  10.279  19.328 -0.0107  0.2103 -0.1740
  803BOLB   NC119249  23.670  15.583  22.495 -0.2977 -0.1033 -0.1495
  803BOLB   PO119250  23.820  15.394  22.820 -0.0301  0.1299  0.1263
  803BOLB   GL119251  23.861  15.255  23.178  0.0426  0.0582  0.0859
  803BOLB   GL219252  23.976  15.489  23.382 -0.2010  0.0717 -0.0405
  803BOLB   C1A19253  23.791  15.093  23.571 -0.1383  0.0177  0.0556
  803BOLB   C2A19254  23.772  14.905  24.008 -0.5001 -0.2431 -0.0848
  803BOLB   C3A19255  23.668  14.875  24.425  0.0337  0.0544  0.0426
  803BOLB   C4A19256  23.572  14.925  24.853 -0.4260  0.1213 -0.0878
  803BOLB   C1B19257  24.012  15.448  23.802 -0.1046  0.1298 -0.2071
  803BOLB   C2B19258  23.902  15.333  24.272 -0.2128 -0.1357  0.0732
  803BOLB   C3B19259  24.040  15.142  24.617 -0.2538 -0.2298 -0.0288
  803BOLB   C4B19260  24.089  14.955  25.003 -0.1233  0.2216 -0.2198
  803BOLB   NC219261  23.889  15.084  27.037 -0.0839 -0.0740  0.0595
  803BOLB   PO219262  24.396  15.061  26.913  0.1694  0.0762  0.1863
  803BOLB   GL319263  24.112  15.390  26.708  0.0458 -0.2486 -0.2207
  803BOLB   GL419264  24.359  15.602  26.740  0.0973  0.2454 -0.3758
  803BOLB   C1C19265  23.692  15.442  26.508 -0.0483  0.3855  0.3547
  803BOLB   C2C19266  23.508  15.376  26.010 -0.1294  0.0093 -0.2415
  803BOLB   C3C19267  23.491  15.216  25.599  0.0205 -0.1170  0.0117
  803BOLB   C4C19268  23.593  15.241  25.187 -0.1871  0.1796 -0.4810
  803BOLB   C1D19269  24.109  15.906  26.535  0.3227  0.2703 -0.0409
  803BOLB   C2D19270  24.092  15.843  26.068  0.0006  0.1865  0.0565
  803BOLB   C3D19271  24.001  15.610  25.705  0.0338 -0.0899 -0.2851
  803BOLB   C4D19272  23.696  15.680  25.439 -0.2051 -0.0025  0.1345
  804BOLB   NC119273  25.501  23.002  21.018 -0.3303  0.2175 -0.1926
  804BOLB   PO119274  25.508  23.410  21.183  0.2505  0.1377  0.3404
  804BOLB   GL119275  25.099  23.141  21.256  0.0642  0.1704 -0.0638
  804BOLB   GL219276  25.108  22.858  21.387  0.2020  0.1509 -0.0825
  804BOLB   C1A19277  24.840  23.210  21.585  0.1962  0.2978  0.0916
  804BOLB   C2A19278  24.649  23.258  21.981 -0.1235  0.0688 -0.4088
  804BOLB   C3A19279  24.490  23.081  22.265 -0.1808  0.1935 -0.3312
  804BOLB   C4A19280  24.532  22.655  22.586  0.2772 -0.2078 -0.0971
  804BOLB   C1B19281  24.988  22.425  21.507  0.0685 -0.0632  0.0015
  804BOLB   C2B19282  24.644  22.264  21.574 -0.1300  0.1994 -0.0155
  804BOLB   C3B19283  24.294  22.315  21.574  0.1921  0.0430 -0.1239
  804BOLB   C4B19284  23.980  22.353  21.285  0.2108  0.1595  0.2920
  804BOLB   NC219285  24.889  23.067  24.762 -0.1296  0.0318  0.0502
  804BOLB   PO219286  25.134  22.700  24.725 -0.0869 -0.1088  0.1491
  804BOLB   GL319287  24.919  22.496  24.444  0.0053 -0.0495  0.3700
  804BOLB   GL419288  24.928  22.129  24.505 -0.1924 -0.3515 -0.1497
  804BOLB   C1C19289  24.533  22.569  24.202 -0.1506  0.0049  0.1830
  804BOLB   C2C19290  24.530  22.661  23.698  0.2922 -0.0018  0.1576
  804BOLB   C3C19291  24.538  22.604  23.326  0.0118 -0.0982  0.1228
  804BOLB   C4C19292  24.548  22.446  22.882 -0.2837  0.3597  0.0164
  804BOLB   C1D19293  24.918  21.714  24.351  0.0575  0.3703 -0.5427
  804BOLB   C2D19294  24.911  21.262  24.105  0.0590  0.0670 -0.1863
  804BOLB   C3D19295  24.620  21.432  23.676  0.2249  0.1357 -0.0484
  804BOLB   C4D19296  24.266  21.746  23.710  0.2111 -0.0814  0.4430
  805BOLB   NC119297  23.716  27.181  20.528 -0.2418 -0.4017  0.0353
  805BOLB   PO119298  23.412  27.107  20.158 -0.2438 -0.2411 -0.4890
  805BOLB   GL119299  23.337  26.855  20.508  0.0767 -0.0212  0.3676
  805BOLB   GL219300  23.136  27.075  20.605  0.1479  0.1022 -0.2601
  805BOLB   C1A19301  23.049  26.506  20.464  0.2168 -0.0458 -0.0301
  805BOLB   C2A19302  22.640  26.393  20.395  0.1510 -0.0488 -0.2611
  805BOLB   C3A19303  22.260  26.268  20.685 -0.3411  0.1452 -0.3821
  805BOLB   C4A19304  21.798  26.290  20.588 -0.4700 -0.1343  0.2059
  805BOLB   C1B19305  22.772  26.984  20.429  0.1027 -0.0241 -0.0475
  805BOLB   C2B19306  22.715  26.756  20.105  0.0128  0.2115 -0.2656
  805BOLB   C3B19307  22.460  26.573  19.770  0.6448 -0.1601 -0.1509
  805BOLB   C4B19308  22.181  26.325  19.469  0.1805 -0.1611 -0.2538
  805BOLB   NC219309  21.705  28.553  19.542 -0.1617  0.1140  0.2164
  805BOLB   PO219310  21.792  28.094  19.410 -0.0326 -0.2891 -0.0951
  805BOLB   GL319311  21.811  27.730  19.656  0.0553  0.2141  0.0574
  805BOLB   GL419312  21.663  27.513  19.497 -0.0008  0.0815  0.2809
  805BOLB   C1C19313  21.859  27.496  20.008  0.1575 -0.0066 -0.0227
  805BOLB   C2C19314  21.713  27.183  20.321 -0.1922  0.0204  0.2551
  805BOLB   C3C19315  21.658  26.839  20.166 -0.0673  0.0347 -0.0238
  805BOLB   C4C19316  21.555  26.478  20.299  0.0997 -0.2971  0.1423
  805BOLB   C1D19317  21.638  27.138  19.173 -0.1197 -0.0106  0.3631
  805BOLB   C2D19318  21.639  27.187  18.672 -0.1577 -0.0564  0.1963
  805BOLB   C3D19319  21.689  26.986  18.288 -0.3565 -0.1568  0.0765
  805BOLB   C4D19320  21.570  26.610  18.137  0.1340 -0.1213  0.0551
  806BOLB   NC119321  25.338  12.410  17.408 -0.2855  0.0903  0.2790
  806BOLB   PO119322  25.520  12.336  17.783  0.3081  0.0441  0.1751
  806BOLB   GL119323  25.483  11.934  17.867 -0.0112 -0.0755 -0.0282
  806BOLB   GL219324  25.239  11.751  17.684 -0.3067  0.2560  0.2070
  806BOLB   C1A19325  25.698  11.535  17.994 -0.0909 -0.0217 -0.0896
  806BOLB   C2A19326  25.569  11.220  17.894 -0.0941  0.4369 -0.1796
  806BOLB   C3A19327  25.600  10.794  17.968  0.2273 -0.3473  0.0491
  806BOLB   C4A19328  25.598  10.388  17.760  0.0034 -0.0060 -0.0994
  806BOLB   C1B19329  25.051  11.331  17.668  0.1108 -0.0228 -0.1142
  806BOLB   C2B19330  25.229  10.827  17.630 -0.1445 -0.1808 -0.1191
  806BOLB   C3B19331  25.213  10.341  17.459  0.2138 -0.3924 -0.1346
  806BOLB   C4B19332  25.024  10.021  17.689  0.1059  0.0863  0.1211
  806BOLB   NC219333  27.798   9.392  18.512  0.0723  0.3621 -0.1179
  806BOLB   PO219334  27.676   9.097  18.167  0.0617 -0.1998 -0.3823
  806BOLB   GL319335  27.312   9.337  18.188 -0.0418 -0.1346 -0.2551
  806BOLB   GL419336  27.201   9.573  18.453 -0.2878 -0.1950 -0.2899
  806BOLB   C1C19337  26.873   9.280  18.049 -0.1682  0.0703  0.1115
  806BOLB   C2C19338  26.474   9.417  17.758 -0.1506  0.4957 -0.2177
  806BOLB   C3C19339  26.059   9.681  17.806  0.0190  0.1338 -0.1921
  806BOLB   C4C19340  25.628   9.939  17.696 -0.0764  0.1664 -0.1018
  806BOLB   C1D19341  26.857   9.417  18.500  0.0806 -0.1213 -0.1331
  806BOLB   C2D19342  26.403   9.611  18.712 -0.3227  0.1025 -0.0330
  806BOLB   C3D19343  26.021   9.890  18.759  0.1346 -0.2234 -0.0258
  806BOLB   C4D19344  25.831  10.163  18.589  0.0710  0.0447  0.0246
  807BOLB   NC119345  23.924  11.319  18.393 -0.0344 -0.2510  0.1078
  807BOLB   PO119346  23.721  11.405  18.645 -0.3063 -0.4980  0.0860
  807BOLB   GL119347  23.735  11.090  18.853  0.0336 -0.0183 -0.1123
  807BOLB   GL219348  23.949  10.826  18.743  0.0792  0.0638 -0.1745
  807BOLB   C1A19349  23.748  10.851  19.316 -0.0922 -0.0340  0.2203
  807BOLB   C2A19350  23.773  10.406  19.344 -0.0590  0.0397 -0.3116
  807BOLB   C3A19351  23.797  10.098  19.658 -0.3211 -0.2377  0.1236
  807BOLB   C4A19352  23.842   9.618  19.863  0.1537 -0.0785  0.2195
  807BOLB   C1B19353  24.243  10.593  18.587  0.1597  0.0981 -0.1617
  807BOLB   C2B19354  24.216  10.120  18.508  0.1611 -0.0033  0.1297
  807BOLB   C3B19355  24.250   9.803  18.584  0.0695 -0.0856 -0.2488
  807BOLB   C4B19356  24.280   9.294  18.710 -0.0109 -0.1638 -0.0772
  807BOLB   NC219357  24.640   7.487  20.370 -0.1765  0.2148  0.2002
  807BOLB   PO219358  24.380   7.760  20.142  0.0111 -0.0236 -0.0877
  807BOLB   GL319359  24.376   7.931  19.666 -0.3085 -0.0436 -0.2710
  807BOLB   GL419360  24.504   7.986  19.350 -0.0139  0.3323 -0.1657
  807BOLB   C1C19361  23.987   8.002  19.484 -0.1957  0.0811  0.0509
  807BOLB   C2C19362  23.844   8.429  19.344 -0.0274  0.0101  0.1012
  807BOLB   C3C19363  23.711   8.851  19.359  0.2875 -0.1077 -0.0220
  807BOLB   C4C19364  23.733   9.198  19.632 -0.0938 -0.1138 -0.0099
  807BOLB   C1D19365  24.588   8.482  19.456 -0.0418 -0.0984  0.0485
  807BOLB   C2D19366  24.692   8.921  19.252  0.0733  0.0139  0.2458
  807BOLB   C3D19367  25.097   9.041  19.165  0.3740 -0.1757  0.3220
  807BOLB   C4D19368  25.171   9.465  18.962 -0.0712 -0.0535 -0.1033
  808BOLB   NC119369  25.660  23.267  21.899  0.1431 -0.1337  0.2086
  808BOLB   PO119370  25.539  23.069  21.563  0.6636 -0.1527  0.1257
  808BOLB   GL119371  25.178  22.896  21.842 -0.1498  0.2179 -0.1248
  808BOLB   GL219372  25.369  22.641  21.904  0.0297 -0.1247 -0.0858
  808BOLB   C1A19373  24.934  22.635  22.270 -0.1953  0.2328  0.2940
  808BOLB   C2A19374  24.828  22.264  22.464  0.2646 -0.3526  0.0233
  808BOLB   C3A19375  24.806  21.985  22.885 -0.0609  0.1917 -0.2367
  808BOLB   C4A19376  24.587  21.677  23.069  0.0913 -0.2098 -0.1448
  808BOLB   C1B19377  24.922  22.276  21.981 -0.3171 -0.0976  0.1997
  808BOLB   C2B19378  24.501  21.985  21.975 -0.0102 -0.2757 -0.1442
  808BOLB   C3B19379  24.307  21.662  21.995  0.3584 -0.2624 -0.1057
  808BOLB   C4B19380  24.636  21.416  21.995 -0.0093 -0.0901  0.0783
  808BOLB   NC219381  25.926  21.431  24.266 -0.1897 -0.1925 -0.2292
  808BOLB   PO219382  25.857  21.012  24.405 -0.2271 -0.3771  0.1450
  808BOLB   GL319383  25.494  20.740  24.154 -0.3420  0.2151  0.1590
  808BOLB   GL419384  25.512  20.447  24.194 -0.1095  0.2057  0.0349
  808BOLB   C1C19385  25.123  20.805  23.972 -0.0396  0.0284  0.2225
  808BOLB   C2C19386  24.947  20.878  23.500 -0.1439  0.1384  0.2812
  808BOLB   C3C19387  24.534  21.009  23.340 -0.0367  0.1996 -0.0025
  808BOLB   C4C19388  24.335  21.321  23.117 -0.3834  0.0800  0.1015
  808BOLB   C1D19389  25.210  20.182  23.909  0.0247 -0.2498 -0.0286
  808BOLB   C2D19390  25.050  19.872  23.570  0.1796 -0.4228  0.3385
  808BOLB   C3D19391  25.241  19.809  23.230  0.0232  0.1924 -0.0852
  808BOLB   C4D19392  25.511  19.406  23.071  0.1323  0.0225 -0.1670
  809BOLB   NC119393  24.289  12.853  20.830 -0.1542  0.0371  0.1230
  809BOLB   PO119394  24.187  12.473  20.775  0.0134  0.4063  0.0209
  809BOLB   GL119395  24.242  12.240  21.196 -0.5592 -0.2460 -0.0693
  809BOLB   GL219396  24.002  12.256  21.314  0.0518  0.2609 -0.2900
  809BOLB   C1A19397  24.429  11.880  21.376  0.0753  0.0620  0.2079
  809BOLB   C2A19398  24.329  11.527  21.501  0.1090 -0.1801 -0.0302
  809BOLB   C3A19399  24.265  11.099  21.729 -0.2599  0.2619  0.0038
  809BOLB   C4A19400  24.228  10.679  21.923  0.1849 -0.2496 -0.1164
  809BOLB   C1B19401  23.953  11.908  21.608  0.3120 -0.1946  0.2647
  809BOLB   C2B19402  23.972  11.558  21.863  0.1399  0.0765 -0.1734
  809BOLB   C3B19403  24.182  11.435  22.209 -0.2013  0.2039 -0.1263
  809BOLB   C4B19404  24.353  11.803  22.498  0.3373  0.0604  0.4512
  809BOLB   NC219405  25.264   9.656  24.048 -0.0319  0.1584 -0.0170
  809BOLB   PO219406  24.797   9.801  24.121 -0.0327  0.0117  0.1210
  809BOLB   GL319407  24.693  10.130  23.847  0.4427  0.0175  0.2509
  809BOLB   GL419408  24.612  10.415  23.813 -0.1305  0.0700 -0.1929
  809BOLB   C1C19409  24.365  10.079  23.491 -0.3673 -0.1566 -0.1661
  809BOLB   C2C19410  24.140  10.317  23.232  0.2808 -0.0195 -0.2273
  809BOLB   C3C19411  24.326  10.529  22.804 -0.0183 -0.1955  0.0853
  809BOLB   C4C19412  24.407  10.487  22.340  0.1387 -0.2916  0.0024
  809BOLB   C1D19413  24.426  10.672  23.616 -0.3823 -0.2390  0.1241
  809BOLB   C2D19414  24.240  10.901  23.360 -0.1135 -0.1655  0.1579
  809BOLB   C3D19415  24.085  10.922  22.966 -0.5410 -0.1277 -0.0735
  809BOLB   C4D19416  23.630  10.904  22.857  0.1619 -0.1268  0.0010
  810BOLB   NC119417  26.372  12.763  18.097  0.1552 -0.1570 -0.0546
  810BOLB   PO119418  26.601  12.525  17.752  0.0427  0.3577 -0.3522
  810BOLB   GL119419  26.429  12.116  17.821  0.2848 -0.0691 -0.0635
  810BOLB   GL219420  26.570  11.888  18.132 -0.0054 -0.2060 -0.1290
  810BOLB   C1A19421  26.048  11.875  17.777 -0.0508 -0.0851  0.0566
  810BOLB   C2A19422  26.061  11.425  17.713 -0.0357  0.0840 -0.2470
  810BOLB   C3A19423  26.033  11.060  17.813 -0.2432 -0.3538  0.1643
  810BOLB   C4A19424  25.995  10.608  17.607 -0.1751  0.1193 -0.2608
  810BOLB   C1B19425  26.600  11.633  17.813 -0.0630 -0.2117 -0.2250
  810BOLB   C2B19426  26.532  11.385  17.487  0.1380 -0.2457  0.0155
  810BOLB   C3B19427  26.850  11.101  17.255  0.0312 -0.0672  0.0400
  810BOLB   C4B19428  27.008  11.032  16.852 -0.1467  0.1503  0.0501
  810BOLB   NC219429  28.226  10.113  18.483 -0.3698  0.1198  0.2433
  810BOLB   PO219430  28.014   9.845  18.113 -0.1637 -0.0511 -0.1105
  810BOLB   GL319431  27.520   9.904  18.171 -0.1950  0.2686  0.2981
  810BOLB   GL419432  27.328  10.228  18.252 -0.0728  0.2569  0.3639
  810BOLB   C1C19433  27.221   9.676  17.892  0.1908 -0.0372  0.0788
  810BOLB   C2C19434  26.828   9.798  17.674  0.0490  0.0568  0.2139
  810BOLB   C3C19435  26.420   9.967  17.711 -0.0609  0.1070 -0.0676
  810BOLB   C4C19436  26.098  10.191  17.702 -0.4393  0.1986 -0.1316
  810BOLB   C1D19437  26.970  10.113  18.044 -0.1417 -0.0212 -0.2116
  810BOLB   C2D19438  26.646   9.730  18.104 -0.0663 -0.0175  0.1558
  810BOLB   C3D19439  26.285   9.468  18.231 -0.1532 -0.0067  0.2576
  810BOLB   C4D19440  26.279   8.987  18.247  0.0369  0.1650 -0.0280
  811BOLB   NC119441  25.746  15.986  21.600 -0.2063 -0.0531  0.2260
  811BOLB   PO119442  25.911  15.920  22.066  0.1292 -0.1833  0.1240
  811BOLB   GL119443  25.950  16.001  22.517  0.0488 -0.0140 -0.2114
  811BOLB   GL219444  25.811  16.246  22.587 -0.2450 -0.2749 -0.2187
  811BOLB   C1A19445  26.052  15.900  22.933  0.1202  0.0701  0.2648
  811BOLB   C2A19446  26.270  16.073  23.304  0.2095  0.0180 -0.0680
  811BOLB   C3A19447  26.111  15.867  23.715  0.0190 -0.0124 -0.0280
  811BOLB   C4A19448  26.143  15.843  24.106 -0.2902 -0.0105 -0.0817
  811BOLB   C1B19449  25.673  16.227  23.008  0.1215  0.0150 -0.0740
  811BOLB   C2B19450  25.813  16.191  23.485  0.1722 -0.3733 -0.2006
  811BOLB   C3B19451  25.972  16.304  23.930  0.0217 -0.2888  0.0220
  811BOLB   C4B19452  25.896  16.523  24.270  0.1070 -0.2035  0.1826
  811BOLB   NC219453  26.353  15.644  26.181 -0.1944 -0.1586  0.0265
  811BOLB   PO219454  25.875  15.534  26.212  0.0192 -0.2349 -0.5551
  811BOLB   GL319455  25.642  15.758  26.081 -0.2557 -0.0428 -0.0252
  811BOLB   GL419456  25.392  15.898  26.182  0.3290  0.0818 -0.0218
  811BOLB   C1C19457  25.642  15.962  25.707 -0.1833  0.2706 -0.0567
  811BOLB   C2C19458  25.636  16.028  25.237 -0.2844  0.5468 -0.0785
  811BOLB   C3C19459  25.770  16.052  24.838  0.1366  0.3055 -0.0123
  811BOLB   C4C19460  26.055  15.982  24.486 -0.0072 -0.0273  0.2995
  811BOLB   C1D19461  25.184  16.011  25.862  0.3024  0.0180  0.0376
  811BOLB   C2D19462  25.248  15.788  25.440  0.2073  0.1041  0.1412
  811BOLB   C3D19463  25.282  15.812  24.979 -0.1339 -0.3258 -0.1525
  811BOLB   C4D19464  25.497  15.636  24.745 -0.0319 -0.0500 -0.0140
  812BOLB   NC119465  21.861  10.362  18.990  0.1142  0.2157  0.3522
  812BOLB   PO119466  22.052  10.687  19.123 -0.1340  0.0991 -0.2362
  812BOLB   GL119467  22.359  10.388  19.004 -0.2545 -0.2169 -0.2226
  812BOLB   GL219468  22.500  10.421  19.270  0.0089  0.0212 -0.2591
  812BOLB   C1A19469  22.538  10.048  18.801  0.1512  0.4274 -0.1258
  812BOLB   C2A19470  22.650   9.669  18.758 -0.1735  0.1508 -0.0583
  812BOLB   C3A19471  22.699   9.332  18.846  0.1577  0.0301 -0.0351
  812BOLB   C4A19472  22.843   9.139  19.231 -0.1050  0.4278  0.2867
  812BOLB   C1B19473  22.767  10.053  19.244 -0.1319 -0.1705 -0.1054
  812BOLB   C2B19474  22.953   9.671  19.238  0.0996  0.1661 -0.3386
  812BOLB   C3B19475  23.260   9.487  19.375 -0.3257  0.2070  0.0459
  812BOLB   C4B19476  23.672   9.625  19.412 -0.0668 -0.1097 -0.0793
  812BOLB   NC219477  24.366   6.510  19.747  0.2767  0.1544 -0.1864
  812BOLB   PO219478  24.339   6.948  19.578 -0.2987 -0.1954 -0.1005
  812BOLB   GL319479  23.956   7.200  19.592 -0.0456 -0.3849  0.0936
  812BOLB   GL419480  24.073   7.467  19.873 -0.0542 -0.0094 -0.0122
  812BOLB   C1C19481  23.721   7.541  19.391  0.6422  0.1466  0.0421
  812BOLB   C2C19482  23.442   7.911  19.317  0.2219 -0.0719 -0.0260
  812BOLB   C3C19483  23.200   8.251  19.255  0.2393  0.0524 -0.0429
  812BOLB   C4C19484  23.051   8.709  19.282  0.1355 -0.0406  0.0807
  812BOLB   C1D19485  23.802   7.880  19.898  0.2256  0.1269  0.0403
  812BOLB   C2D19486  23.603   8.234  19.743 -0.0500 -0.2072 -0.2082
  812BOLB   C3D19487  23.373   8.526  19.654  0.1963  0.0936 -0.2239
  812BOLB   C4D19488  23.296   9.037  19.606  0.0477  0.2301  0.0449
  813BOLB   NC119489  26.818  12.449  19.197  0.1370  0.0805 -0.0636
  813BOLB   PO119490  26.556  12.754  19.355 -0.0574  0.0243 -0.1996
  813BOLB   GL119491  26.528  12.344  19.582  0.2525  0.3309  0.0600
  813BOLB   GL219492  26.733  12.057  19.577  0.1780 -0.0888  0.0571
  813BOLB   C1A19493  26.197  11.990  19.600  0.0157  0.0124 -0.3162
  813BOLB   C2A19494  25.960  11.674  19.614  0.3233  0.0368 -0.1049
  813BOLB   C3A19495  25.913  11.293  19.701  0.1887  0.5140  0.0661
  813BOLB   C4A19496  26.132  10.899  19.882  0.1695  0.1181  0.0432
  813BOLB   C1B19497  26.732  11.813  19.938  0.2905  0.0957 -0.0580
  813BOLB   C2B19498  26.769  11.568  20.213 -0.2748 -0.0359  0.1370
  813BOLB   C3B19499  26.734  11.197  20.449 -0.2173  0.1531 -0.1850
  813BOLB   C4B19500  26.632  10.772  20.583 -0.4646 -0.1432 -0.2098
  813BOLB   NC219501  27.871   9.649  21.097 -0.0088  0.1505 -0.0066
  813BOLB   PO219502  27.679   9.941  20.921 -0.0992 -0.2197 -0.1581
  813BOLB   GL319503  27.255  10.152  20.905  0.0201  0.1043 -0.0808
  813BOLB   GL419504  27.070  10.082  21.200  0.0832 -0.0989 -0.1503
  813BOLB   C1C19505  26.973   9.976  20.621  0.0937 -0.3256 -0.0498
  813BOLB   C2C19506  26.696  10.106  20.424 -0.1443 -0.1377  0.0923
  813BOLB   C3C19507  26.760  10.508  20.131  0.1260 -0.0556 -0.0484
  813BOLB   C4C19508  26.525  10.864  20.010 -0.0481  0.1631 -0.2508
  813BOLB   C1D19509  26.783  10.326  20.951 -0.3526 -0.0644  0.0910
  813BOLB   C2D19510  26.323  10.514  20.935 -0.2184  0.4155  0.1516
  813BOLB   C3D19511  26.082  10.745  21.069 -0.0511 -0.0236 -0.0492
  813BOLB   C4D19512  25.667  10.853  21.084  0.0579 -0.3517 -0.0120
  814BOLB   NC119513  23.490  13.340  21.910  0.4497  0.0235  0.3964
  814BOLB   PO119514  23.775  13.316  22.286  0.1892  0.1010  0.4509
  814BOLB   GL119515  24.087  13.035  22.162  0.1002  0.0563  0.1597
  814BOLB   GL219516  24.056  12.697  22.307  0.1043 -0.3437  0.0283
  814BOLB   C1A19517  24.513  12.872  22.068 -0.0312 -0.2619  0.0874
  814BOLB   C2A19518  24.616  12.747  22.411 -0.0128  0.2102 -0.1758
  814BOLB   C3A19519  24.703  12.804  22.860 -0.1297  0.3120 -0.1429
  814BOLB   C4A19520  24.782  12.460  23.215 -0.1045  0.1680  0.1979
  814BOLB   C1B19521  24.293  12.579  22.698  0.0436 -0.0858 -0.0317
  814BOLB   C2B19522  24.572  12.272  22.759  0.1452 -0.1481  0.0242
  814BOLB   C3B19523  24.737  11.928  22.783  0.0176 -0.0090 -0.0198
  814BOLB   C4B19524  24.780  11.760  23.236 -0.2894 -0.1944  0.0359
  814BOLB   NC219525  25.470  11.992  25.511 -0.0077 -0.0431  0.0725
  814BOLB   PO219526  25.231  11.754  25.317  0.2936  0.1548  0.2442
  814BOLB   GL319527  25.336  11.765  24.883 -0.1591 -0.0589 -0.3089
  814BOLB   GL419528  25.656  11.680  24.690 -0.2337 -0.1199 -0.1031
  814BOLB   C1C19529  25.124  11.690  24.454 -0.1718 -0.3020 -0.2378
  814BOLB   C2C19530  25.097  12.029  24.187  0.2473 -0.3838  0.4192
  814BOLB   C3C19531  25.221  12.169  23.774  0.1085  0.1850  0.0318
  814BOLB   C4C19532  25.032  12.200  23.302 -0.1155  0.1794 -0.1367
  814BOLB   C1D19533  25.576  11.922  24.376 -0.1103  0.0761 -0.0130
  814BOLB   C2D19534  25.529  12.361  24.257 -0.0700 -0.3372 -0.0504
  814BOLB   C3D19535  25.141  12.541  24.122 -0.2635  0.0694 -0.3388
  814BOLB   C4D19536  24.946  12.587  23.699  0.0558 -0.3167  0.3141
  815BOLB   NC119537  23.363  15.219  22.990  0.2280  0.0017 -0.0383
  815BOLB   PO119538  22.995  14.932  23.107 -0.0345 -0.2535 -0.1065
  815BOLB   GL119539  23.185  15.165  23.481  0.0184  0.5731  0.1567
  815BOLB   GL219540  23.410  15.380  23.468 -0.2851  0.0142 -0.3829
  815BOLB   C1A19541  23.367  14.878  23.758  0.3851 -0.0719  0.2282
  815BOLB   C2A19542  23.108  14.814  24.101 -0.2537  0.1162 -0.2744
  815BOLB   C3A19543  23.108  14.567  24.523 -0.2552  0.0577 -0.1431
  815BOLB   C4A19544  23.009  14.499  24.999  0.0322  0.0049  0.1320
  815BOLB   C1B19545  23.467  15.364  23.902  0.0459  0.0404  0.1588
  815BOLB   C2B19546  23.306  15.250  24.253 -0.0872  0.2374  0.2801
  815BOLB   C3B19547  23.512  15.351  24.575  0.0497  0.1581 -0.1647
  815BOLB   C4B19548  23.820  15.559  24.840  0.0861 -0.0868 -0.3964
  815BOLB   NC219549  23.952  14.203  27.356 -0.0302 -0.2790 -0.1103
  815BOLB   PO219550  23.758  14.460  27.052  0.1468 -0.0281 -0.1542
  815BOLB   GL319551  23.583  14.745  26.746 -0.3580  0.0499  0.0187
  815BOLB   GL419552  23.348  14.438  26.626 -0.2475  0.4197 -0.1630
  815BOLB   C1C19553  23.436  15.017  26.413 -0.2140  0.0485  0.0561
  815BOLB   C2C19554  23.069  14.927  26.264  0.0116  0.1682  0.2791
  815BOLB   C3C19555  22.905  14.585  25.873  0.0822  0.1023 -0.3101
  815BOLB   C4C19556  23.128  14.450  25.427 -0.1081 -0.1730 -0.1289
  815BOLB   C1D19557  23.216  14.402  26.242 -0.2556 -0.1558 -0.0311
  815BOLB   C2D19558  23.336  14.306  25.862  0.2459 -0.3183  0.2799
  815BOLB   C3D19559  23.490  14.075  25.469  0.4037  0.2069 -0.0522
  815BOLB   C4D19560  23.465  14.444  25.079 -0.0680 -0.1103  0.0489
  816BOLB   NC119561  23.996  14.039  21.633  0.1734  0.1777  0.1012
  816BOLB   PO119562  24.360  13.859  21.764 -0.0747 -0.1090 -0.1077
  816BOLB   GL119563  24.733  13.792  22.126  0.1210 -0.4702  0.1821
  816BOLB   GL219564  25.131  13.746  21.940  0.0838  0.2407 -0.1655
  816BOLB   C1A19565  24.901  14.017  22.465  0.1623  0.1839  0.4508
  816BOLB   C2A19566  24.847  13.713  22.769  0.3358  0.2031  0.3659
  816BOLB   C3A19567  24.852  13.567  23.272  0.3096  0.2719 -0.1394
  816BOLB   C4A19568  24.886  13.297  23.692  0.3962  0.2778  0.1296
  816BOLB   C1B19569  25.156  13.598  22.358 -0.0423  0.1463 -0.0687
  816BOLB   C2B19570  25.027  13.226  22.765  0.2031  0.0959  0.3969
  816BOLB   C3B19571  25.033  13.095  23.069  0.0127 -0.1570  0.0479
  816BOLB   C4B19572  24.814  12.960  23.395  0.1017  0.1741 -0.0311
  816BOLB   NC219573  26.157  12.532  25.536  0.1319 -0.0975  0.0858
  816BOLB   PO219574  25.849  12.329  25.510 -0.4526  0.1083  0.1518
  816BOLB   GL319575  25.508  12.541  25.403  0.3680 -0.0235 -0.0236
  816BOLB   GL419576  25.746  12.804  25.347 -0.3156 -0.2251  0.0479
  816BOLB   C1C19577  25.454  12.674  24.973  0.1752  0.3645 -0.1209
  816BOLB   C2C19578  25.257  12.663  24.627  0.1178  0.1136 -0.1590
  816BOLB   C3C19579  25.167  12.992  24.366  0.1660 -0.1095  0.2612
  816BOLB   C4C19580  24.953  12.988  23.978  0.3808  0.2298  0.1128
  816BOLB   C1D19581  25.566  13.168  25.218  0.3067  0.1604  0.2971
  816BOLB   C2D19582  25.378  13.447  24.969 -0.0604 -0.1037  0.5167
  816BOLB   C3D19583  25.360  13.668  24.626  0.2447  0.4942 -0.0320
  816BOLB   C4D19584  25.209  13.921  24.169  0.1412 -0.1919  0.2430
  817BOLB   NC119585  22.272  17.674  22.521 -0.2350 -0.0661 -0.2420
  817BOLB   PO119586  22.603  17.649  22.872  0.0181 -0.2063 -0.2152
  817BOLB   GL119587  22.919  17.382  23.167 -0.1809 -0.1383 -0.0288
  817BOLB   GL219588  23.005  17.059  23.268 -0.1647  0.0599 -0.0779
  817BOLB   C1A19589  23.077  17.408  23.602 -0.0076  0.2070  0.0263
  817BOLB   C2A19590  23.209  17.590  24.029 -0.0963  0.2129 -0.0943
  817BOLB   C3A19591  23.324  17.813  24.483  0.0365 -0.1148  0.3124
  817BOLB   C4A19592  23.104  17.737  24.899  0.0200  0.0330 -0.1528
  817BOLB   C1B19593  23.235  16.924  23.672  0.0819  0.0770  0.1151
  817BOLB   C2B19594  23.321  17.049  24.088 -0.3005 -0.3489  0.0551
  817BOLB   C3B19595  23.403  17.001  24.515 -0.4940  0.1829 -0.3291
  817BOLB   C4B19596  23.688  16.912  24.931 -0.2670  0.1664 -0.0524
  817BOLB   NC219597  23.472  17.915  27.393  0.1009  0.2067  0.0166
  817BOLB   PO219598  23.692  18.123  27.100 -0.0825 -0.1795 -0.1444
  817BOLB   GL319599  23.752  18.058  26.586  0.2806  0.4551 -0.3399
  817BOLB   GL419600  23.729  18.246  26.408 -0.1386 -0.1415 -0.1118
  817BOLB   C1C19601  23.574  17.707  26.392  0.0410  0.2105 -0.1306
  817BOLB   C2C19602  23.404  17.456  26.012 -0.0011  0.0087  0.0975
  817BOLB   C3C19603  23.380  17.253  25.590  0.0564 -0.0310  0.3435
  817BOLB   C4C19604  23.373  17.481  25.224 -0.3178  0.0131 -0.1162
  817BOLB   C1D19605  23.620  18.321  26.076 -0.1972 -0.5240 -0.2379
  817BOLB   C2D19606  23.636  18.301  25.634  0.0786  0.3611 -0.0796
  817BOLB   C3D19607  23.825  18.373  25.195  0.0444  0.1306  0.0578
  817BOLB   C4D19608  24.109  18.204  24.863 -0.2426 -0.3543 -0.1394
  818BOLB   NC119609  23.488  18.353  21.638  0.0697  0.0351  0.1083
  818BOLB   PO119610  23.771  18.506  21.949 -0.2135 -0.1176  0.0061
  818BOLB   GL119611  24.180  18.658  21.931  0.3273  0.2626  0.0221
  818BOLB   GL219612  24.459  18.444  21.948 -0.2437 -0.0023 -0.2167
  818BOLB   C1A19613  24.556  18.907  21.876 -0.1189 -0.0332  0.2371
  818BOLB   C2A19614  24.938  19.054  21.794 -0.2877 -0.0598  0.1384
  818BOLB   C3A19615  25.244  19.112  21.523  0.0124 -0.1100 -0.0763
  818BOLB   C4A19616  25.664  19.031  21.229  0.0851  0.0036  0.1170
  818BOLB   C1B19617  24.708  18.470  22.209  0.1922  0.0183  0.1435
  818BOLB   C2B19618  25.023  18.807  22.295  0.3249 -0.1851 -0.1582
  818BOLB   C3B19619  24.825  19.161  22.346 -0.1215 -0.2173  0.0645
  818BOLB   C4B19620  24.751  19.454  22.005 -0.0035 -0.1896  0.0269
  818BOLB   NC219621  27.364  20.217  19.903  0.3463  0.0948  0.0150
  818BOLB   PO219622  27.035  20.521  20.076 -0.0525  0.3035 -0.0787
  818BOLB   GL319623  26.660  20.423  19.982  0.0801 -0.0752  0.0744
  818BOLB   GL419624  26.627  20.516  19.764  0.0928 -0.1263  0.0043
  818BOLB   C1C19625  26.352  20.194  20.175 -0.1110  0.1486  0.0944
  818BOLB   C2C19626  26.236  19.779  20.260 -0.0144 -0.0093  0.1222
  818BOLB   C3C19627  26.219  19.359  20.454  0.1187  0.2081  0.2923
  818BOLB   C4C19628  25.958  19.138  20.718  0.3464  0.2195 -0.0211
  818BOLB   C1D19629  26.334  20.411  19.533 -0.0441  0.0183  0.2202
  818BOLB   C2D19630  26.029  20.635  19.304 -0.2030  0.0321 -0.1165
  818BOLB   C3D19631  25.627  20.610  19.399 -0.3150  0.1814  0.3167
  818BOLB   C4D19632  25.236  20.900  19.406  0.4834 -0.2023 -0.0808
  819BOLB   NC119633  24.981  25.434  22.176 -0.0606  0.0286  0.1259
  819BOLB   PO119634  24.897  25.157  21.753 -0.0234  0.2436  0.1487
  819BOLB   GL119635  24.739  25.030  22.118  0.1522 -0.2110  0.1453
  819BOLB   GL219636  24.610  25.207  22.421  0.3151  0.0223 -0.1474
  819BOLB   C1A19637  24.349  24.895  22.096  0.1258  0.2371 -0.0458
  819BOLB   C2A19638  24.058  24.487  22.128  0.0749  0.1411  0.1530
  819BOLB   C3A19639  23.709  24.452  21.974  0.2606  0.0641 -0.3309
  819BOLB   C4A19640  23.298  24.560  22.228  0.1848  0.3208  0.0004
  819BOLB   C1B19641  24.181  25.302  22.326 -0.1791 -0.0638  0.2737
  819BOLB   C2B19642  23.793  25.373  22.395 -0.2288 -0.1636  0.0128
  819BOLB   C3B19643  23.331  25.274  22.381  0.2123 -0.3736  0.3009
  819BOLB   C4B19644  22.955  25.284  22.559 -0.0357  0.1444  0.1063
  819BOLB   NC219645  24.939  24.674  23.931 -0.2218 -0.0525 -0.2289
  819BOLB   PO219646  24.603  24.736  24.164  0.0433 -0.0828  0.0481
  819BOLB   GL319647  24.291  24.463  23.895 -0.2614 -0.3405  0.2836
  819BOLB   GL419648  24.319  24.047  23.853  0.0601  0.0950 -0.1079
  819BOLB   C1C19649  24.180  24.422  23.493 -0.0503  0.0925 -0.0056
  819BOLB   C2C19650  23.732  24.383  23.282  0.1120  0.2401  0.0297
  819BOLB   C3C19651  23.520  24.713  23.059 -0.2525  0.2865  0.2484
  819BOLB   C4C19652  23.296  24.420  22.731 -0.0977  0.2818  0.2025
  819BOLB   C1D19653  23.890  24.000  23.627 -0.0580 -0.2168  0.0411
  819BOLB   C2D19654  23.689  23.770  23.396  0.0312  0.0986 -0.2976
  819BOLB   C3D19655  23.511  23.500  23.104  0.2006 -0.3854  0.1212
  819BOLB   C4D19656  23.058  23.434  22.845 -0.0600  0.3221  0.0329
  820BOLB   NC119657  26.102  17.513  21.327 -0.1139 -0.2701  0.1987
  820BOLB   PO119658  25.700  17.568  21.651 -0.0811  0.1453  0.0693
  820BOLB   GL119659  25.669  17.814  21.220 -0.2473  0.5021 -0.0750
  820BOLB   GL219660  25.992  17.933  21.049 -0.1825 -0.0417 -0.0324
  820BOLB   C1A19661  25.515  18.232  21.008 -0.3115 -0.2709 -0.0371
  820BOLB   C2A19662  25.434  18.647  21.016 -0.1805  0.1653 -0.1052
  820BOLB   C3A19663  25.292  19.026  20.751  0.0955 -0.1071 -0.1610
  820BOLB   C4A19664  25.195  19.315  20.387 -0.3332  0.1265 -0.2724
  820BOLB   C1B19665  25.776  18.070  20.669 -0.2401  0.0942 -0.4238
  820BOLB   C2B19666  25.641  18.462  20.591  0.0278  0.0511  0.0438
  820BOLB   C3B19667  25.586  18.860  20.376  0.0271  0.2105  0.0662
  820BOLB   C4B19668  25.332  18.907  20.085  0.2264 -0.0083  0.2892
  820BOLB   NC219669  26.982  20.630  20.707 -0.0884 -0.3305  0.0583
  820BOLB   PO219670  26.786  20.992  20.756  0.1420  0.1412  0.2833
  820BOLB   GL319671  26.327  20.951  20.837  0.2543  0.2830 -0.1820
  820BOLB   GL419672  26.322  20.595  20.977  0.3253 -0.0420 -0.1155
  820BOLB   C1C19673  25.874  20.826  20.768 -0.0575 -0.0416 -0.2492
  820BOLB   C2C19674  25.588  20.537  20.518  0.3853 -0.0763  0.2416
  820BOLB   C3C19675  25.601  20.056  20.263  0.0619 -0.1715  0.1221
  820BOLB   C4C19676  25.391  19.759  20.097 -0.1238  0.0274 -0.2080
  820BOLB   C1D19677  25.884  20.429  21.272 -0.1161  0.0518 -0.1226
  820BOLB   C2D19678  25.779  20.270  21.602  0.2495 -0.4583  0.1183
  820BOLB   C3D19679  25.744  19.896  21.842 -0.0001 -0.2590  0.0291
  820BOLB   C4D19680  25.621  19.867  22.227 -0.0391  0.1234  0.2192
  821BOLB   NC119681  24.013  15.930  23.063 -0.3071  0.0306 -0.0990
  821BOLB   PO119682  23.577  15.734  23.094 -0.1625 -0.3028  0.0526
  821BOLB   GL119683  23.571  15.889  23.482  0.1096 -0.0480  0.1892
  821BOLB   GL219684  23.203  16.000  23.538 -0.0213 -0.0057  0.1349
  821BOLB   C1A19685  23.765  15.849  23.866 -0.3029  0.0074  0.1109
  821BOLB   C2A19686  24.117  15.778  24.145  0.0552  0.1848 -0.0659
  821BOLB   C3A19687  24.306  15.642  24.540  0.0676 -0.2315  0.1462
  821BOLB   C4A19688  24.407  15.671  24.860 -0.1018  0.0527 -0.0492
  821BOLB   C1B19689  23.313  15.912  24.037  0.0164  0.0582 -0.0144
  821BOLB   C2B19690  23.608  15.801  24.322  0.1197 -0.0570 -0.0582
  821BOLB   C3B19691  23.933  16.123  24.445 -0.1247 -0.1101 -0.1744
  821BOLB   C4B19692  24.270  16.143  24.648  0.0879  0.0624  0.2564
  821BOLB   NC219693  25.466  14.911  26.845 -0.4922  0.1425 -0.4387
  821BOLB   PO219694  25.117  14.509  26.770 -0.1235  0.1701  0.0217
  821BOLB   GL319695  24.876  14.623  26.383  0.1329  0.3793  0.0302
  821BOLB   GL419696  24.859  14.824  26.068  0.1979  0.2966 -0.1747
  821BOLB   C1C19697  24.439  14.568  26.207  0.0853 -0.1921  0.3393
  821BOLB   C2C19698  24.261  14.745  25.853  0.1934  0.0465  0.1729
  821BOLB   C3C19699  24.115  15.117  25.515  0.2905  0.1506 -0.0134
  821BOLB   C4C19700  24.198  15.485  25.181 -0.3038  0.0219  0.2901
  821BOLB   C1D19701  24.645  15.138  25.844 -0.0833 -0.3866  0.1851
  821BOLB   C2D19702  24.487  15.619  25.748  0.0095  0.3968  0.2148
  821BOLB   C3D19703  24.253  15.985  25.574 -0.1500 -0.1341  0.0288
  821BOLB   C4D19704  23.929  16.049  25.232 -0.1741  0.1827  0.2138
  822BOLB   NC119705  27.551  19.079  21.196 -0.0225 -0.0312 -0.3708
  822BOLB   PO119706  27.301  18.713  21.221  0.3279 -0.4232  0.0284
  822BOLB   GL119707  26.867  18.734  21.258  0.2052  0.1822  0.2476
  822BOLB   GL219708  26.690  18.481  21.094  0.1438  0.5797 -0.2525
  822BOLB   C1A19709  26.459  19.025  21.270  0.0776 -0.1376  0.2473
  822BOLB   C2A19710  26.561  19.442  21.217 -0.2127  0.0078 -0.2825
  822BOLB   C3A19711  26.540  19.917  21.278  0.0161 -0.1067 -0.1384
  822BOLB   C4A19712  26.317  20.142  20.854  0.0687 -0.0144  0.1626
  822BOLB   C1B19713  26.273  18.333  20.913  0.0003 -0.2972  0.2000
  822BOLB   C2B19714  26.153  18.413  20.460 -0.1361 -0.0398  0.0109
  822BOLB   C3B19715  26.419  18.413  20.080 -0.0374 -0.1053  0.0559
  822BOLB   C4B19716  26.706  18.482  19.733 -0.1339  0.1685 -0.2867
  822BOLB   NC219717  26.397  22.271  19.639 -0.5713  0.1482 -0.0664
  822BOLB   PO219718  26.216  22.086  20.058 -0.1065 -0.1761 -0.2864
  822BOLB   GL319719  26.242  21.750  20.285  0.1221 -0.0710 -0.2803
  822BOLB   GL419720  26.351  21.700  20.561  0.1225  0.1168 -0.1975
  822BOLB   C1C19721  25.982  21.317  20.424  0.0205  0.4013 -0.0024
  822BOLB   C2C19722  26.050  20.909  20.289  0.0134 -0.0284 -0.2876
  822BOLB   C3C19723  26.137  20.500  20.449  0.0426  0.2405 -0.0080
  822BOLB   C4C19724  26.010  20.149  20.591  0.0765  0.0170 -0.3999
  822BOLB   C1D19725  26.109  21.492  20.885  0.0632  0.2086  0.3020
  822BOLB   C2D19726  25.756  21.470  21.159  0.1111  0.2198  0.2427
  822BOLB   C3D19727  25.365  21.492  21.420 -0.2685  0.0449 -0.0065
  822BOLB   C4D19728  25.418  21.693  21.798 -0.4128  0.1568 -0.1792
  823BOLB   NC119729  22.991  24.098  20.007  0.0452 -0.0597 -0.0424
  823BOLB   PO119730  22.871  24.056  20.415  0.2823  0.3777 -0.1472
  823BOLB   GL119731  22.779  24.218  20.873  0.0526 -0.5723  0.2203
  823BOLB   GL219732  23.050  24.278  20.893  0.5504  0.1934  0.0748
  823BOLB   C1A19733  22.544  24.150  21.216  0.0182 -0.2844 -0.1816
  823BOLB   C2A19734  22.464  24.061  21.751  0.0239  0.4133  0.4003
  823BOLB   C3A19735  22.375  24.161  22.119 -0.0780  0.2886 -0.0612
  823BOLB   C4A19736  22.361  24.104  22.622 -0.0989  0.0321  0.3299
  823BOLB   C1B19737  23.252  24.228  21.211  0.1439  0.1310 -0.1768
  823BOLB   C2B19738  23.466  24.290  21.538  0.1306 -0.1396  0.3806
  823BOLB   C3B19739  23.363  24.113  21.882  0.1535  0.0305  0.0578
  823BOLB   C4B19740  23.521  24.061  22.339  0.3025  0.4156  0.1134
  823BOLB   NC219741  23.348  25.231  24.469  0.0486 -0.1258 -0.1190
  823BOLB   PO219742  23.120  24.828  24.635  0.0063  0.0336 -0.0154
  823BOLB   GL319743  23.167  24.472  24.356 -0.0841  0.1553 -0.0193
  823BOLB   GL419744  23.437  24.285  24.287  0.0444  0.1313 -0.0429
  823BOLB   C1C19745  23.026  24.297  23.925 -0.0525 -0.2557 -0.0499
  823BOLB   C2C19746  22.844  24.126  23.557  0.1886 -0.0899  0.0142
  823BOLB   C3C19747  22.451  24.284  23.359 -0.0243 -0.1578 -0.0916
  823BOLB   C4C19748  22.307  24.310  22.944  0.1261 -0.0456 -0.1301
  823BOLB   C1D19749  23.371  23.981  24.004 -0.4210  0.1995  0.0241
  823BOLB   C2D19750  23.339  23.499  23.745 -0.2736 -0.3622 -0.0811
  823BOLB   C3D19751  22.978  23.294  24.016  0.0516 -0.1456 -0.0801
  823BOLB   C4D19752  22.619  23.362  24.349  0.0913 -0.0436  0.5495
  824BOLB   NC119753  24.815  12.312  18.567 -0.2051  0.0045 -0.1972
  824BOLB   PO119754  24.586  11.973  18.636  0.1801 -0.0271 -0.3291
  824BOLB   GL119755  24.709  11.568  18.825 -0.0832 -0.2770  0.1220
  824BOLB   GL219756  24.813  11.435  18.528 -0.0969  0.0718  0.0212
  824BOLB   C1A19757  24.685  11.310  19.096 -0.3329  0.0382 -0.0837
  824BOLB   C2A19758  24.557  10.931  19.440  0.2206  0.5411 -0.0887
  824BOLB   C3A19759  24.397  10.590  19.701  0.0310  0.1236 -0.1119
  824BOLB   C4A19760  24.291  10.143  19.756 -0.0592  0.0467  0.0130
  824BOLB   C1B19761  25.010  10.931  18.696  0.2246 -0.1508 -0.1170
  824BOLB   C2B19762  25.084  10.493  18.758 -0.0377  0.0982 -0.0393
  824BOLB   C3B19763  25.244  10.097  18.578  0.2585  0.1531  0.1418
  824BOLB   C4B19764  25.548   9.774  18.709  0.4561  0.1014  0.1473
  824BOLB   NC219765  25.826   7.951  19.759  0.3851 -0.2732  0.3230
  824BOLB   PO219766  25.841   8.238  20.040  0.2950  0.2146 -0.0407
  824BOLB   GL319767  25.404   8.370  19.844 -0.1489 -0.0355  0.1242
  824BOLB   GL419768  25.131   8.200  19.719 -0.1744 -0.0019 -0.3288
  824BOLB   C1C19769  25.288   8.749  19.697 -0.1701 -0.1892  0.0579
  824BOLB   C2C19770  25.032   9.113  19.668  0.0798  0.0726  0.3083
  824BOLB   C3C19771  24.725   9.386  19.795  0.0975 -0.2000 -0.1677
  824BOLB   C4C19772  24.534   9.788  19.900  0.1349  0.0240 -0.0736
  824BOLB   C1D19773  25.133   8.460  19.334  0.1900 -0.3744  0.1231
  824BOLB   C2D19774  25.223   8.631  18.913 -0.1524 -0.1105 -0.1883
  824BOLB   C3D19775  24.979   8.673  18.528 -0.0822 -0.2053  0.1288
  824BOLB   C4D19776  24.587   8.485  18.251 -0.2155 -0.1629  0.1723
  825BOLB   NC119777  24.826  13.068  20.124  0.0144 -0.1291 -0.0301
  825BOLB   PO119778  24.630  12.660  20.305  0.0154 -0.1771 -0.1639
  825BOLB   GL119779  24.935  12.370  20.565  0.2704 -0.1990 -0.3586
  825BOLB   GL219780  25.270  12.273  20.427 -0.3107  0.0162 -0.0799
  825BOLB   C1A19781  25.044  12.096  20.899 -0.0760 -0.3325  0.1479
  825BOLB   C2A19782  24.817  11.684  20.945 -0.1185 -0.5035 -0.0717
  825BOLB   C3A19783  24.932  11.451  21.298 -0.0878 -0.0424 -0.2151
  825BOLB   C4A19784  25.250  11.510  21.649  0.0715 -0.1359  0.1132
  825BOLB   C1B19785  25.642  11.979  20.388  0.3978 -0.1013 -0.2067
  825BOLB   C2B19786  25.873  11.726  20.564 -0.2154  0.1282 -0.0212
  825BOLB   C3B19787  26.244  11.667  20.536 -0.0599  0.2269 -0.2291
  825BOLB   C4B19788  26.528  11.920  20.471  0.2337 -0.4613  0.0134
  825BOLB   NC219789  25.560   9.954  23.768 -0.1503  0.1292 -0.1630
  825BOLB   PO219790  25.171  10.164  23.981  0.2764  0.0025 -0.3265
  825BOLB   GL319791  25.314  10.413  23.628  0.0001  0.0313 -0.0428
  825BOLB   GL419792  25.312  10.205  23.260  0.0318  0.1763 -0.2239
  825BOLB   C1C19793  25.110  10.627  23.244  0.1725 -0.1200  0.3591
  825BOLB   C2C19794  25.198  10.898  22.846  0.1599  0.2029  0.2576
  825BOLB   C3C19795  25.105  11.173  22.532 -0.0522 -0.2291  0.0636
  825BOLB   C4C19796  25.122  11.317  22.099 -0.1525 -0.1754 -0.1432
  825BOLB   C1D19797  25.074  10.161  22.964 -0.4488 -0.0876  0.1635
  825BOLB   C2D19798  24.887  10.431  22.761 -0.3417  0.1210 -0.1767
  825BOLB   C3D19799  24.750  10.727  22.529  0.3231 -0.0622 -0.0062
  825BOLB   C4D19800  24.624  11.000  22.237 -0.1069  0.0807 -0.0551
  826BOLB   NC119801  24.073  17.144  22.101  0.2151 -0.1469 -0.0141
  826BOLB   PO119802  24.421  17.038  22.422 -0.1672 -0.0550  0.2519
  826BOLB   GL119803  24.319  17.057  22.875 -0.2057  0.3296 -0.1216
  826BOLB   GL219804  24.335  16.669  23.022  0.2114  0.0258  0.0887
  826BOLB   C1A19805  24.317  17.158  23.244  0.0529 -0.0503  0.1824
  826BOLB   C2A19806  24.492  17.295  23.644  0.0151 -0.1531  0.0396
  826BOLB   C3A19807  24.570  17.251  24.031  0.0155  0.2637 -0.1484
  826BOLB   C4A19808  24.583  17.019  24.354 -0.0570 -0.2525 -0.2174
  826BOLB   C1B19809  24.698  16.866  23.275 -0.4410  0.3660  0.1742
  826BOLB   C2B19810  24.890  17.209  23.414  0.0903 -0.0020  0.2599
  826BOLB   C3B19811  25.049  17.328  23.813 -0.0652 -0.0253 -0.0524
  826BOLB   C4B19812  25.159  17.448  24.238  0.0641  0.1786 -0.0994
  826BOLB   NC219813  25.458  17.185  26.680  0.1489 -0.1056  0.1823
  826BOLB   PO219814  25.260  16.734  26.709  0.1385  0.2382  0.1224
  826BOLB   GL319815  25.168  16.977  26.232  0.1348  0.0821  0.2398
  826BOLB   GL419816  24.960  17.203  26.300  0.1201  0.0530 -0.1262
  826BOLB   C1C19817  24.993  17.032  25.802  0.3086 -0.0628  0.1038
  826BOLB   C2C19818  24.700  17.166  25.482  0.1296  0.3500 -0.2029
  826BOLB   C3C19819  24.663  17.208  25.160  0.2413 -0.0817 -0.3814
  826BOLB   C4C19820  24.745  17.035  24.756  0.2928 -0.1895  0.1612
  826BOLB   C1D19821  24.623  16.926  26.125 -0.0069 -0.2675  0.1620
  826BOLB   C2D19822  24.366  16.912  25.805  0.1160  0.0937 -0.0140
  826BOLB   C3D19823  24.261  16.978  25.397 -0.4191  0.2215 -0.0880
  826BOLB   C4D19824  24.294  16.853  24.957 -0.0605 -0.1179  0.1740
  827BOLB   NC119825  22.403  13.908  23.023 -0.2804  0.1247  0.0742
  827BOLB   PO119826  22.666  14.120  23.140 -0.2262  0.3463 -0.2640
  827BOLB   GL119827  22.835  13.950  23.397  0.3235  0.0546 -0.1535
  827BOLB   GL219828  23.170  14.004  23.336  0.0001 -0.3139  0.0251
  827BOLB   C1A19829  22.960  13.857  23.852  0.3435 -0.2242  0.2541
  827BOLB   C2A19830  23.122  13.815  24.228  0.1940  0.2219 -0.0522
  827BOLB   C3A19831  23.041  13.677  24.614 -0.1736 -0.0575 -0.3894
  827BOLB   C4A19832  22.922  13.562  25.011  0.3223  0.0467  0.0954
  827BOLB   C1B19833  23.398  14.124  23.712  0.2094  0.0036  0.1106
  827BOLB   C2B19834  23.271  14.325  24.042  0.0030  0.0130 -0.1217
  827BOLB   C3B19835  23.321  14.140  24.553  0.0953  0.1599  0.3685
  827BOLB   C4B19836  23.164  14.029  24.946  0.0382 -0.0106 -0.0470
  827BOLB   NC219837  23.248  13.235  27.953 -0.0827 -0.0851  0.0057
  827BOLB   PO219838  22.928  13.455  27.612 -0.2235  0.3324  0.1988
  827BOLB   GL319839  22.934  13.403  27.081  0.0934  0.1697 -0.2483
  827BOLB   GL419840  23.087  13.088  27.010  0.2619 -0.5410  0.2505
  827BOLB   C1C19841  22.724  13.544  26.721  0.1420  0.0943 -0.1057
  827BOLB   C2C19842  22.717  13.610  26.263 -0.0701  0.1754 -0.1503
  827BOLB   C3C19843  22.902  13.469  25.873  0.1740 -0.0501 -0.1341
  827BOLB   C4C19844  22.962  13.585  25.440 -0.0010  0.0270 -0.0887
  827BOLB   C1D19845  23.177  13.280  26.596  0.1987 -0.1575  0.3931
  827BOLB   C2D19846  23.128  13.097  26.099 -0.1116 -0.2437 -0.0680
  827BOLB   C3D19847  23.431  13.184  25.791 -0.0785  0.0008  0.0673
  827BOLB   C4D19848  23.510  13.019  25.405 -0.0002 -0.1328  0.1577
  828BOLB   NC119849  27.330  18.063  21.747  0.0579  0.1874 -0.0269
  828BOLB   PO119850  26.994  17.796  21.758 -0.1190 -0.1324  0.0328
  828BOLB   GL119851  26.714  18.175  21.673  0.2653  0.0652 -0.2807
  828BOLB   GL219852  26.586  18.051  21.931  0.2868 -0.0428  0.0793
  828BOLB   C1A19853  26.504  18.558  21.552  0.0730  0.2676  0.3752
  828BOLB   C2A19854  26.156  18.799  21.577 -0.2289  0.0407  0.0965
  828BOLB   C3A19855  25.684  18.794  21.650  0.3114  0.1453 -0.3373
  828BOLB   C4A19856  25.426  18.931  22.022  0.0660 -0.1184 -0.0911
  828BOLB   C1B19857  26.072  18.232  21.827 -0.1965  0.0412 -0.3054
  828BOLB   C2B19858  25.942  18.546  22.104 -0.0628 -0.1438  0.1737
  828BOLB   C3B19859  25.988  19.010  22.034  0.1998 -0.0445 -0.0983
  828BOLB   C4B19860  26.048  19.275  22.380  0.1062  0.1112 -0.0803
  828BOLB   NC219861  27.088  20.202  23.545 -0.0170 -0.3269  0.0351
  828BOLB   PO219862  26.833  19.917  23.426  0.0785  0.2184  0.1240
  828BOLB   GL319863  26.406  19.946  23.113 -0.0414  0.1446 -0.0392
  828BOLB   GL419864  26.327  19.749  23.309  0.1971 -0.0928 -0.4198
  828BOLB   C1C19865  25.946  19.809  22.939  0.1429 -0.1219 -0.2310
  828BOLB   C2C19866  25.882  19.687  22.601  0.2893 -0.0027  0.1875
  828BOLB   C3C19867  25.550  19.441  22.482 -0.1521 -0.2639 -0.1039
  828BOLB   C4C19868  25.324  19.221  22.304  0.0526  0.1416  0.0145
  828BOLB   C1D19869  25.907  19.636  23.455  0.0556 -0.0475 -0.2467
  828BOLB   C2D19870  25.842  19.423  23.901  0.2156  0.1624  0.1172
  828BOLB   C3D19871  25.521  19.372  24.157 -0.2029  0.2453 -0.0158
  828BOLB   C4D19872  25.623  19.188  24.576 -0.0794  0.2217 -0.2407
  829BOLB   NC119873  24.944  12.929  19.077 -0.0848 -0.0485 -0.0369
  829BOLB   PO119874  25.070  12.498  19.305 -0.1491  0.1225 -0.1689
  829BOLB   GL119875  25.291  12.023  19.411  0.3532 -0.1189  0.0406
  829BOLB   GL219876  25.483  11.823  19.154  0.1281 -0.0623 -0.1333
  829BOLB   C1A19877  25.063  11.635  19.384  0.2342  0.3472 -0.3547
  829BOLB   C2A19878  25.052  11.165  19.592 -0.1423 -0.1242 -0.0813
  829BOLB   C3A19879  25.152  10.680  19.844  0.2398 -0.5547  0.1256
  829BOLB   C4A19880  25.286  10.388  20.142  0.3545 -0.1074  0.0428
  829BOLB   C1B19881  25.586  11.472  19.206  0.1357  0.3588 -0.0323
  829BOLB   C2B19882  25.539  11.044  19.457  0.0152  0.0214  0.0902
  829BOLB   C3B19883  25.408  10.577  19.423  0.3891 -0.4056 -0.2364
  829BOLB   C4B19884  25.311  10.159  19.682 -0.0535  0.3176  0.0482
  829BOLB   NC219885  25.317   8.403  22.348 -0.1703  0.1558  0.1258
  829BOLB   PO219886  25.286   8.799  22.260 -0.3691  0.0944  0.0989
  829BOLB   GL319887  25.093   9.082  22.067  0.1881  0.0117 -0.0816
  829BOLB   GL419888  24.894   9.044  21.855  0.4082 -0.3762  0.1823
  829BOLB   C1C19889  25.274   9.382  21.773 -0.0547  0.1891  0.1523
  829BOLB   C2C19890  25.562   9.550  21.380 -0.0224 -0.1529 -0.2127
  829BOLB   C3C19891  25.482   9.754  20.936  0.0165 -0.1711 -0.0021
  829BOLB   C4C19892  25.465  10.026  20.607  0.1414 -0.1860  0.2753
  829BOLB   C1D19893  24.789   8.989  21.427  0.1734  0.0330 -0.4649
  829BOLB   C2D19894  24.484   9.014  21.135 -0.2386 -0.0425  0.0982
  829BOLB   C3D19895  24.398   8.910  20.695  0.0909 -0.1079  0.0514
  829BOLB   C4D19896  24.757   8.724  20.487  0.0169  0.2465  0.0340
  830BOLB   NC119897  27.541  16.782  22.959 -0.0225  0.0198  0.1104
  830BOLB   PO119898  27.539  17.207  23.167 -0.0023  0.0011  0.0406
  830BOLB   GL119899  27.117  17.247  23.126 -0.0735  0.1734 -0.2449
  830BOLB   GL219900  27.058  16.926  23.058  0.1150 -0.0434  0.1787
  830BOLB   C1A19901  26.716  17.230  23.231  0.0556  0.1033 -0.0108
  830BOLB   C2A19902  26.352  17.112  23.422 -0.1087  0.1711  0.0013
  830BOLB   C3A19903  25.988  16.918  23.719 -0.2629 -0.1709 -0.0111
  830BOLB   C4A19904  26.272  16.668  24.014 -0.1432  0.0500  0.0002
  830BOLB   C1B19905  26.699  16.568  23.237  0.4046 -0.0921 -0.0090
  830BOLB   C2B19906  26.792  16.153  23.318  0.2253 -0.0412 -0.0690
  830BOLB   C3B19907  26.894  15.715  23.509  0.1908  0.1680 -0.1959
  830BOLB   C4B19908  26.727  15.392  23.553  0.2134 -0.1779  0.1550
  830BOLB   NC219909  26.977  15.258  25.743  0.1317 -0.2858  0.3974
  830BOLB   PO219910  26.771  15.517  25.859  0.3089  0.0609  0.0689
  830BOLB   GL319911  26.554  15.270  25.428 -0.3906 -0.1189  0.0764
  830BOLB   GL419912  26.483  14.980  25.165  0.0199  0.0967 -0.0572
  830BOLB   C1C19913  26.746  15.376  24.904 -0.0327 -0.1114 -0.0663
  830BOLB   C2C19914  26.551  15.621  24.612 -0.1326  0.1729  0.3630
  830BOLB   C3C19915  26.502  15.985  24.359  0.0175 -0.2878 -0.1397
  830BOLB   C4C19916  26.369  16.350  24.232 -0.0645  0.3411  0.2637
  830BOLB   C1D19917  26.257  15.257  24.927 -0.0095 -0.0272 -0.1114
  830BOLB   C2D19918  26.097  15.501  24.615 -0.2329 -0.1518  0.4642
  830BOLB   C3D19919  25.808  15.562  24.352  0.4284 -0.2061 -0.2992
  830BOLB   C4D19920  25.670  15.956  24.168  0.0163  0.0726 -0.2200
  831BOLB   NC119921  23.050  21.249  21.522  0.2026 -0.5778  0.3224
  831BOLB   PO119922  23.196  21.269  21.090  0.2823  0.0887 -0.1015
  831BOLB   GL119923  23.717  21.434  21.078  0.0394 -0.0858 -0.2169
  831BOLB   GL219924  23.857  21.666  20.891  0.2033 -0.0238 -0.0913
  831BOLB   C1A19925  24.065  21.238  21.335 -0.0592  0.0468  0.1575
  831BOLB   C2A19926  24.334  21.113  21.651 -0.0364  0.1356 -0.1709
  831BOLB   C3A19927  24.518  20.842  21.896 -0.1199  0.2167  0.0923
  831BOLB   C4A19928  24.737  20.801  22.224 -0.3099  0.3054  0.2663
  831BOLB   C1B19929  23.985  21.818  21.275 -0.4121  0.1588  0.0093
  831BOLB   C2B19930  23.994  21.897  21.667  0.3496 -0.4184  0.0608
  831BOLB   C3B19931  24.043  22.171  22.034  0.3759  0.2745 -0.0230
  831BOLB   C4B19932  24.341  22.109  22.466 -0.0628  0.0434  0.1081
  831BOLB   NC219933  25.800  20.060  24.433 -0.0037  0.0175 -0.3212
  831BOLB   PO219934  26.049  20.104  24.024 -0.0522 -0.1853 -0.0753
  831BOLB   GL319935  25.872  20.452  23.741 -0.2869 -0.3107  0.3110
  831BOLB   GL419936  25.986  20.684  23.504  0.1919 -0.1486 -0.0222
  831BOLB   C1C19937  25.444  20.557  23.672  0.0565  0.0931 -0.0485
  831BOLB   C2C19938  25.178  20.378  23.275  0.1746 -0.2520  0.1613
  831BOLB   C3C19939  25.040  20.212  22.886 -0.1384  0.4877  0.0074
  831BOLB   C4C19940  25.085  20.418  22.408  0.1546 -0.0899 -0.0798
  831BOLB   C1D19941  25.727  20.605  23.158 -0.0056  0.0172  0.1388
  831BOLB   C2D19942  25.558  20.087  23.007 -0.0724  0.3805 -0.3302
  831BOLB   C3D19943  25.306  19.836  22.671  0.0898  0.0046  0.3598
  831BOLB   C4D19944  25.126  19.748  22.309 -0.1148  0.1748  0.4901
  832BOLB   NC119945  23.174  11.367  20.243  0.3423  0.0817  0.2236
  832BOLB   PO119946  22.843  11.428  20.506 -0.1496 -0.4014  0.1264
  832BOLB   GL119947  23.021  11.055  20.717  0.2200 -0.0121  0.1405
  832BOLB   GL219948  22.973  10.820  20.560  0.1068 -0.0698 -0.0752
  832BOLB   C1A19949  23.167  10.633  20.993 -0.0522 -0.0619 -0.2958
  832BOLB   C2A19950  23.376  10.269  21.164 -0.0328  0.1431 -0.1761
  832BOLB   C3A19951  23.540  10.159  21.528  0.0104  0.0533  0.1424
  832BOLB   C4A19952  23.482   9.726  21.837  0.2542  0.3050  0.3795
  832BOLB   C1B19953  23.201  10.348  20.539  0.0227 -0.2098  0.1384
  832BOLB   C2B19954  23.099   9.913  20.728 -0.3344 -0.1917  0.1194
  832BOLB   C3B19955  23.258   9.512  20.611 -0.1056  0.2094 -0.2486
  832BOLB   C4B19956  23.559   9.311  20.809 -0.0403  0.1660 -0.1233
  832BOLB   NC219957  24.350   7.322  21.294 -0.1856  0.1659  0.2303
  832BOLB   PO219958  23.919   7.316  21.381  0.1133 -0.1003  0.1325
  832BOLB   GL319959  24.042   7.764  21.326  0.0339 -0.0070  0.0157
  832BOLB   GL419960  24.104   7.734  21.014  0.0071  0.3319  0.0764
  832BOLB   C1C19961  23.926   8.261  21.395 -0.2457 -0.0356  0.0116
  832BOLB   C2C19962  24.003   8.553  21.624  0.0449  0.3768 -0.2851
  832BOLB   C3C19963  23.792   8.915  21.730  0.1648 -0.4076 -0.1903
  832BOLB   C4C19964  23.477   9.208  21.779 -0.2185  0.1115 -0.0367
  832BOLB   C1D19965  23.802   8.049  20.992 -0.0649  0.4246 -0.0184
  832BOLB   C2D19966  23.376   8.183  21.086 -0.0305  0.0394 -0.2293
  832BOLB   C3D19967  22.937   8.023  21.148  0.3541  0.0083  0.3235
  832BOLB   C4D19968  22.623   8.212  21.189 -0.1097  0.0623  0.1460
  833BOLB   NC119969  27.738  18.781  23.014 -0.0524  0.0785 -0.4228
  833BOLB   PO119970  27.296  18.619  23.003 -0.1727  0.0537  0.2390
  833BOLB   GL119971  26.913  18.290  23.004  0.1611  0.1165  0.5182
  833BOLB   GL219972  26.862  18.220  22.767  0.3134 -0.0061 -0.0662
  833BOLB   C1A19973  26.542  18.332  23.207  0.1317 -0.3197  0.1295
  833BOLB   C2A19974  26.161  18.464  23.067  0.1303  0.1710  0.0618
  833BOLB   C3A19975  25.787  18.545  23.345 -0.1653 -0.0453  0.1261
  833BOLB   C4A19976  25.579  18.850  23.387 -0.1863 -0.1740 -0.2031
  833BOLB   C1B19977  26.492  18.492  22.693 -0.2240 -0.1718 -0.1621
  833BOLB   C2B19978  26.122  18.764  22.552 -0.0697  0.0583  0.1152
  833BOLB   C3B19979  25.758  18.869  22.483  0.1506 -0.0597  0.0546
  833BOLB   C4B19980  25.494  18.680  22.420  0.0677 -0.0538 -0.3045
  833BOLB   NC219981  26.355  20.604  23.803  0.2531  0.1716  0.0119
  833BOLB   PO219982  26.595  20.610  23.440  0.0527  0.0341  0.0744
  833BOLB   GL319983  26.290  20.460  23.227  0.0070  0.2552 -0.2488
  833BOLB   GL419984  26.206  20.407  22.952 -0.0256 -0.2314 -0.2698
  833BOLB   C1C19985  26.010  20.195  23.341  0.0066 -0.0489 -0.4004
  833BOLB   C2C19986  25.553  20.071  23.535  0.2102  0.0068 -0.0965
  833BOLB   C3C19987  25.429  19.614  23.655  0.0714  0.0582  0.0157
  833BOLB   C4C19988  25.598  19.245  23.521 -0.1641  0.0913 -0.1263
  833BOLB   C1D19989  26.073  20.192  22.619  0.0648 -0.2299  0.1532
  833BOLB   C2D19990  25.513  20.300  22.564  0.0339  0.0300  0.0082
  833BOLB   C3D19991  25.312  20.637  22.798 -0.0985 -0.0404 -0.2935
  833BOLB   C4D19992  25.088  20.935  22.586  0.0300 -0.0926 -0.0341
  834BOLB   NC119993  23.740  11.816  18.886  0.0952  0.0388 -0.0081
  834BOLB   PO119994  24.180  11.609  18.807 -0.0920 -0.2767  0.0662
  834BOLB   GL119995  24.230  11.291  18.825  0.2100  0.1675  0.0519
  834BOLB   GL219996  24.353  11.084  18.575  0.1342 -0.0766  0.0548
  834BOLB   C1A19997  24.597  10.855  18.952  0.2496  0.1239  0.1679
  834BOLB   C2A19998  24.611  10.387  18.885  0.1733 -0.1482 -0.0505
  834BOLB   C3A19999  24.645  10.030  18.787 -0.1554 -0.0520  0.1218
  834BOLB   C4A20000  24.709   9.636  18.667  0.2784  0.1356  0.1109
  834BOLB   C1B20001  24.647  10.821  18.354  0.0548  0.2479 -0.2347
  834BOLB   C2B20002  24.807  10.387  18.430  0.0156  0.2534  0.0077
  834BOLB   C3B20003  24.843  10.004  18.301 -0.0635  0.1205 -0.5028
  834BOLB   C4B20004  24.888   9.649  17.914  0.2166 -0.0130  0.1793
  834BOLB   NC220005  27.018   7.935  18.326 -0.0359 -0.0166 -0.0846
  834BOLB   PO220006  26.481   8.086  18.228 -0.0865  0.0256  0.1151
  834BOLB   GL320007  26.098   8.338  18.219 -0.1040  0.0874  0.0358
  834BOLB   GL420008  26.072   8.564  17.963 -0.1302 -0.0251  0.2137
  834BOLB   C1C20009  26.035   8.624  18.512  0.1898 -0.1032  0.1508
  834BOLB   C2C20010  25.710   8.880  18.546  0.0564  0.2372 -0.0084
  834BOLB   C3C20011  25.246   9.051  18.656 -0.0862 -0.0215 -0.1812
  834BOLB   C4C20012  24.861   9.192  18.716  0.2054  0.2979  0.0494
  834BOLB   C1D20013  25.825   8.835  18.034  0.0131  0.0120  0.0750
  834BOLB   C2D20014  25.757   9.294  18.137 -0.2079 -0.1800 -0.2359
  834BOLB   C3D20015  25.495   9.516  18.076 -0.0137  0.2479 -0.1748
  834BOLB   C4D20016  25.143   9.547  18.371 -0.0297  0.0340  0.1549
  835BOLB   NC120017  23.679  25.347  19.951 -0.0941 -0.1306  0.0964
  835BOLB   PO120018  23.751  25.241  20.406 -0.2072 -0.0754 -0.2308
  835BOLB   GL120019  23.484  25.128  20.741  0.1027  0.1181 -0.0988
  835BOLB   GL220020  23.318  25.508  20.857  0.0053  0.0298 -0.0236
  835BOLB   C1A20021  23.083  25.097  20.966  0.0457 -0.0992 -0.3472
  835BOLB   C2A20022  22.790  25.214  21.151  0.1427 -0.0936  0.1256
  835BOLB   C3A20023  22.641  25.247  21.555 -0.1687  0.2479 -0.3209
  835BOLB   C4A20024  22.364  25.550  21.800  0.0410 -0.0172 -0.1421
  835BOLB   C1B20025  23.199  25.818  21.091  0.0047  0.0338 -0.4746
  835BOLB   C2B20026  22.856  26.056  21.309  0.1436 -0.2454 -0.0117
  835BOLB   C3B20027  22.857  26.354  21.568  0.2014 -0.1522 -0.0149
  835BOLB   C4B20028  23.199  26.547  21.858 -0.3234  0.1194 -0.0534
  835BOLB   NC220029  22.757  27.654  22.521  0.2544 -0.0318 -0.3430
  835BOLB   PO220030  22.808  27.690  22.007 -0.0362  0.1275  0.2641
  835BOLB   GL320031  22.608  27.321  22.118  0.0200  0.0516  0.1373
  835BOLB   GL420032  22.482  27.030  22.386 -0.2750  0.1364  0.2534
  835BOLB   C1C20033  22.293  27.086  21.925  0.1849  0.0724 -0.2770
  835BOLB   C2C20034  22.054  26.743  21.957  0.0993  0.0151  0.0873
  835BOLB   C3C20035  22.037  26.305  21.682 -0.2256 -0.0085  0.2306
  835BOLB   C4C20036  22.182  25.876  21.618  0.2116  0.1318 -0.1799
  835BOLB   C1D20037  22.923  26.929  22.368 -0.3916 -0.0174  0.1189
  835BOLB   C2D20038  23.305  26.737  22.381 -0.0165 -0.0241 -0.3316
  835BOLB   C3D20039  23.601  26.554  22.135 -0.1225  0.0846  0.0261
  835BOLB   C4D20040  23.717  26.132  21.918  0.2106  0.0256 -0.1179
  836BOLB   NC120041  24.749  14.863  21.994  0.1044  0.0168 -0.1567
  836BOLB   PO120042  24.661  14.687  22.448 -0.0728  0.2777 -0.0786
  836BOLB   GL120043  24.432  14.342  22.774 -0.0126 -0.1548  0.0472
  836BOLB   GL220044  24.623  14.521  22.977 -0.0449  0.2793 -0.1826
  836BOLB   C1A20045  24.547  13.941  23.083  0.2416 -0.1657 -0.1410
  836BOLB   C2A20046  24.370  13.731  23.453  0.1112 -0.2805  0.0908
  836BOLB   C3A20047  24.338  13.342  23.723  0.2196 -0.0681  0.2383
  836BOLB   C4A20048  24.390  12.912  23.796 -0.0282 -0.2149  0.1949
  836BOLB   C1B20049  24.682  14.438  23.419  0.3478  0.1393 -0.2225
  836BOLB   C2B20050  24.770  14.375  23.791  0.1207 -0.1848 -0.0799
  836BOLB   C3B20051  24.703  14.130  24.129 -0.3714 -0.1354 -0.0674
  836BOLB   C4B20052  24.565  13.838  24.392  0.1353  0.2189 -0.1910
  836BOLB   NC220053  25.824  11.213  24.566  0.0660 -0.2307 -0.0359
  836BOLB   PO220054  25.591  10.908  24.436  0.1044  0.0415 -0.1163
  836BOLB   GL320055  25.457  11.363  24.276 -0.1572 -0.1526  0.4482
  836BOLB   GL420056  25.807  11.522  24.122 -0.0034  0.0330 -0.3479
  836BOLB   C1C20057  25.187  11.521  23.937  0.0190  0.0827 -0.1435
  836BOLB   C2C20058  24.836  11.780  23.742 -0.2574  0.1563  0.4393
  836BOLB   C3C20059  24.625  12.121  23.624 -0.0759  0.0344 -0.2056
  836BOLB   C4C20060  24.460  12.446  23.645  0.0131 -0.1373  0.0647
  836BOLB   C1D20061  25.663  11.586  23.812 -0.1719 -0.2910  0.0058
  836BOLB   C2D20062  25.355  11.644  23.436 -0.0547  0.0418 -0.0682
  836BOLB   C3D20063  25.248  11.822  23.088  0.2666 -0.0880 -0.2367
  836BOLB   C4D20064  25.217  11.725  22.635 -0.0648 -0.1628  0.4279
  837BOLB   NC120065  26.610  12.988  20.522  0.0916 -0.3783  0.1442
  837BOLB   PO120066  26.518  12.613  20.253 -0.1868  0.0562 -0.0825
  837BOLB   GL120067  26.543  12.561  20.718 -0.1136  0.3466  0.0769
  837BOLB   GL220068  26.838  12.494  21.024 -0.1369  0.3207  0.2892
  837BOLB   C1A20069  26.200  12.708  21.047  0.1222  0.1693  0.1088
  837BOLB   C2A20070  26.007  12.793  21.464 -0.0869  0.1235  0.1493
  837BOLB   C3A20071  25.975  12.809  21.877 -0.2557  0.0312  0.1717
  837BOLB   C4A20072  26.107  12.869  22.352  0.2292  0.0113  0.0628
  837BOLB   C1B20073  26.758  12.358  21.469 -0.0583 -0.2464  0.1578
  837BOLB   C2B20074  26.643  12.140  21.802 -0.1266 -0.1572 -0.0143
  837BOLB   C3B20075  26.340  11.774  21.779  0.1380  0.1224 -0.0817
  837BOLB   C4B20076  26.209  11.439  21.760  0.3166  0.0117  0.1058
  837BOLB   NC220077  26.629  12.063  24.817  0.2574  0.0079 -0.1405
  837BOLB   PO220078  26.580  11.837  24.568 -0.0179 -0.0871 -0.1301
  837BOLB   GL320079  26.252  12.182  24.474  0.0493 -0.0311 -0.0433
  837BOLB   GL420080  25.981  12.187  24.647  0.0463 -0.0515 -0.2972
  837BOLB   C1C20081  26.079  12.430  24.083  0.1543 -0.1702  0.1633
  837BOLB   C2C20082  25.996  12.591  23.617  0.1021  0.4508  0.0730
  837BOLB   C3C20083  25.828  12.767  23.158  0.1532  0.0494 -0.1124
  837BOLB   C4C20084  25.992  12.912  22.704  0.2341 -0.0654 -0.1820
  837BOLB   C1D20085  25.484  12.256  24.746 -0.0076  0.0108  0.1528
  837BOLB   C2D20086  25.078  12.168  24.730  0.1782  0.0411 -0.1694
  837BOLB   C3D20087  24.813  12.433  24.460  0.0345 -0.1443  0.0383
  837BOLB   C4D20088  24.703  12.300  24.099 -0.0832  0.0534 -0.1507
  838BOLB   NC120089  26.297  12.722  19.813 -0.3359  0.1503 -0.2208
  838BOLB   PO120090  25.886  12.787  19.856 -0.0310 -0.4617 -0.0479
  838BOLB   GL120091  25.898  12.423  19.809 -0.4687  0.3964 -0.0497
  838BOLB   GL220092  26.090  12.318  19.991 -0.3224  0.3545 -0.2750
  838BOLB   C1A20093  25.700  12.023  19.836  0.3475  0.3287  0.2325
  838BOLB   C2A20094  25.487  11.580  19.726 -0.0299  0.1206  0.1825
  838BOLB   C3A20095  25.477  11.101  19.928 -0.0147 -0.0693  0.0269
  838BOLB   C4A20096  25.526  10.801  20.328  0.2653 -0.3659 -0.1956
  838BOLB   C1B20097  26.125  11.933  20.121  0.1569  0.0941 -0.0872
  838BOLB   C2B20098  25.849  11.572  20.104 -0.0916  0.1533  0.1368
  838BOLB   C3B20099  25.877  11.112  20.196  0.2037  0.1168  0.0405
  838BOLB   C4B20100  25.715  10.648  19.906 -0.1174  0.1221 -0.1153
  838BOLB   NC220101  25.773   7.706  20.287  0.0671  0.1272  0.0879
  838BOLB   PO220102  25.784   8.127  20.602 -0.1489  0.0677  0.1319
  838BOLB   GL320103  25.870   8.613  20.459 -0.0763  0.0892 -0.0452
  838BOLB   GL420104  25.521   8.512  20.361  0.0329  0.2572 -0.0828
  838BOLB   C1C20105  25.707   9.036  20.458  0.0494  0.1596 -0.1914
  838BOLB   C2C20106  25.768   9.457  20.419  0.2955 -0.1720  0.3221
  838BOLB   C3C20107  25.811   9.902  20.328 -0.2317 -0.0680  0.1877
  838BOLB   C4C20108  25.736  10.273  20.273  0.0131  0.0403  0.0045
  838BOLB   C1D20109  25.205   8.823  20.448  0.0917 -0.1572  0.1132
  838BOLB   C2D20110  25.303   9.267  20.641  0.2260  0.2019  0.2070
  838BOLB   C3D20111  25.084   9.631  20.577 -0.3360  0.0731  0.1386
  838BOLB   C4D20112  25.041  10.055  20.353  0.1202 -0.3797 -0.0169
  839BOLB   NC120113  27.128  14.948  22.281 -0.1713 -0.0935 -0.1180
  839BOLB   PO120114  26.808  15.230  22.523 -0.0222 -0.5871 -0.1182
  839BOLB   GL120115  26.496  15.286  22.931  0.0743  0.2342 -0.2746
  839BOLB   GL220116  26.431  15.527  23.179  0.1642 -0.1844 -0.0032
  839BOLB   C1A20117  26.166  15.111  23.121  0.0516 -0.0634 -0.1638
  839BOLB   C2A20118  25.830  15.147  23.409 -0.0388  0.0721  0.1005
  839BOLB   C3A20119  25.795  14.991  23.771 -0.1401  0.0800 -0.1824
  839BOLB   C4A20120  25.658  14.587  24.009 -0.1369 -0.0112  0.0808
  839BOLB   C1B20121  26.244  15.402  23.626 -0.0201  0.0056  0.0866
  839BOLB   C2B20122  26.113  15.353  24.062  0.0792 -0.3348 -0.0553
  839BOLB   C3B20123  26.409  15.062  24.359  0.1091  0.0086  0.0969
  839BOLB   C4B20124  26.346  14.759  24.701  0.1131 -0.0038  0.0488
  839BOLB   NC220125  25.980  13.654  26.260 -0.0822  0.2076 -0.1660
  839BOLB   PO220126  25.738  13.836  26.030  0.2603  0.0342  0.1600
  839BOLB   GL320127  25.297  14.086  25.834 -0.1443 -0.4153  0.2974
  839BOLB   GL420128  25.016  14.320  25.988 -0.1369 -0.2846 -0.0945
  839BOLB   C1C20129  25.160  14.230  25.463 -0.1195 -0.4412 -0.0667
  839BOLB   C2C20130  25.150  14.401  25.010  0.0138 -0.1604  0.2611
  839BOLB   C3C20131  25.295  14.223  24.602  0.0828 -0.0270  0.0461
  839BOLB   C4C20132  25.548  14.315  24.344 -0.0726  0.1214 -0.3505
  839BOLB   C1D20133  25.134  14.654  25.660 -0.0678 -0.0707 -0.1033
  839BOLB   C2D20134  25.112  14.949  25.286 -0.0519 -0.0941 -0.0464
  839BOLB   C3D20135  25.121  15.036  24.879  0.2312 -0.0734 -0.1671
  839BOLB   C4D20136  25.376  14.748  24.554  0.0015  0.0993  0.2454
  840BOLB   NC120137  27.976  11.753  21.801 -0.1579  0.0956 -0.0208
  840BOLB   PO120138  27.688  11.838  21.479  0.1160 -0.2217  0.0413
  840BOLB   GL120139  27.353  12.010  21.714  0.2099 -0.2104 -0.0452
  840BOLB   GL220140  27.078  11.980  21.573 -0.1494 -0.0227 -0.1722
  840BOLB   C1A20141  27.167  12.268  21.981  0.1544 -0.4038  0.1224
  840BOLB   C2A20142  26.852  12.235  22.329  0.3399 -0.2387  0.0023
  840BOLB   C3A20143  26.671  11.936  22.660 -0.0649  0.1058  0.1422
  840BOLB   C4A20144  26.471  11.624  22.473 -0.3061  0.0841 -0.0380
  840BOLB   C1B20145  26.837  11.647  21.653  0.3660  0.2377 -0.1679
  840BOLB   C2B20146  26.629  11.255  21.597  0.1147  0.2195  0.1482
  840BOLB   C3B20147  26.255  11.186  21.362 -0.2715 -0.2932  0.0593
  840BOLB   C4B20148  25.904  11.077  21.463  0.0293  0.0344 -0.1951
  840BOLB   NC220149  28.215  10.692  21.759  0.2419 -0.0918 -0.0707
  840BOLB   PO220150  27.915  10.391  21.860 -0.1287  0.1499 -0.1502
  840BOLB   GL320151  27.577  10.116  21.759  0.0149  0.4531  0.2118
  840BOLB   GL420152  27.392  10.360  21.515  0.1501 -0.0044  0.0890
  840BOLB   C1C20153  27.095  10.318  21.975 -0.1706  0.3232 -0.0138
  840BOLB   C2C20154  26.866  10.784  21.914 -0.1571 -0.4056 -0.0545
  840BOLB   C3C20155  26.587  11.008  22.054 -0.0548  0.0475  0.0957
  840BOLB   C4C20156  26.443  11.355  22.219  0.3875 -0.0031 -0.0721
  840BOLB   C1D20157  26.874  10.490  21.408  0.0899  0.0427 -0.2915
  840BOLB   C2D20158  26.590  10.725  21.515  0.0967 -0.1476  0.3106
  840BOLB   C3D20159  26.204  10.797  21.794  0.1122 -0.0520  0.0022
  840BOLB   C4D20160  25.724  10.768  21.907 -0.0448  0.1835 -0.3686
  841BOLB   NC120161  23.250  14.599  22.241 -0.1136 -0.1222  0.2805
  841BOLB   PO120162  23.371  14.200  22.440 -0.0243 -0.1636 -0.1175
  841BOLB   GL120163  23.495  13.899  22.833  0.0263  0.0802 -0.0905
  841BOLB   GL220164  23.826  13.706  22.639  0.0355 -0.0051  0.0806
  841BOLB   C1A20165  23.629  13.806  23.285 -0.1192  0.3287 -0.0747
  841BOLB   C2A20166  23.856  13.947  23.628 -0.0016 -0.0442  0.0050
  841BOLB   C3A20167  23.733  13.947  24.102  0.2699 -0.0130  0.2006
  841BOLB   C4A20168  23.592  13.694  24.491  0.3978 -0.0078  0.3508
  841BOLB   C1B20169  23.678  13.392  22.917  0.1564  0.0872 -0.0438
  841BOLB   C2B20170  23.932  13.256  23.318  0.0582 -0.3033  0.2084
  841BOLB   C3B20171  23.800  13.387  23.631  0.0714  0.1206 -0.2580
  841BOLB   C4B20172  23.877  13.418  24.157 -0.0697  0.0147  0.3389
  841BOLB   NC220173  22.993  13.851  27.344  0.0208 -0.0093  0.2467
  841BOLB   PO220174  23.417  13.633  27.177 -0.2599 -0.0726  0.1638
  841BOLB   GL320175  23.587  13.521  26.718 -0.2995  0.4352  0.1798
  841BOLB   GL420176  23.762  13.300  26.611 -0.2716  0.1669 -0.0923
  841BOLB   C1C20177  23.436  13.468  26.217  0.1621 -0.3419  0.1081
  841BOLB   C2C20178  23.444  13.658  25.681  0.0940 -0.3747 -0.0204
  841BOLB   C3C20179  23.411  13.444  25.195 -0.0079 -0.0076  0.1822
  841BOLB   C4C20180  23.521  13.658  24.882  0.0205  0.0767 -0.1692
  841BOLB   C1D20181  23.703  13.025  26.246  0.3004 -0.0350  0.1940
  841BOLB   C2D20182  23.770  12.754  25.819 -0.0033 -0.0881 -0.0027
  841BOLB   C3D20183  23.800  12.671  25.334  0.0206  0.1651  0.1019
  841BOLB   C4D20184  23.591  12.832  24.948 -0.0460  0.0676 -0.0972
  842BOLB   NC120185  25.330  22.646  20.199 -0.0951 -0.0018  0.1620
  842BOLB   PO120186  25.106  22.909  20.345 -0.3070  0.1138 -0.0503
  842BOLB   GL120187  24.893  22.528  20.428  0.0695 -0.0521 -0.1422
  842BOLB   GL220188  24.712  22.535  20.205 -0.1595 -0.1889  0.0800
  842BOLB   C1A20189  24.883  21.996  20.366 -0.1584 -0.0577  0.2193
  842BOLB   C2A20190  24.971  21.756  20.699 -0.1000  0.3547  0.0653
  842BOLB   C3A20191  24.959  21.469  21.111  0.1459 -0.0489  0.1497
  842BOLB   C4A20192  24.778  21.278  21.483  0.1703 -0.2987 -0.1614
  842BOLB   C1B20193  24.471  22.325  20.470 -0.2643 -0.0378  0.0153
  842BOLB   C2B20194  24.092  22.358  20.688  0.1420  0.3684 -0.1612
  842BOLB   C3B20195  24.009  22.735  20.993 -0.1439 -0.0723 -0.2035
  842BOLB   C4B20196  23.936  22.882  21.364  0.1705 -0.0697  0.2474
  842BOLB   NC220197  26.445  21.316  22.339  0.1004 -0.0514  0.1808
  842BOLB   PO220198  26.446  20.868  22.426  0.0646  0.1259 -0.2542
  842BOLB   GL320199  26.123  20.880  22.658 -0.1390 -0.2674  0.4629
  842BOLB   GL420200  26.113  20.962  22.989 -0.0610  0.1232 -0.0457
  842BOLB   C1C20201  25.817  20.679  22.631  0.2403 -0.3674 -0.1153
  842BOLB   C2C20202  25.562  20.800  22.365 -0.1005  0.1544  0.0941
  842BOLB   C3C20203  25.249  20.841  22.099 -0.0397  0.0514  0.0322
  842BOLB   C4C20204  25.035  21.121  21.846 -0.2604 -0.0082  0.1507
  842BOLB   C1D20205  25.572  21.063  22.919  0.2100 -0.1674  0.1853
  842BOLB   C2D20206  25.195  21.007  23.097  0.2604  0.2173 -0.1112
  842BOLB   C3D20207  24.927  20.764  23.045  0.1222 -0.1244 -0.1698
  842BOLB   C4D20208  24.741  20.572  22.740  0.1190 -0.2576 -0.0220
  843BOLB   NC120209  27.826  15.285  24.502  0.1273 -0.3212 -0.1434
  843BOLB   PO120210  27.962  15.234  24.043 -0.0570  0.1261  0.3058
  843BOLB   GL120211  27.440  15.352  23.960 -0.1511 -0.1168 -0.2085
  843BOLB   GL220212  27.369  15.150  24.165 -0.0074  0.0970 -0.0984
  843BOLB   C1A20213  27.174  15.714  23.866 -0.0852  0.1765 -0.1632
  843BOLB   C2A20214  27.008  16.118  23.928  0.3241  0.0999 -0.0620
  843BOLB   C3A20215  26.879  16.508  24.173  0.3704  0.2550  0.0047
  843BOLB   C4A20216  26.617  16.648  24.565  0.1205 -0.1887 -0.0618
  843BOLB   C1B20217  26.981  15.218  23.929 -0.1791  0.0989  0.1775
  843BOLB   C2B20218  26.680  15.445  24.009  0.2947  0.3437  0.1896
  843BOLB   C3B20219  26.583  15.867  23.898 -0.1413 -0.2022  0.4340
  843BOLB   C4B20220  26.488  16.287  23.704 -0.1581  0.1883  0.1272
  843BOLB   NC220221  26.030  17.609  26.194 -0.1887  0.0294 -0.0360
  843BOLB   PO220222  25.676  17.360  26.258 -0.3732 -0.0563  0.0884
  843BOLB   GL320223  25.386  17.368  25.967  0.2078  0.0396 -0.0017
  843BOLB   GL420224  25.128  17.560  25.918 -0.1491  0.1860  0.1087
  843BOLB   C1C20225  25.623  17.384  25.557  0.1479  0.3064 -0.2716
  843BOLB   C2C20226  25.930  17.003  25.321 -0.2756 -0.3829 -0.0005
  843BOLB   C3C20227  26.304  16.841  25.146 -0.0293 -0.0835  0.0844
  843BOLB   C4C20228  26.531  16.837  24.900 -0.2603  0.2255 -0.0649
  843BOLB   C1D20229  24.959  17.966  26.000  0.0564 -0.1472  0.0106
  843BOLB   C2D20230  24.604  18.238  25.865  0.2149  0.2509  0.2907
  843BOLB   C3D20231  24.103  18.033  25.986  0.1176 -0.1418 -0.1019
  843BOLB   C4D20232  23.853  17.730  25.813 -0.0350 -0.0018 -0.0354
  844BOLB   NC120233  22.941  21.629  20.873 -0.3162  0.1536 -0.3254
  844BOLB   PO120234  22.987  21.740  21.332  0.2092 -0.3204 -0.2348
  844BOLB   GL120235  23.388  21.630  21.500 -0.4941  0.0349  0.1793
  844BOLB   GL220236  23.565  21.310  21.523 -0.5740 -0.0125 -0.0517
  844BOLB   C1A20237  23.407  21.570  21.950 -0.0290  0.1331  0.2918
  844BOLB   C2A20238  23.502  21.301  22.243  0.1933 -0.1914  0.0467
  844BOLB   C3A20239  23.839  21.130  22.536  0.0574  0.1611  0.0912
  844BOLB   C4A20240  23.967  21.396  22.791  0.0912  0.0527  0.2409
  844BOLB   C1B20241  23.921  21.334  21.866 -0.1885  0.0334  0.1787
  844BOLB   C2B20242  23.898  21.558  22.258  0.2774  0.1144 -0.2013
  844BOLB   C3B20243  23.601  21.817  22.333  0.0139 -0.1914  0.1345
  844BOLB   C4B20244  23.561  22.304  22.353 -0.3233  0.0834 -0.0436
  844BOLB   NC220245  25.720  22.223  23.949 -0.1842  0.4963  0.1150
  844BOLB   PO220246  25.599  21.761  24.119 -0.0778 -0.0400  0.2033
  844BOLB   GL320247  25.198  21.763  23.963 -0.0853  0.0275  0.0965
  844BOLB   GL420248  25.082  22.132  24.023 -0.0657 -0.0237 -0.1639
  844BOLB   C1C20249  24.914  21.855  23.553 -0.1227 -0.0155  0.2730
  844BOLB   C2C20250  24.500  22.047  23.420 -0.3375 -0.0919  0.1934
  844BOLB   C3C20251  24.320  22.048  23.010  0.3017  0.0926 -0.1655
  844BOLB   C4C20252  23.952  21.866  22.719  0.2820 -0.0287 -0.0240
  844BOLB   C1D20253  24.650  22.028  24.014  0.0022 -0.1102  0.4621
  844BOLB   C2D20254  24.432  21.673  24.157  0.3326  0.0400 -0.2742
  844BOLB   C3D20255  24.402  21.270  24.116 -0.2854  0.1309 -0.3869
  844BOLB   C4D20256  24.607  20.924  23.842  0.0070  0.0952  0.4905
  845BOLB   NC120257  23.078  12.271  21.089 -0.2268 -0.0595  0.0576
  845BOLB   PO120258  23.197  11.888  21.080  0.1702  0.1416  0.0383
  845BOLB   GL120259  23.129  11.530  21.444 -0.1376 -0.4530  0.1444
  845BOLB   GL220260  23.042  11.299  21.226  0.1057 -0.1159  0.0127
  845BOLB   C1A20261  23.083  11.288  21.755  0.4965 -0.0714 -0.0858
  845BOLB   C2A20262  22.859  10.920  22.075 -0.1184 -0.2129  0.5171
  845BOLB   C3A20263  22.871  10.837  22.514 -0.0597 -0.1345 -0.1721
  845BOLB   C4A20264  22.759  10.799  22.958  0.0411 -0.3413  0.1052
  845BOLB   C1B20265  23.454  11.248  21.167  0.1309 -0.0335 -0.1312
  845BOLB   C2B20266  23.962  11.119  21.261  0.1107  0.0688 -0.3442
  845BOLB   C3B20267  24.071  10.767  21.453 -0.1685 -0.2234  0.1375
  845BOLB   C4B20268  24.148  10.298  21.613 -0.0942 -0.4610 -0.0154
  845BOLB   NC220269  23.842   9.825  25.320 -0.6494 -0.1453 -0.1838
  845BOLB   PO220270  23.556  10.175  25.218 -0.3223  0.2958 -0.0080
  845BOLB   GL320271  23.247  10.105  24.859  0.3719  0.0118 -0.0865
  845BOLB   GL420272  22.888   9.900  24.933 -0.1045 -0.0857 -0.1606
  845BOLB   C1C20273  22.861  10.311  24.601 -0.2194 -0.0075  0.0694
  845BOLB   C2C20274  22.961  10.672  24.323  0.1110 -0.2571  0.1814
  845BOLB   C3C20275  22.973  10.730  23.855 -0.2555 -0.0216 -0.0832
  845BOLB   C4C20276  22.823  10.772  23.473 -0.4600 -0.0800  0.4075
  845BOLB   C1D20277  22.542   9.908  24.771 -0.0422 -0.3191 -0.1364
  845BOLB   C2D20278  22.424  10.166  24.417 -0.2338 -0.0464  0.1729
  845BOLB   C3D20279  22.218  10.210  24.131  0.0806  0.1156 -0.1633
  845BOLB   C4D20280  22.013  10.439  23.817 -0.2428 -0.1071  0.2408
  846BOLB   NC120281  26.657  16.858  22.108  0.0625  0.2961  0.2314
  846BOLB   PO120282  26.318  16.956  22.226 -0.0106 -0.2941 -0.1400
  846BOLB   GL120283  26.165  17.344  22.451  0.1847  0.3782 -0.0630
  846BOLB   GL220284  26.149  17.680  22.552  0.3389  0.1356 -0.2483
  846BOLB   C1A20285  25.902  17.264  22.806 -0.0919  0.4075  0.2453
  846BOLB   C2A20286  25.603  17.735  22.780  0.2602  0.3842 -0.1271
  846BOLB   C3A20287  25.261  17.998  22.965 -0.1639 -0.0062  0.0776
  846BOLB   C4A20288  25.121  18.083  23.402 -0.1978 -0.0106  0.0141
  846BOLB   C1B20289  26.276  18.184  22.332 -0.2094 -0.1963  0.2401
  846BOLB   C2B20290  26.535  18.469  22.115  0.1577  0.1120  0.1494
  846BOLB   C3B20291  26.469  18.813  22.022  0.2784 -0.0209  0.1302
  846BOLB   C4B20292  26.699  19.034  21.706 -0.3653  0.0728 -0.3610
  846BOLB   NC220293  25.570  19.794  25.145 -0.0097  0.3337  0.0691
  846BOLB   PO220294  25.745  19.424  25.198 -0.0852 -0.0144 -0.0421
  846BOLB   GL320295  25.487  19.038  25.080  0.1375 -0.0480  0.2293
  846BOLB   GL420296  25.782  18.873  24.948  0.2513  0.2327  0.0970
  846BOLB   C1C20297  25.240  18.830  24.779  0.5461  0.0476 -0.0134
  846BOLB   C2C20298  25.179  18.612  24.383  0.2685 -0.1324 -0.0485
  846BOLB   C3C20299  24.960  18.245  24.153 -0.0591  0.1672  0.0014
  846BOLB   C4C20300  24.870  18.203  23.663 -0.1161  0.2227  0.1134
  846BOLB   C1D20301  25.597  18.480  24.945  0.0060 -0.2686 -0.0293
  846BOLB   C2D20302  25.367  18.290  24.734  0.0498  0.1797  0.1621
  846BOLB   C3D20303  25.101  17.945  24.579  0.1945  0.2431 -0.1646
  846BOLB   C4D20304  24.764  17.526  24.538 -0.0402 -0.2409  0.0207
  847BOLB   NC120305  24.075  11.989  20.781  0.0473 -0.3478  0.2259
  847BOLB   PO120306  23.985  11.794  20.361  0.1673  0.2413  0.2967
  847BOLB   GL120307  24.190  11.458  20.447  0.0671  0.3062 -0.2564
  847BOLB   GL220308  24.422  11.599  20.593 -0.0960 -0.0759  0.1607
  847BOLB   C1A20309  24.116  11.127  20.695 -0.0496  0.0013  0.2225
  847BOLB   C2A20310  24.304  10.770  20.909 -0.0544  0.2376  0.0342
  847BOLB   C3A20311  24.389  10.447  21.103 -0.0220 -0.1823  0.1015
  847BOLB   C4A20312  24.582  10.057  21.292  0.0313 -0.1110 -0.2715
  847BOLB   C1B20313  24.593  11.166  20.509 -0.6542  0.0320 -0.2233
  847BOLB   C2B20314  24.739  11.011  20.843 -0.0620  0.0438 -0.1356
  847BOLB   C3B20315  25.055  10.968  21.219 -0.1197  0.0444 -0.0931
  847BOLB   C4B20316  25.470  11.263  21.214  0.4279 -0.0863 -0.4033
  847BOLB   NC220317  26.331   9.150  23.392 -0.0577 -0.1390 -0.5057
  847BOLB   PO220318  26.136   9.503  23.065  0.2197 -0.0129  0.0386
  847BOLB   GL320319  25.780   9.637  22.989  0.0561  0.0072 -0.2939
  847BOLB   GL420320  25.604   9.396  22.902 -0.1911  0.1225  0.3688
  847BOLB   C1C20321  25.456   9.862  22.773  0.0596  0.0133 -0.0011
  847BOLB   C2C20322  25.200  10.000  22.470 -0.0711  0.0318  0.3483
  847BOLB   C3C20323  24.936  10.167  22.240  0.3207  0.0764  0.1488
  847BOLB   C4C20324  24.674  10.108  21.757 -0.0299 -0.1423 -0.3199
  847BOLB   C1D20325  25.328   9.388  22.493  0.1682  0.0794 -0.1420
  847BOLB   C2D20326  25.572   9.661  22.159 -0.0140 -0.5522  0.1337
  847BOLB   C3D20327  25.858   9.557  21.842 -0.2149  0.0863  0.2693
  847BOLB   C4D20328  26.063   9.581  21.455 -0.0202 -0.1349  0.1384
  848BOLB   NC120329  25.933  14.224  21.334 -0.4157  0.1602 -0.0524
  848BOLB   PO120330  26.295  14.114  21.488  0.2241  0.0159  0.0789
  848BOLB   GL120331  26.008  14.125  21.844 -0.0508  0.2143  0.1415
  848BOLB   GL220332  25.945  13.845  21.889  0.1116  0.4560 -0.1212
  848BOLB   C1A20333  26.087  14.118  22.380 -0.4552 -0.2724 -0.0861
  848BOLB   C2A20334  25.969  13.969  22.890 -0.0644  0.2161 -0.1360
  848BOLB   C3A20335  25.777  13.726  23.136 -0.1332  0.1723 -0.0635
  848BOLB   C4A20336  25.779  13.521  23.379  0.1156 -0.0723  0.2533
  848BOLB   C1B20337  25.762  13.708  22.244  0.2743  0.0894 -0.3542
  848BOLB   C2B20338  25.598  13.641  22.705 -0.0606  0.4027  0.1467
  848BOLB   C3B20339  25.616  13.216  22.963 -0.0704 -0.0925 -0.0119
  848BOLB   C4B20340  25.473  12.864  22.787  0.4072  0.3146 -0.2039
  848BOLB   NC220341  26.451  12.795  25.955  0.1533  0.1793  0.0875
  848BOLB   PO220342  26.188  13.000  25.567  0.1074  0.1971 -0.0051
  848BOLB   GL320343  26.231  13.186  25.195  0.0098  0.0841 -0.0130
  848BOLB   GL420344  26.256  13.524  25.272 -0.0690 -0.0776  0.0665
  848BOLB   C1C20345  25.978  13.202  24.894 -0.1845  0.1186  0.3200
  848BOLB   C2C20346  25.728  13.265  24.602 -0.5047  0.4567  0.3403
  848BOLB   C3C20347  25.790  13.408  24.201 -0.1292 -0.2315 -0.0822
  848BOLB   C4C20348  25.799  13.542  23.779  0.0569  0.2123  0.4900
  848BOLB   C1D20349  26.314  13.579  24.879 -0.2272 -0.5056  0.2507
  848BOLB   C2D20350  26.214  13.486  24.461  0.2093 -0.1433  0.1652
  848BOLB   C3D20351  26.240  13.333  24.054 -0.2793  0.2807  0.3018
  848BOLB   C4D20352  26.292  13.501  23.605 -0.2345 -0.0574 -0.0817
  849BOLB   NC120353  22.088  18.324  23.169 -0.2326 -0.2411  0.5137
  849BOLB   PO120354  22.154  17.968  23.307  0.0538  0.3761  0.1993
  849BOLB   GL120355  22.179  17.728  23.508  0.1624 -0.1613 -0.1469
  849BOLB   GL220356  21.957  17.540  23.662  0.1311 -0.1656 -0.0042
  849BOLB   C1A20357  22.394  17.598  23.876 -0.1290 -0.1071  0.0656
  849BOLB   C2A20358  22.677  17.611  24.196  0.1085 -0.3815 -0.0016
  849BOLB   C3A20359  23.076  17.442  24.462 -0.0523  0.1973  0.1522
  849BOLB   C4A20360  23.127  17.240  24.844 -0.0582  0.1059  0.0392
  849BOLB   C1B20361  21.923  17.368  24.115  0.1933 -0.0461  0.1685
  849BOLB   C2B20362  21.939  17.436  24.508 -0.0303 -0.1354  0.0935
  849BOLB   C3B20363  22.059  17.431  24.952 -0.2730  0.3406 -0.0267
  849BOLB   C4B20364  22.113  17.700  25.236  0.0083  0.0910  0.0170
  849BOLB   NC220365  24.814  16.649  27.067 -0.1939 -0.0865  0.1932
  849BOLB   PO220366  24.405  16.812  26.866  0.0404 -0.3935  0.0382
  849BOLB   GL320367  24.228  16.745  26.410  0.1905  0.3517 -0.2515
  849BOLB   GL420368  24.442  16.430  26.335  0.2357 -0.1011  0.0970
  849BOLB   C1C20369  23.938  16.756  26.148 -0.0804 -0.2668  0.2599
  849BOLB   C2C20370  23.521  16.735  25.911 -0.0725  0.2649  0.1339
  849BOLB   C3C20371  23.254  16.753  25.571  0.3369 -0.1207  0.0042
  849BOLB   C4C20372  23.184  17.000  25.169  0.4301 -0.2311 -0.3192
  849BOLB   C1D20373  24.208  16.357  25.976 -0.0199 -0.3820 -0.1415
  849BOLB   C2D20374  24.002  16.513  25.675 -0.1444  0.1083 -0.2117
  849BOLB   C3D20375  23.677  16.469  25.382  0.0604 -0.0056  0.0608
  849BOLB   C4D20376  23.351  16.529  25.087 -0.0014  0.0473  0.0939
  850BOLB   NC120377  23.130  17.983  22.421 -0.0995 -0.1331  0.1722
  850BOLB   PO120378  22.914  18.026  22.765  0.1548  0.1784  0.0539
  850BOLB   GL120379  23.072  18.101  23.177 -0.2497  0.0344  0.0394
  850BOLB   GL220380  23.215  17.764  23.161 -0.0130  0.4046  0.1919
  850BOLB   C1A20381  23.217  18.076  23.659 -0.1812  0.3514 -0.1160
  850BOLB   C2A20382  23.421  18.138  24.017 -0.1176 -0.1264 -0.1500
  850BOLB   C3A20383  23.634  18.433  24.270 -0.0440 -0.4298 -0.0478
  850BOLB   C4A20384  23.452  18.622  24.503 -0.1687  0.1145  0.0529
  850BOLB   C1B20385  23.547  17.940  23.280 -0.1315 -0.1576 -0.1336
  850BOLB   C2B20386  23.806  18.034  23.678  0.3381 -0.0669  0.2873
  850BOLB   C3B20387  24.008  18.206  23.975  0.1295 -0.1492  0.2632
  850BOLB   C4B20388  24.468  18.309  23.971 -0.1328  0.0512 -0.0081
  850BOLB   NC220389  24.239  19.375  26.878 -0.0911  0.0843  0.1171
  850BOLB   PO220390  23.869  19.505  26.613 -0.0173 -0.1184  0.0081
  850BOLB   GL320391  23.581  19.432  26.374 -0.0179  0.4018  0.1905
  850BOLB   GL420392  23.285  19.422  26.455 -0.0975 -0.2214  0.0482
  850BOLB   C1C20393  23.445  19.188  25.974 -0.0541 -0.2193 -0.1799
  850BOLB   C2C20394  23.224  19.153  25.661  0.0219  0.0018  0.0274
  850BOLB   C3C20395  23.106  19.211  25.176 -0.1885  0.0191 -0.1718
  850BOLB   C4C20396  23.303  19.033  24.819  0.1512 -0.1894  0.2157
  850BOLB   C1D20397  23.091  19.508  26.000  0.2147  0.2193  0.0940
  850BOLB   C2D20398  22.824  19.415  25.803  0.2736  0.1894  0.2105
  850BOLB   C3D20399  22.691  19.315  25.487  0.2183  0.1871  0.0954
  850BOLB   C4D20400  22.427  19.008  25.463  0.4742 -0.1099  0.1697
  851BOLB   NC120401  28.187  10.095  19.585  0.3355 -0.0784  0.0255
  851BOLB   PO120402  27.791   9.973  19.881 -0.2807 -0.1754 -0.1111
  851BOLB   GL120403  27.413  10.148  19.906 -0.0055 -0.2728 -0.0513
  851BOLB   GL220404  27.386  10.154  19.575 -0.0046  0.0538 -0.1174
  851BOLB   C1A20405  27.216  10.258  20.211 -0.1910  0.1705  0.0196
  851BOLB   C2A20406  27.144  10.477  20.558  0.2188  0.1232  0.0690
  851BOLB   C3A20407  27.130  10.675  20.923 -0.2731  0.2336  0.2635
  851BOLB   C4A20408  27.367  10.733  21.248 -0.1195 -0.2813 -0.1230
  851BOLB   C1B20409  27.040  10.521  19.721 -0.2674  0.3711 -0.1671
  851BOLB   C2B20410  26.828  10.752  19.524 -0.0632 -0.1653  0.1595
  851BOLB   C3B20411  26.720  10.717  19.247 -0.1384 -0.2038  0.2154
  851BOLB   C4B20412  26.345  10.764  19.051  0.1180 -0.1831 -0.1446
  851BOLB   NC220413  27.570  12.487  22.881  0.4525 -0.1339 -0.2808
  851BOLB   PO220414  27.723  12.134  22.564  0.0583 -0.0884  0.1756
  851BOLB   GL320415  27.326  12.062  22.492  0.0626 -0.1396  0.1344
  851BOLB   GL420416  27.131  12.066  22.777  0.2551  0.1435 -0.0901
  851BOLB   C1C20417  27.064  11.602  22.558 -0.2312 -0.0480 -0.3628
  851BOLB   C2C20418  27.015  11.309  22.249  0.2917 -0.1982  0.0791
  851BOLB   C3C20419  27.129  11.233  21.874 -0.2732 -0.0687  0.1231
  851BOLB   C4C20420  27.369  10.873  21.709  0.2980  0.1756  0.3358
  851BOLB   C1D20421  26.896  11.841  23.111 -0.0068  0.2535  0.0063
  851BOLB   C2D20422  26.678  12.105  23.393  0.2768  0.1922  0.4133
  851BOLB   C3D20423  26.545  12.379  23.734  0.0310 -0.4148 -0.1413
  851BOLB   C4D20424  26.546  12.508  24.209 -0.2911 -0.0608 -0.4239
  852BOLB   NC120425  24.214  12.757  21.277  0.2600 -0.0058  0.2970
  852BOLB   PO120426  24.485  13.158  21.253  0.2158  0.0092 -0.0277
  852BOLB   GL120427  24.664  12.866  21.561  0.1443 -0.1185 -0.0291
  852BOLB   GL220428  24.949  12.874  21.728  0.1963  0.2233 -0.0414
  852BOLB   C1A20429  24.745  12.446  21.805  0.0012 -0.2850  0.0275
  852BOLB   C2A20430  24.856  11.970  21.886  0.1700  0.0489 -0.1929
  852BOLB   C3A20431  24.848  11.752  22.315 -0.0258  0.0216  0.2030
  852BOLB   C4A20432  24.697  11.450  22.579  0.1421 -0.2231  0.1449
  852BOLB   C1B20433  25.210  12.621  21.984  0.1502  0.2098 -0.0190
  852BOLB   C2B20434  25.584  12.737  22.197 -0.1239 -0.0463  0.0821
  852BOLB   C3B20435  25.666  13.173  22.410 -0.3531  0.2396 -0.2169
  852BOLB   C4B20436  26.025  13.405  22.737  0.0214 -0.4071  0.0339
  852BOLB   NC220437  25.072   9.310  23.287 -0.1892 -0.1766  0.1905
  852BOLB   PO220438  25.102   9.229  23.751 -0.2343  0.2192  0.0848
  852BOLB   GL320439  24.929   9.658  23.581 -0.1497  0.1762 -0.0630
  852BOLB   GL420440  24.600   9.701  23.670  0.0823  0.0398  0.1677
  852BOLB   C1C20441  24.891  10.189  23.442 -0.1685  0.1435 -0.1593
  852BOLB   C2C20442  24.648  10.456  23.208 -0.1706  0.0463  0.1176
  852BOLB   C3C20443  24.694  10.849  23.080 -0.0016  0.5658  0.1264
  852BOLB   C4C20444  24.585  11.087  22.796  0.0644 -0.1205 -0.3114
  852BOLB   C1D20445  24.666   9.831  23.168  0.1740 -0.0784 -0.0652
  852BOLB   C2D20446  24.515  10.080  22.923  0.1126 -0.3200 -0.0809
  852BOLB   C3D20447  24.380   9.949  22.535  0.0422 -0.0039  0.1728
  852BOLB   C4D20448  24.243  10.116  22.098 -0.1475  0.1888  0.1199
  853BOLB   NC120449  27.610  13.277  23.072 -0.1979 -0.1483 -0.0879
  853BOLB   PO120450  27.728  12.889  23.138 -0.0312  0.5642  0.0938
  853BOLB   GL120451  27.206  12.769  23.049  0.3317  0.2688 -0.3352
  853BOLB   GL220452  27.163  12.938  22.860 -0.1222  0.2712  0.2315
  853BOLB   C1A20453  26.805  12.537  22.939 -0.0884  0.4503 -0.0372
  853BOLB   C2A20454  26.495  12.282  22.949 -0.0428 -0.4387  0.3514
  853BOLB   C3A20455  26.331  11.845  23.052  0.1910  0.1093 -0.0333
  853BOLB   C4A20456  26.560  11.470  22.942 -0.0642 -0.0348  0.0553
  853BOLB   C1B20457  26.890  13.052  22.776  0.1775  0.0253 -0.0698
  853BOLB   C2B20458  26.540  12.919  22.729  0.0925  0.1025  0.1954
  853BOLB   C3B20459  26.298  12.754  23.063  0.0068 -0.2870  0.0699
  853BOLB   C4B20460  26.144  12.283  23.266  0.3531  0.0930 -0.1062
  853BOLB   NC220461  26.467   9.324  22.010  0.2644 -0.0377 -0.4067
  853BOLB   PO220462  26.826   9.476  21.706 -0.2186 -0.2213 -0.1376
  853BOLB   GL320463  26.591   9.756  21.556 -0.3405 -0.0920 -0.3061
  853BOLB   GL420464  26.538  10.047  21.351 -0.0527 -0.1365  0.1822
  853BOLB   C1C20465  26.681  10.176  21.824 -0.0941 -0.1578 -0.0130
  853BOLB   C2C20466  26.524  10.511  22.051 -0.0926  0.2203 -0.4817
  853BOLB   C3C20467  26.699  10.764  22.494  0.0641 -0.0818 -0.0433
  853BOLB   C4C20468  26.758  11.239  22.646 -0.3536  0.0236 -0.0903
  853BOLB   C1D20469  26.233  10.293  21.382 -0.1154 -0.1195  0.0472
  853BOLB   C2D20470  25.888  10.460  21.420  0.0350  0.0136 -0.1724
  853BOLB   C3D20471  25.461  10.633  21.453 -0.2089 -0.1466 -0.1493
  853BOLB   C4D20472  25.374  10.988  21.615  0.0016  0.0019 -0.5479
  854BOLB   NC120473  23.229  19.089  21.490 -0.2723 -0.0522 -0.1792
  854BOLB   PO120474  23.544  19.328  21.714 -0.2300  0.2812 -0.0445
  854BOLB   GL120475  23.626  19.464  22.092 -0.2105 -0.0682  0.1983
  854BOLB   GL220476  23.952  19.499  22.055 -0.6375 -0.3390  0.3018
  854BOLB   C1A20477  23.843  19.378  22.540  0.1387  0.3220 -0.0119
  854BOLB   C2A20478  24.098  19.191  22.804  0.1744  0.1155 -0.1010
  854BOLB   C3A20479  24.144  19.151  23.363 -0.0962  0.1506 -0.1662
  854BOLB   C4A20480  24.324  19.081  23.813 -0.0344  0.1581 -0.1152
  854BOLB   C1B20481  24.350  19.285  22.223  0.4795  0.1395 -0.1731
  854BOLB   C2B20482  24.426  18.869  22.376  0.0744 -0.2016  0.0380
  854BOLB   C3B20483  24.671  18.779  22.677  0.2603  0.0012 -0.2450
  854BOLB   C4B20484  25.034  18.487  22.697 -0.1227 -0.2620  0.1515
  854BOLB   NC220485  25.075  19.348  26.505  0.1735 -0.1376 -0.0341
  854BOLB   PO220486  24.785  19.507  26.189 -0.0731 -0.1606 -0.0361
  854BOLB   GL320487  24.888  19.546  25.793  0.1814 -0.2019  0.0533
  854BOLB   GL420488  24.968  19.854  25.709 -0.1227  0.1095  0.2635
  854BOLB   C1C20489  24.746  19.361  25.409  0.0749  0.2137 -0.2350
  854BOLB   C2C20490  24.508  19.181  25.107  0.4774 -0.0974 -0.3035
  854BOLB   C3C20491  24.237  18.945  24.770 -0.0607 -0.0510  0.1899
  854BOLB   C4C20492  24.227  19.125  24.291 -0.2675 -0.0368  0.2178
  854BOLB   C1D20493  24.603  19.844  25.437  0.0597 -0.1103 -0.1509
  854BOLB   C2D20494  24.463  20.133  25.300 -0.4024 -0.1274 -0.0536
  854BOLB   C3D20495  24.123  20.304  25.093  0.2798 -0.1631 -0.1159
  854BOLB   C4D20496  23.792  20.559  25.090  0.0949  0.3986  0.1098
  855BOLB   NC120497  25.071  16.569  21.791 -0.0654  0.3109 -0.0808
  855BOLB   PO120498  25.424  16.556  22.037  0.2464  0.1369  0.1807
  855BOLB   GL120499  25.503  16.708  22.442  0.2504  0.1930  0.1793
  855BOLB   GL220500  25.577  16.985  22.493  0.1682 -0.0500  0.1169
  855BOLB   C1A20501  25.620  16.738  22.899  0.0759 -0.0013  0.1032
  855BOLB   C2A20502  25.627  16.650  23.357 -0.3341  0.1084 -0.0503
  855BOLB   C3A20503  25.561  16.497  23.800  0.0333 -0.0828  0.1839
  855BOLB   C4A20504  25.389  16.722  24.191  0.1064 -0.1108 -0.1819
  855BOLB   C1B20505  25.349  17.195  22.719  0.1849  0.0181  0.2758
  855BOLB   C2B20506  25.048  17.533  22.591 -0.4245  0.2031  0.1966
  855BOLB   C3B20507  24.818  17.949  22.534  0.2782  0.1429 -0.0807
  855BOLB   C4B20508  24.595  18.223  22.623 -0.0906 -0.1034  0.0182
  855BOLB   NC220509  26.774  18.322  24.978  0.1930 -0.2483 -0.0899
  855BOLB   PO220510  26.744  17.888  25.051  0.2291 -0.1387  0.1353
  855BOLB   GL320511  26.321  17.867  24.957 -0.2372  0.2559 -0.1325
  855BOLB   GL420512  26.312  17.647  24.690 -0.2307  0.2098 -0.2661
  855BOLB   C1C20513  25.910  17.909  24.792 -0.0750 -0.3146  0.1482
  855BOLB   C2C20514  25.508  17.657  24.629 -0.1322  0.1491  0.3666
  855BOLB   C3C20515  25.215  17.420  24.783  0.1171 -0.3224 -0.0031
  855BOLB   C4C20516  25.148  16.983  24.478  0.0267 -0.1526  0.1484
  855BOLB   C1D20517  26.182  17.948  24.387 -0.1500  0.0328  0.2043
  855BOLB   C2D20518  26.337  18.292  24.263 -0.4099 -0.3210 -0.0633
  855BOLB   C3D20519  26.080  18.705  24.069  0.1035  0.3860 -0.1828
  855BOLB   C4D20520  26.164  19.085  24.060  0.1340  0.2191 -0.3995
  856BOLB   NC120521  27.954  13.132  23.580  0.0247  0.1975 -0.0233
  856BOLB   PO120522  27.586  13.111  23.847  0.0760  0.0903 -0.4045
  856BOLB   GL120523  27.215  13.263  23.723  0.3190 -0.2540 -0.0274
  856BOLB   GL220524  27.254  13.057  23.482  0.0902 -0.1701 -0.0112
  856BOLB   C1A20525  26.764  13.361  23.824  0.1974 -0.0285 -0.0067
  856BOLB   C2A20526  26.693  13.484  24.349 -0.2332  0.2541 -0.1346
  856BOLB   C3A20527  26.527  13.910  24.492  0.1487  0.0109 -0.0064
  856BOLB   C4A20528  26.504  14.299  24.376  0.1439  0.4580 -0.0100
  856BOLB   C1B20529  26.880  13.088  23.317  0.0216 -0.0295 -0.1202
  856BOLB   C2B20530  26.453  12.922  23.504  0.0646  0.2808 -0.0578
  856BOLB   C3B20531  26.403  12.835  23.852 -0.0856  0.0460 -0.1212
  856BOLB   C4B20532  26.168  12.851  24.295 -0.1385  0.0090  0.2196
  856BOLB   NC220533  27.021  16.938  25.386  0.1239  0.3371 -0.1309
  856BOLB   PO220534  27.161  16.602  24.941 -0.3096 -0.2888 -0.4756
  856BOLB   GL320535  26.958  16.273  24.732 -0.2820  0.0495 -0.0753
  856BOLB   GL420536  26.915  15.976  24.946 -0.1411 -0.0668 -0.2897
  856BOLB   C1C20537  27.071  16.008  24.465 -0.0076 -0.3023 -0.0181
  856BOLB   C2C20538  27.105  15.603  24.383  0.0471  0.3090 -0.0280
  856BOLB   C3C20539  26.910  15.146  24.420  0.3233 -0.0890  0.0306
  856BOLB   C4C20540  26.801  14.711  24.239  0.0841 -0.0696  0.0021
  856BOLB   C1D20541  26.521  15.785  25.097 -0.2284  0.2374  0.2504
  856BOLB   C2D20542  26.157  15.755  25.031  0.2601  0.0320 -0.3137
  856BOLB   C3D20543  25.830  15.536  25.061  0.1684 -0.3568 -0.0104
  856BOLB   C4D20544  25.405  15.329  25.227 -0.2017 -0.1158  0.2913
  857BOLB   NC120545  23.677  13.257  21.421  0.4501  0.3000 -0.0588
  857BOLB   PO120546  23.777  12.842  21.502 -0.2623 -0.0075  0.0773
  857BOLB   GL120547  23.887  12.502  21.697 -0.2939 -0.0126 -0.4458
  857BOLB   GL220548  24.167  12.582  21.724 -0.0628 -0.1212  0.3112
  857BOLB   C1A20549  23.722  12.129  21.980  0.1514 -0.2180  0.2282
  857BOLB   C2A20550  23.907  11.838  22.240  0.1409  0.0475 -0.0651
  857BOLB   C3A20551  23.883  11.676  22.617 -0.0573  0.1096 -0.0222
  857BOLB   C4A20552  24.177  11.385  22.734  0.1142  0.0923  0.0337
  857BOLB   C1B20553  24.322  12.219  21.732 -0.0752  0.1742 -0.0390
  857BOLB   C2B20554  24.388  11.806  21.911 -0.0832  0.2927 -0.4863
  857BOLB   C3B20555  24.638  11.342  21.854  0.0279 -0.2510 -0.1699
  857BOLB   C4B20556  24.881  10.989  21.712 -0.0487  0.0501  0.0726
  857BOLB   NC220557  25.118  10.824  25.249 -0.2733 -0.0171 -0.0196
  857BOLB   PO220558  24.981  11.266  25.227 -0.1875  0.1076  0.1792
  857BOLB   GL320559  24.902  11.459  24.905  0.1024 -0.2754  0.0985
  857BOLB   GL420560  24.752  11.699  25.000 -0.2763 -0.0206  0.1076
  857BOLB   C1C20561  24.613  11.420  24.551 -0.0384 -0.2314 -0.0355
  857BOLB   C2C20562  24.492  11.526  24.120  0.1294  0.2274  0.1365
  857BOLB   C3C20563  24.380  11.435  23.673  0.2782 -0.0479  0.0126
  857BOLB   C4C20564  24.470  11.369  23.191  0.1146  0.3742  0.0963
  857BOLB   C1D20565  24.674  11.884  24.584  0.3397 -0.1075 -0.2395
  857BOLB   C2D20566  24.361  11.957  24.310 -0.0223 -0.1452 -0.1467
  857BOLB   C3D20567  24.247  11.865  23.895 -0.0077 -0.3286  0.3300
  857BOLB   C4D20568  23.979  11.674  23.646 -0.2462 -0.1580 -0.0325
  858BOLB   NC120569  23.175  12.683  22.061 -0.1813  0.1755  0.0410
  858BOLB   PO120570  22.920  12.603  22.237  0.2256 -0.3488 -0.0253
  858BOLB   GL120571  23.206  12.369  22.473  0.1343  0.0028 -0.1265
  858BOLB   GL220572  23.576  12.451  22.345 -0.0011 -0.1478 -0.1015
  858BOLB   C1A20573  23.509  12.172  22.743 -0.1383 -0.0152  0.0201
  858BOLB   C2A20574  23.862  12.109  23.019  0.1732 -0.0095 -0.0804
  858BOLB   C3A20575  23.912  12.196  23.458  0.0216 -0.0146  0.2001
  858BOLB   C4A20576  23.796  12.084  23.978 -0.1432  0.0534  0.1135
  858BOLB   C1B20577  23.895  12.275  22.483  0.0199  0.0241  0.2009
  858BOLB   C2B20578  24.272  12.240  22.253  0.3227  0.0902  0.1076
  858BOLB   C3B20579  24.715  12.270  22.258 -0.1129  0.3389 -0.0067
  858BOLB   C4B20580  25.089  12.213  22.285  0.1242  0.1200  0.0920
  858BOLB   NC220581  24.746  11.746  25.563  0.2232  0.1945 -0.2067
  858BOLB   PO220582  25.110  12.063  25.834  0.2639 -0.0164 -0.0100
  858BOLB   GL320583  24.895  12.312  25.535 -0.2583  0.1454 -0.3819
  858BOLB   GL420584  24.500  12.333  25.640 -0.0254  0.4690 -0.0662
  858BOLB   C1C20585  24.934  12.329  25.190 -0.2691 -0.2302 -0.3879
  858BOLB   C2C20586  24.595  12.177  24.993  0.6213 -0.1063 -0.5211
  858BOLB   C3C20587  24.202  12.163  24.755 -0.1886 -0.1837  0.1593
  858BOLB   C4C20588  23.931  12.126  24.465 -0.0313 -0.3407 -0.0519
  858BOLB   C1D20589  24.324  12.505  25.369  0.2026  0.0099 -0.0241
  858BOLB   C2D20590  24.151  12.698  24.997 -0.1217  0.0920 -0.4247
  858BOLB   C3D20591  24.119  12.980  24.671 -0.1465  0.0180  0.1821
  858BOLB   C4D20592  24.140  12.983  24.274 -0.1561 -0.0048 -0.1409
  859BOLB   NC120593  23.205  16.614  22.369 -0.1696  0.0717 -0.2166
  859BOLB   PO120594  23.484  16.714  22.686  0.1077  0.1638  0.1887
  859BOLB   GL120595  23.804  16.691  23.029  0.0232 -0.1379 -0.0944
  859BOLB   GL220596  23.880  16.424  23.205 -0.1225  0.1636  0.1999
  859BOLB   C1A20597  23.779  16.791  23.515 -0.2253 -0.3794 -0.0571
  859BOLB   C2A20598  23.743  16.803  23.908 -0.1459  0.1047  0.0060
  859BOLB   C3A20599  23.838  16.717  24.355 -0.3029  0.0125  0.3142
  859BOLB   C4A20600  24.316  16.605  24.491  0.0692 -0.1547  0.0031
  859BOLB   C1B20601  23.808  16.329  23.585 -0.1266 -0.2496 -0.3424
  859BOLB   C2B20602  23.994  16.314  23.998 -0.2806  0.1590  0.1614
  859BOLB   C3B20603  24.403  16.249  24.171 -0.2521 -0.2031  0.0304
  859BOLB   C4B20604  24.721  16.058  24.484 -0.0609 -0.1734  0.3608
  859BOLB   NC220605  26.079  16.505  26.413  0.0944  0.0885 -0.2301
  859BOLB   PO220606  26.353  16.564  26.169  0.0703  0.1564  0.1515
  859BOLB   GL320607  25.994  16.688  25.815  0.1496 -0.1140 -0.1894
  859BOLB   GL420608  25.746  16.900  25.867  0.0691 -0.1116 -0.0713
  859BOLB   C1C20609  25.646  16.491  25.594 -0.0949 -0.0756 -0.2587
  859BOLB   C2C20610  25.337  16.411  25.321 -0.2273 -0.0498 -0.1439
  859BOLB   C3C20611  25.179  16.292  24.960 -0.2403 -0.3314 -0.0331
  859BOLB   C4C20612  24.669  16.447  24.755 -0.0965  0.1021  0.1003
  859BOLB   C1D20613  25.436  16.885  25.516  0.2753  0.1588 -0.0915
  859BOLB   C2D20614  25.169  17.160  25.329 -0.0816  0.0420 -0.0956
  859BOLB   C3D20615  25.016  17.612  25.413 -0.2506  0.2134 -0.1047
  859BOLB   C4D20616  24.619  17.718  25.499 -0.1730 -0.0245 -0.2141
  860BOLB   NC120617  24.518  15.176  22.464  0.2935  0.0211 -0.2194
  860BOLB   PO120618  24.116  15.280  22.470  0.1300  0.1895  0.2057
  860BOLB   GL120619  24.335  15.354  22.983 -0.2575  0.2163 -0.1596
  860BOLB   GL220620  24.467  15.646  23.180  0.0186 -0.1063 -0.0468
  860BOLB   C1A20621  24.318  15.102  23.402  0.0788 -0.2470  0.0206
  860BOLB   C2A20622  24.362  15.081  23.919  0.0155  0.2939  0.1000
  860BOLB   C3A20623  24.446  15.206  24.324 -0.0126  0.1390 -0.2762
  860BOLB   C4A20624  24.488  15.195  24.827 -0.2493  0.1324  0.2226
  860BOLB   C1B20625  24.462  15.528  23.632 -0.3814  0.3443 -0.3700
  860BOLB   C2B20626  24.598  15.631  24.097  0.0833  0.2440  0.2435
  860BOLB   C3B20627  25.004  15.731  24.192 -0.0390 -0.0870 -0.0442
  860BOLB   C4B20628  25.231  15.880  24.434  0.1272  0.1897  0.2651
  860BOLB   NC220629  25.022  14.116  26.456  0.0356  0.0220  0.3277
  860BOLB   PO220630  25.008  13.715  26.630  0.1061 -0.1072  0.0963
  860BOLB   GL320631  24.688  13.894  26.116  0.0650  0.1134 -0.0386
  860BOLB   GL420632  24.910  13.762  25.859  0.0977 -0.3668  0.2127
  860BOLB   C1C20633  24.554  14.183  25.884 -0.1416 -0.0489  0.4926
  860BOLB   C2C20634  24.683  14.461  25.564  0.0202 -0.0450  0.3400
  860BOLB   C3C20635  24.614  14.862  25.479 -0.1206  0.1540  0.1696
  860BOLB   C4C20636  24.547  15.137  25.233 -0.1191  0.1022  0.3575
  860BOLB   C1D20637  24.794  13.898  25.580  0.1089 -0.1127  0.0438
  860BOLB   C2D20638  24.629  14.077  25.173 -0.2076 -0.5483 -0.2012
  860BOLB   C3D20639  24.386  14.203  24.834  0.0917  0.0156  0.2409
  860BOLB   C4D20640  24.285  14.239  24.398 -0.2038 -0.3046  0.0493
  861BOLB   NC120641  25.835  16.883  22.090  0.0937  0.2207  0.1315
  861BOLB   PO120642  25.674  17.258  22.064 -0.0381 -0.1957 -0.0514
  861BOLB   GL120643  25.612  17.624  22.293  0.1763  0.1247  0.0133
  861BOLB   GL220644  25.335  17.630  22.189  0.0708 -0.0237  0.3412
  861BOLB   C1A20645  25.780  17.980  22.270 -0.1111 -0.1452  0.0414
  861BOLB   C2A20646  25.798  18.308  22.502 -0.3403  0.0360 -0.0408
  861BOLB   C3A20647  25.579  18.424  22.882  0.0372 -0.3963 -0.3807
  861BOLB   C4A20648  25.303  18.491  23.170 -0.3133 -0.0265  0.3070
  861BOLB   C1B20649  25.268  18.021  22.480 -0.1741  0.3428  0.0210
  861BOLB   C2B20650  25.159  18.290  22.238 -0.1517  0.0549  0.2903
  861BOLB   C3B20651  25.422  18.402  21.857 -0.2437 -0.1193 -0.0237
  861BOLB   C4B20652  25.482  18.357  21.507 -0.0729 -0.1934 -0.1035
  861BOLB   NC220653  25.752  20.590  24.600 -0.0008 -0.2502 -0.4988
  861BOLB   PO220654  25.642  20.201  24.862 -0.0321  0.4083  0.0574
  861BOLB   GL320655  25.253  20.038  24.736  0.0247  0.2275 -0.1388
  861BOLB   GL420656  25.180  19.922  24.402 -0.0010 -0.1079  0.1150
  861BOLB   C1C20657  25.135  19.474  24.624 -0.1923 -0.0518  0.1430
  861BOLB   C2C20658  25.147  19.103  24.358  0.0634 -0.0918  0.0315
  861BOLB   C3C20659  25.064  18.946  23.940 -0.1186 -0.0820  0.1348
  861BOLB   C4C20660  25.068  18.728  23.550 -0.0169  0.2841 -0.1528
  861BOLB   C1D20661  25.033  19.696  23.990 -0.1335  0.0821 -0.1279
  861BOLB   C2D20662  25.010  19.367  23.669  0.1006 -0.0565 -0.0290
  861BOLB   C3D20663  24.952  19.376  23.169  0.0661 -0.2374  0.0960
  861BOLB   C4D20664  25.140  19.365  22.749  0.1001 -0.2858  0.4177
  862BOLB   NC120665  23.986  12.551  19.554 -0.2478  0.1152  0.1811
  862BOLB   PO120666  24.454  12.379  19.835  0.1006 -0.2999  0.0033
  862BOLB   GL120667  24.853  12.167  20.055  0.1473 -0.3708  0.0118
  862BOLB   GL220668  25.230  12.244  19.947 -0.0262  0.0148 -0.0533
  862BOLB   C1A20669  24.887  11.837  20.455 -0.0724 -0.2089 -0.0417
  862BOLB   C2A20670  25.288  11.740  20.703  0.0035  0.2142 -0.0552
  862BOLB   C3A20671  25.208  11.393  20.835  0.2400  0.2256 -0.2694
  862BOLB   C4A20672  25.302  10.987  20.722  0.1648 -0.1133 -0.1190
  862BOLB   C1B20673  25.242  11.846  20.011 -0.0794 -0.1622  0.1846
  862BOLB   C2B20674  25.340  11.527  20.160 -0.0424  0.0418  0.2219
  862BOLB   C3B20675  25.596  11.356  20.498 -0.1594  0.0121 -0.2456
  862BOLB   C4B20676  25.664  11.668  20.997  0.0706  0.3067  0.2398
  862BOLB   NC220677  26.924   9.588  21.256 -0.3000  0.0267  0.5181
  862BOLB   PO220678  26.996   9.269  20.975  0.0425 -0.0324 -0.0523
  862BOLB   GL320679  26.685   9.413  20.737  0.1140  0.0331  0.1260
  862BOLB   GL420680  26.383   9.347  20.713 -0.2432  0.1249  0.0599
  862BOLB   C1C20681  26.521   9.833  20.793  0.1098 -0.2342 -0.0025
  862BOLB   C2C20682  26.174  10.068  20.755 -0.0380  0.0030 -0.0814
  862BOLB   C3C20683  25.818  10.354  20.842 -0.2690 -0.0442  0.1579
  862BOLB   C4C20684  25.341  10.524  20.825 -0.1320  0.1783  0.2938
  862BOLB   C1D20685  26.006   9.640  20.849  0.1497  0.0035  0.0845
  862BOLB   C2D20686  25.903   9.942  21.133  0.4033 -0.1767 -0.2374
  862BOLB   C3D20687  25.460  10.194  21.261 -0.1294  0.1269 -0.1107
  862BOLB   C4D20688  25.130  10.121  21.049 -0.1255 -0.0178 -0.1647
  863BOLB   NC120689  24.820  22.947  19.604 -0.0911  0.1049 -0.1970
  863BOLB   PO120690  25.022  22.790  19.868  0.2355  0.0408  0.5617
  863BOLB   GL120691  24.930  22.337  19.789 -0.0442  0.0247  0.1446
  863BOLB   GL220692  25.198  22.245  19.895  0.0885  0.1520 -0.0395
  863BOLB   C1A20693  24.605  22.100  19.540  0.0654 -0.0605 -0.3175
  863BOLB   C2A20694  24.544  21.624  19.490 -0.0357  0.3143 -0.1288
  863BOLB   C3A20695  24.671  21.163  19.262 -0.1934  0.4047 -0.2658
  863BOLB   C4A20696  24.885  20.853  19.029  0.2279 -0.0140  0.1310
  863BOLB   C1B20697  25.310  21.883  19.863  0.1539 -0.1028 -0.4051
  863BOLB   C2B20698  25.033  21.649  19.836 -0.1669  0.0247 -0.2585
  863BOLB   C3B20699  24.649  21.792  19.993 -0.0352 -0.0862  0.1520
  863BOLB   C4B20700  24.352  22.154  19.961  0.2758 -0.1894  0.1472
  863BOLB   NC220701  27.258  21.791  19.347  0.0467 -0.1162 -0.0937
  863BOLB   PO220702  27.132  21.440  19.151 -0.0357 -0.0357 -0.1149
  863BOLB   GL320703  26.790  21.194  19.009  0.2643  0.1195  0.2976
  863BOLB   GL420704  26.806  20.952  19.164  0.0374 -0.4575 -0.1509
  863BOLB   C1C20705  26.342  21.196  18.927 -0.0004  0.0445 -0.1764
  863BOLB   C2C20706  26.024  21.027  18.804 -0.0822  0.0964 -0.1733
  863BOLB   C3C20707  25.689  20.690  18.838 -0.0958  0.2488 -0.1609
  863BOLB   C4C20708  25.245  20.638  18.928  0.1979 -0.1209 -0.2155
  863BOLB   C1D20709  26.811  20.481  19.189 -0.0662 -0.1502  0.0322
  863BOLB   C2D20710  26.826  20.134  19.525  0.2898  0.0572  0.1289
  863BOLB   C3D20711  26.401  19.946  19.685  0.0911 -0.3339 -0.0498
  863BOLB   C4D20712  26.162  19.710  19.506  0.2992  0.2924 -0.2209
  864BOLB   NC120713  26.168  14.578  21.756 -0.2744 -0.1888  0.1875
  864BOLB   PO120714  25.733  14.593  21.971  0.0513 -0.1044  0.0546
  864BOLB   GL120715  25.656  14.458  22.352 -0.1300  0.0782  0.2454
  864BOLB   GL220716  25.849  14.590  22.528 -0.0157  0.0788  0.1780
  864BOLB   C1A20717  25.329  14.265  22.489 -0.0947 -0.0797 -0.1114
  864BOLB   C2A20718  25.271  13.938  22.818  0.0668 -0.0593  0.1666
  864BOLB   C3A20719  25.272  13.561  23.063 -0.2213  0.3649  0.2462
  864BOLB   C4A20720  25.414  13.177  23.391  0.1718  0.1215 -0.0253
  864BOLB   C1B20721  26.138  14.406  22.792  0.2427 -0.1530 -0.0791
  864BOLB   C2B20722  26.335  14.338  23.189  0.0115 -0.0368  0.0288
  864BOLB   C3B20723  26.640  14.356  23.587  0.0697  0.0608 -0.0849
  864BOLB   C4B20724  26.729  14.281  23.968 -0.1127  0.0587  0.0377
  864BOLB   NC220725  26.412  11.349  24.678  0.2112 -0.2873 -0.2601
  864BOLB   PO220726  26.329  11.253  24.343  0.1626 -0.1478 -0.0941
  864BOLB   GL320727  26.392  11.593  24.059  0.1580 -0.1065  0.0571
  864BOLB   GL420728  26.500  11.649  23.724  0.0261 -0.3046  0.2305
  864BOLB   C1C20729  26.077  11.913  24.002  0.1269  0.1089 -0.1821
  864BOLB   C2C20730  25.710  12.140  23.873  0.0495 -0.0088 -0.0500
  864BOLB   C3C20731  25.453  12.576  23.728 -0.2077 -0.0705 -0.0837
  864BOLB   C4C20732  25.274  13.018  23.628  0.0129 -0.0057 -0.0709
  864BOLB   C1D20733  26.101  11.845  23.518  0.0130  0.1753  0.4620
  864BOLB   C2D20734  25.717  12.031  23.409 -0.1669 -0.0145  0.4201
  864BOLB   C3D20735  25.526  12.297  23.161  0.0377 -0.0279 -0.0035
  864BOLB   C4D20736  25.264  12.618  23.253 -0.1002 -0.3854  0.2062
  865BOLB   NC120737  27.339  17.313  22.146  0.0977 -0.0705 -0.0359
  865BOLB   PO120738  27.051  17.277  22.465  0.1827 -0.1666  0.2341
  865BOLB   GL120739  26.715  17.148  22.719 -0.1958  0.0997 -0.1700
  865BOLB   GL220740  26.590  16.760  22.706  0.0028  0.1038  0.1747
  865BOLB   C1A20741  26.373  17.421  22.938  0.0146 -0.4532 -0.1266
  865BOLB   C2A20742  26.074  17.580  23.204  0.1105 -0.1900 -0.0094
  865BOLB   C3A20743  25.713  17.556  23.420  0.0723  0.0275  0.1816
  865BOLB   C4A20744  25.520  17.332  23.745  0.0222 -0.1771  0.3782
  865BOLB   C1B20745  26.296  16.944  22.907 -0.0255 -0.0844 -0.1908
  865BOLB   C2B20746  25.937  17.021  23.198 -0.1504  0.3690  0.0290
  865BOLB   C3B20747  25.535  17.192  23.154 -0.2979  0.0958  0.0519
  865BOLB   C4B20748  25.200  17.558  23.273 -0.2100 -0.3626 -0.0203
  865BOLB   NC220749  26.688  17.467  25.970  0.2300  0.1424 -0.0222
  865BOLB   PO220750  26.654  17.252  25.511 -0.1403 -0.3238 -0.1989
  865BOLB   GL320751  26.507  17.478  25.230  0.0854  0.1435  0.0608
  865BOLB   GL420752  26.674  17.412  24.936  0.3223  0.1545  0.0096
  865BOLB   C1C20753  26.126  17.336  25.021  0.0264  0.0242 -0.1280
  865BOLB   C2C20754  25.945  17.070  24.820 -0.1326 -0.2475 -0.0626
  865BOLB   C3C20755  25.569  17.157  24.541 -0.1370  0.1010  0.0809
  865BOLB   C4C20756  25.617  17.166  24.110  0.0013  0.2456 -0.2820
  865BOLB   C1D20757  26.508  17.201  24.562  0.4404  0.2036  0.0510
  865BOLB   C2D20758  26.209  16.853  24.458 -0.1539 -0.3663 -0.1220
  865BOLB   C3D20759  26.153  16.481  24.740  0.1764 -0.4018 -0.1039
  865BOLB   C4D20760  26.438  16.211  24.910 -0.2833 -0.0717 -0.1564
  866BOLB   NC120761  25.505  16.149  22.239  0.0037 -0.1809  0.4991
  866BOLB   PO120762  25.437  15.717  22.225 -0.1163 -0.2700 -0.0248
  866BOLB   GL120763  25.419  15.865  22.666 -0.1908 -0.2277 -0.1351
  866BOLB   GL220764  25.182  16.084  22.674 -0.4112 -0.0999  0.0799
  866BOLB   C1A20765  25.316  15.733  23.024  0.1889  0.0467  0.1863
  866BOLB   C2A20766  25.317  15.990  23.361  0.0136 -0.3139  0.2920
  866BOLB   C3A20767  25.322  15.982  23.741 -0.2771  0.1834  0.0287
  866BOLB   C4A20768  25.213  16.279  24.116  0.3702  0.2509  0.0887
  866BOLB   C1B20769  25.191  16.431  22.929 -0.3506  0.1088 -0.1535
  866BOLB   C2B20770  25.156  16.483  23.336  0.1159  0.3342  0.0713
  866BOLB   C3B20771  24.957  16.377  23.683  0.0216 -0.0056  0.0550
  866BOLB   C4B20772  24.738  16.065  23.863 -0.0383 -0.2010 -0.3121
  866BOLB   NC220773  26.487  16.895  25.781  0.0430  0.0077 -0.1998
  866BOLB   PO220774  26.828  16.572  25.702  0.1358 -0.1076  0.1112
  866BOLB   GL320775  26.456  16.443  25.653  0.1534  0.1699  0.1010
  866BOLB   GL420776  26.452  16.162  25.443  0.2428  0.1023  0.2846
  866BOLB   C1C20777  26.037  16.416  25.338 -0.2657 -0.1354 -0.0718
  866BOLB   C2C20778  25.732  16.643  25.089 -0.1845  0.3427 -0.0222
  866BOLB   C3C20779  25.600  16.631  24.778  0.0591  0.3191 -0.1939
  866BOLB   C4C20780  25.423  16.320  24.491  0.1306  0.0429 -0.1296
  866BOLB   C1D20781  26.157  15.787  25.571 -0.0310  0.1463 -0.3107
  866BOLB   C2D20782  25.958  15.460  25.572 -0.0728 -0.1937 -0.1838
  866BOLB   C3D20783  25.889  15.140  25.387  0.0355 -0.0415 -0.1397
  866BOLB   C4D20784  26.059  14.656  25.204 -0.1204  0.1317 -0.3682
  867BOLB   NC120785  26.051  21.845  19.236  0.2273 -0.2697  0.2829
  867BOLB   PO120786  26.237  21.820  19.651  0.1156  0.5538  0.0781
  867BOLB   GL120787  25.797  21.658  19.688 -0.0092 -0.0216 -0.0020
  867BOLB   GL220788  25.536  21.766  19.425  0.2437 -0.1588  0.1325
  867BOLB   C1A20789  25.543  21.490  20.091 -0.0745  0.1652  0.1257
  867BOLB   C2A20790  25.242  21.538  20.295  0.0291 -0.2273  0.2798
  867BOLB   C3A20791  25.201  21.245  20.650  0.0055  0.1740 -0.1390
  867BOLB   C4A20792  25.105  20.974  21.054  0.1811  0.2099 -0.2571
  867BOLB   C1B20793  25.454  21.329  19.626  0.1829 -0.0028 -0.2368
  867BOLB   C2B20794  25.202  21.145  19.905 -0.2777 -0.1472  0.0159
  867BOLB   C3B20795  25.153  20.894  20.151  0.0545  0.1639  0.1768
  867BOLB   C4B20796  24.915  20.427  20.223 -0.1200  0.1932 -0.2982
  867BOLB   NC220797  26.155  21.972  23.139  0.4591  0.0008 -0.4980
  867BOLB   PO220798  26.408  21.760  22.838 -0.3968  0.0556  0.1096
  867BOLB   GL320799  26.168  21.404  22.781 -0.0233 -0.2393  0.2485
  867BOLB   GL420800  25.850  21.433  22.996 -0.0895  0.4180 -0.2549
  867BOLB   C1C20801  25.760  21.244  22.491  0.0290 -0.0167  0.3570
  867BOLB   C2C20802  25.502  21.263  22.165  0.1014  0.0352 -0.2203
  867BOLB   C3C20803  25.500  21.199  21.735  0.1127  0.0374 -0.0322
  867BOLB   C4C20804  25.249  21.040  21.394  0.1469 -0.1599  0.2924
  867BOLB   C1D20805  25.617  21.824  22.788  0.5543  0.2109  0.0613
  867BOLB   C2D20806  25.166  21.899  22.585 -0.2675 -0.3872 -0.1593
  867BOLB   C3D20807  24.684  21.727  22.411  0.0534 -0.1490  0.1598
  867BOLB   C4D20808  24.342  21.577  22.538 -0.1096 -0.0242  0.3562
  868BOLB   NC120809  22.432  11.722  18.649 -0.1793 -0.0011 -0.3392
  868BOLB   PO120810  22.659  11.405  18.915  0.0084  0.0678  0.3992
  868BOLB   GL120811  22.976  11.079  19.011  0.0901 -0.1086  0.0138
  868BOLB   GL220812  22.831  10.810  19.225 -0.1925  0.1525  0.1957
  868BOLB   C1A20813  23.343  10.794  19.018 -0.0830 -0.1093 -0.4326
  868BOLB   C2A20814  23.368  10.353  19.076  0.1302 -0.1248  0.2530
  868BOLB   C3A20815  23.427  10.046  19.150  0.1737 -0.0657 -0.0437
  868BOLB   C4A20816  23.555   9.613  18.901 -0.0188 -0.0254  0.0181
  868BOLB   C1B20817  22.887  10.467  18.902 -0.3296  0.1439  0.2343
  868BOLB   C2B20818  23.041  10.025  18.819 -0.0540  0.1414 -0.1907
  868BOLB   C3B20819  23.101   9.685  18.550 -0.0263  0.2525 -0.0827
  868BOLB   C4B20820  23.354   9.463  18.380  0.1153 -0.0432 -0.0780
  868BOLB   NC220821  24.372   7.054  19.062  0.0261 -0.0362  0.2793
  868BOLB   PO220822  24.370   7.277  18.771 -0.3175 -0.1859  0.0679
  868BOLB   GL320823  24.246   7.692  18.713  0.2419  0.0050 -0.1157
  868BOLB   GL420824  24.292   7.861  18.407  0.1561 -0.0783 -0.0834
  868BOLB   C1C20825  24.043   8.005  18.925 -0.2479  0.0781  0.2041
  868BOLB   C2C20826  23.636   8.243  18.883  0.0345  0.2325 -0.4302
  868BOLB   C3C20827  23.459   8.645  18.952 -0.1892 -0.2786  0.1196
  868BOLB   C4C20828  23.469   9.123  19.018 -0.0376  0.1940  0.0706
  868BOLB   C1D20829  23.912   8.071  18.421  0.0811 -0.1299  0.1812
  868BOLB   C2D20830  23.495   8.170  18.392 -0.1160 -0.1041  0.2269
  868BOLB   C3D20831  23.069   8.143  18.253  0.0132  0.1528  0.0490
  868BOLB   C4D20832  22.874   7.749  18.012 -0.1225  0.0599 -0.1211
  869BOLB   NC120833  23.577  20.453  21.803  0.1286 -0.3466  0.0427
  869BOLB   PO120834  23.401  20.294  22.100  0.1242 -0.1882 -0.1121
  869BOLB   GL120835  23.824  20.246  22.160 -0.2308 -0.0234  0.0376
  869BOLB   GL220836  24.011  20.388  22.072 -0.0895  0.0128 -0.1046
  869BOLB   C1A20837  24.065  19.947  22.349  0.0309  0.2370  0.2000
  869BOLB   C2A20838  24.172  19.712  22.694  0.4705 -0.0407  0.0111
  869BOLB   C3A20839  24.257  19.573  23.144 -0.1267  0.3033 -0.2290
  869BOLB   C4A20840  24.201  19.642  23.635  0.1207  0.2405  0.0040
  869BOLB   C1B20841  24.400  20.308  21.993  0.3299  0.1021  0.1780
  869BOLB   C2B20842  24.799  20.300  22.012  0.1089  0.1164 -0.3541
  869BOLB   C3B20843  24.960  20.581  21.770 -0.0669  0.3058  0.0136
  869BOLB   C4B20844  24.795  20.794  21.454 -0.0180 -0.0481 -0.2093
  869BOLB   NC220845  25.415  20.115  25.882 -0.1468  0.2513  0.2468
  869BOLB   PO220846  25.465  19.694  25.646  0.2121  0.0944 -0.3124
  869BOLB   GL320847  25.153  19.586  25.338  0.1864  0.1726 -0.2108
  869BOLB   GL420848  25.061  19.922  25.227 -0.0316  0.0103 -0.0882
  869BOLB   C1C20849  24.982  19.248  25.010 -0.0945 -0.3543  0.0092
  869BOLB   C2C20850  24.726  19.179  24.694 -0.0359  0.0138  0.1076
  869BOLB   C3C20851  24.678  19.339  24.303  0.1397  0.0713 -0.0805
  869BOLB   C4C20852  24.358  19.611  24.073  0.0403 -0.0752  0.0114
  869BOLB   C1D20853  24.744  19.669  24.881  0.0361 -0.0536 -0.0602
  869BOLB   C2D20854  24.459  19.724  24.567  0.2358 -0.2088  0.4013
  869BOLB   C3D20855  24.032  19.549  24.496  0.3184 -0.3342  0.2126
  869BOLB   C4D20856  23.631  19.460  24.769  0.1877 -0.2503 -0.0507
  870BOLB   NC120857  24.790  13.775  21.149  0.3976  0.2041  0.0923
  870BOLB   PO120858  24.884  13.402  21.026 -0.0695  0.0214  0.2240
  870BOLB   GL120859  25.078  13.102  21.287 -0.1019 -0.1485  0.0522
  870BOLB   GL220860  25.124  13.247  21.539 -0.0530 -0.1419  0.0999
  870BOLB   C1A20861  25.183  12.615  21.402  0.0320 -0.0702  0.2045
  870BOLB   C2A20862  25.163  12.306  21.580  0.0075 -0.0320 -0.2841
  870BOLB   C3A20863  25.323  12.014  21.732 -0.0595  0.0881  0.1865
  870BOLB   C4A20864  25.401  11.734  22.148  0.0395 -0.2198 -0.0180
  870BOLB   C1B20865  24.909  13.314  21.964  0.4049 -0.0885  0.0169
  870BOLB   C2B20866  24.665  13.234  22.370 -0.0400  0.0021 -0.0320
  870BOLB   C3B20867  24.370  13.123  22.642 -0.1345 -0.1871  0.0805
  870BOLB   C4B20868  24.080  13.025  22.781 -0.2824  0.0453 -0.0018
  870BOLB   NC220869  26.628   9.467  23.696 -0.1679 -0.0424 -0.1009
  870BOLB   PO220870  26.484   9.643  23.382 -0.0739 -0.3253 -0.2515
  870BOLB   GL320871  26.251   9.983  23.015  0.1888 -0.2466 -0.0777
  870BOLB   GL420872  26.067   9.968  22.673  0.3488 -0.1703  0.0094
  870BOLB   C1C20873  26.063  10.475  23.012  0.2220  0.1960  0.1236
  870BOLB   C2C20874  25.816  10.761  22.841  0.2199 -0.0466 -0.0044
  870BOLB   C3C20875  25.662  11.113  22.662 -0.0049 -0.0981 -0.2158
  870BOLB   C4C20876  25.562  11.403  22.404  0.2675  0.0050  0.1310
  870BOLB   C1D20877  25.807  10.112  22.405 -0.2918  0.2097  0.2898
  870BOLB   C2D20878  25.459  10.277  22.132  0.1108  0.2345  0.0912
  870BOLB   C3D20879  25.158  10.374  21.728  0.1553 -0.2485  0.2424
  870BOLB   C4D20880  24.904  10.458  21.368 -0.0653  0.0538  0.0414
  871BOLB   NC120881  25.925  22.085  20.594 -0.0666  0.2203 -0.0148
  871BOLB   PO120882  25.673  22.424  20.804 -0.1173  0.3051 -0.0901
  871BOLB   GL120883  25.181  22.658  20.887 -0.1518 -0.2484 -0.1205
  871BOLB   GL220884  25.005  22.814  20.805  0.1249  0.0970 -0.0869
  871BOLB   C1A20885  24.899  22.312  20.884 -0.1150  0.0579  0.1847
  871BOLB   C2A20886  24.866  21.944  21.282  0.0369  0.1168 -0.4597
  871BOLB   C3A20887  24.937  21.820  21.683 -0.1812 -0.2915  0.0388
  871BOLB   C4A20888  25.109  21.854  22.102  0.0905 -0.2579  0.4766
  871BOLB   C1B20889  24.699  22.896  21.084  0.3229  0.0957 -0.3583
  871BOLB   C2B20890  24.457  22.530  21.057  0.2407 -0.3390  0.1921
  871BOLB   C3B20891  24.382  22.043  21.159 -0.5877  0.0342  0.1944
  871BOLB   C4B20892  24.393  21.662  21.471  0.2094 -0.0971 -0.1767
  871BOLB   NC220893  26.323  22.398  24.018 -0.1864  0.1129  0.0139
  871BOLB   PO220894  26.175  22.031  23.674 -0.2436 -0.2950 -0.0808
  871BOLB   GL320895  25.746  21.847  23.555  0.3945  0.1308 -0.1847
  871BOLB   GL420896  25.676  21.466  23.680  0.1836  0.0716 -0.0016
  871BOLB   C1C20897  25.372  21.769  23.296 -0.0469 -0.0858 -0.0617
  871BOLB   C2C20898  25.349  21.470  23.046  0.2167  0.0294  0.5154
  871BOLB   C3C20899  25.266  21.389  22.630 -0.0554 -0.0546 -0.1716
  871BOLB   C4C20900  25.138  21.544  22.264  0.0718  0.0799 -0.1197
  871BOLB   C1D20901  25.198  21.353  23.526  0.1097 -0.1640  0.1840
  871BOLB   C2D20902  24.832  21.345  23.272 -0.2298 -0.0542 -0.1042
  871BOLB   C3D20903  24.841  21.331  22.835 -0.3029  0.1626 -0.1997
  871BOLB   C4D20904  24.803  21.261  22.478 -0.0675 -0.2959  0.0351
  872BOLB   NC120905  22.512  22.371  21.400  0.2700  0.0123 -0.0837
  872BOLB   PO120906  22.737  22.124  21.573 -0.0217  0.3123  0.0826
  872BOLB   GL120907  22.875  21.902  21.799  0.0986  0.1002  0.0889
  872BOLB   GL220908  22.905  21.615  21.801 -0.0864 -0.2207 -0.1560
  872BOLB   C1A20909  23.019  22.024  22.152  0.2774 -0.2242 -0.1703
  872BOLB   C2A20910  23.122  22.070  22.458 -0.1224  0.1174  0.1694
  872BOLB   C3A20911  23.385  22.054  22.738  0.2695  0.2640  0.0484
  872BOLB   C4A20912  23.604  21.992  23.211 -0.1771  0.0178 -0.1430
  872BOLB   C1B20913  22.964  21.539  22.222 -0.0495  0.2504  0.1768
  872BOLB   C2B20914  23.189  21.562  22.560 -0.1813 -0.3277 -0.1613
  872BOLB   C3B20915  23.496  21.552  22.867  0.0315  0.1902 -0.0057
  872BOLB   C4B20916  23.510  21.435  23.273  0.0595  0.1412 -0.1843
  872BOLB   NC220917  24.105  22.973  25.942 -0.2575  0.0135  0.0352
  872BOLB   PO220918  23.747  22.962  25.561  0.2039  0.0201  0.1456
  872BOLB   GL320919  23.682  22.742  25.230  0.0191 -0.2438  0.1229
  872BOLB   GL420920  23.522  22.433  25.256 -0.0587 -0.2435  0.0008
  872BOLB   C1C20921  23.546  22.775  24.803  0.0383  0.3115 -0.1555
  872BOLB   C2C20922  23.347  22.489  24.488  0.0546  0.6162  0.0242
  872BOLB   C3C20923  23.288  22.369  24.110  0.0044  0.1468  0.2522
  872BOLB   C4C20924  23.505  22.217  23.687  0.4401 -0.2806  0.0728
  872BOLB   C1D20925  23.624  22.195  24.855  0.1144 -0.1708 -0.0762
  872BOLB   C2D20926  23.794  21.991  24.461  0.1153  0.1490 -0.0342
  872BOLB   C3D20927  23.800  22.037  24.022  0.4168  0.1767 -0.1212
  872BOLB   C4D20928  23.683  21.796  23.668 -0.0783  0.3093  0.3127
  873BOLB   NC120929  24.764  17.273  22.087  0.1017  0.1874  0.2646
  873BOLB   PO120930  24.734  16.787  22.103 -0.3740  0.2037 -0.2524
  873BOLB   GL120931  24.938  16.989  22.518 -0.0208 -0.0148 -0.0293
  873BOLB   GL220932  24.841  16.819  22.739 -0.2454 -0.2181 -0.1017
  873BOLB   C1A20933  24.821  17.265  22.932 -0.2554 -0.0594 -0.0283
  873BOLB   C2A20934  24.768  17.606  23.100 -0.0513 -0.0487  0.0082
  873BOLB   C3A20935  24.733  17.707  23.496 -0.0101 -0.2427 -0.4854
  873BOLB   C4A20936  24.701  17.734  23.924 -0.1711 -0.0589 -0.1307
  873BOLB   C1B20937  25.174  16.874  23.111 -0.0994 -0.3896 -0.2371
  873BOLB   C2B20938  25.181  16.910  23.605  0.3422 -0.1545 -0.1904
  873BOLB   C3B20939  24.881  16.872  23.907 -0.1471 -0.1222 -0.2706
  873BOLB   C4B20940  24.812  16.565  24.177  0.1720 -0.1242 -0.0488
  873BOLB   NC220941  25.757  19.334  25.797 -0.2439  0.0430 -0.0806
  873BOLB   PO220942  25.758  18.985  25.459  0.1059  0.0453  0.0098
  873BOLB   GL320943  25.540  18.574  25.392 -0.2808 -0.1449  0.0894
  873BOLB   GL420944  25.749  18.293  25.523 -0.3177 -0.3849  0.1362
  873BOLB   C1C20945  25.167  18.559  25.185  0.0930 -0.2082  0.1060
  873BOLB   C2C20946  24.857  18.290  24.934  0.1988 -0.0733 -0.0101
  873BOLB   C3C20947  24.595  18.131  24.645  0.1208  0.1523 -0.1967
  873BOLB   C4C20948  24.623  17.961  24.304 -0.4413 -0.0657 -0.3154
  873BOLB   C1D20949  25.357  18.177  25.564 -0.3603 -0.0308 -0.0553
  873BOLB   C2D20950  25.028  18.224  25.504  0.0881 -0.2950  0.0304
  873BOLB   C3D20951  24.598  18.421  25.374 -0.2619 -0.0076  0.1328
  873BOLB   C4D20952  24.256  18.675  25.173 -0.1001 -0.2393 -0.1775
  874BOLB   NC120953  23.523  19.985  21.313 -0.0543 -0.2537 -0.3515
  874BOLB   PO120954  23.691  20.439  21.131  0.0804  0.0773  0.1621
  874BOLB   GL120955  23.917  20.301  21.447  0.0543  0.0434  0.0778
  874BOLB   GL220956  24.229  20.475  21.574  0.0085  0.0211 -0.0063
  874BOLB   C1A20957  24.163  19.962  21.742  0.0424  0.0131 -0.1123
  874BOLB   C2A20958  24.415  19.787  21.837 -0.2214  0.0173  0.1638
  874BOLB   C3A20959  24.781  19.748  21.659 -0.1776 -0.0063  0.1074
  874BOLB   C4A20960  25.014  19.548  21.350 -0.0065  0.2991 -0.0446
  874BOLB   C1B20961  24.297  20.805  21.210  0.1604 -0.1278  0.0104
  874BOLB   C2B20962  24.607  21.059  21.051 -0.0749  0.1147  0.1535
  874BOLB   C3B20963  24.530  21.457  21.023 -0.0321 -0.1324  0.0329
  874BOLB   C4B20964  24.494  21.851  20.713 -0.1822 -0.1362  0.1020
  874BOLB   NC220965  27.615  20.631  21.276 -0.1525  0.3359  0.1312
  874BOLB   PO220966  27.288  20.405  21.018 -0.0811 -0.0706  0.0990
  874BOLB   GL320967  26.965  19.954  20.858 -0.0068  0.1091  0.0318
  874BOLB   GL420968  27.025  19.576  20.834  0.2997 -0.2146  0.2283
  874BOLB   C1C20969  26.579  19.689  20.681  0.3603 -0.0897 -0.2128
  874BOLB   C2C20970  26.174  19.618  20.902 -0.1654  0.0191  0.0125
  874BOLB   C3C20971  25.872  19.432  21.086  0.0780  0.1885 -0.3681
  874BOLB   C4C20972  25.381  19.402  21.113  0.3555  0.2242 -0.2516
  874BOLB   C1D20973  26.668  19.260  20.797 -0.3866  0.1904 -0.1948
  874BOLB   C2D20974  26.345  18.841  20.769  0.2254  0.2796  0.1280
  874BOLB   C3D20975  26.015  18.759  21.032 -0.4475 -0.0174  0.3148
  874BOLB   C4D20976  25.880  18.446  21.234  0.1632 -0.0405 -0.1895
  875BOLB   NC120977  23.651  14.333  22.815 -0.1725  0.0198  0.0436
  875BOLB   PO120978  23.998  14.205  22.570 -0.2382 -0.3572  0.0697
  875BOLB   GL120979  24.073  14.029  22.996 -0.2628 -0.3627  0.0989
  875BOLB   GL220980  24.119  13.658  23.028  0.0988  0.0127  0.0988
  875BOLB   C1A20981  24.244  14.225  23.392  0.1624  0.1556  0.0172
  875BOLB   C2A20982  24.336  14.194  23.782  0.3019  0.2348 -0.1890
  875BOLB   C3A20983  24.228  13.865  24.067  0.2043 -0.0522 -0.0992
  875BOLB   C4A20984  24.081  13.768  24.507  0.0308 -0.0555  0.3498
  875BOLB   C1B20985  24.447  13.319  23.108 -0.1142 -0.2372  0.3160
  875BOLB   C2B20986  24.284  12.899  23.255 -0.1593 -0.3015 -0.0224
  875BOLB   C3B20987  24.281  12.421  23.176 -0.0069  0.3002  0.0219
  875BOLB   C4B20988  24.372  11.988  23.138 -0.3375 -0.4688  0.2361
  875BOLB   NC220989  24.239  12.361  26.834 -0.1045 -0.2540 -0.0668
  875BOLB   PO220990  24.507  12.736  26.694 -0.1586 -0.0953 -0.0830
  875BOLB   GL320991  24.360  13.039  26.333 -0.2037  0.1454 -0.1824
  875BOLB   GL420992  24.110  13.317  26.262  0.0459 -0.0624 -0.2062
  875BOLB   C1C20993  24.181  13.038  25.826 -0.3972 -0.1080  0.2553
  875BOLB   C2C20994  24.168  13.010  25.385 -0.1041 -0.1319 -0.1038
  875BOLB   C3C20995  24.408  13.095  25.084  0.0363 -0.0890  0.1008
  875BOLB   C4C20996  24.418  13.452  24.689  0.0492 -0.1536  0.0045
  875BOLB   C1D20997  23.900  13.457  25.975 -0.1627  0.1944  0.2078
  875BOLB   C2D20998  23.903  13.439  25.507  0.0278  0.0974 -0.1324
  875BOLB   C3D20999  23.941  13.341  24.996  0.0117  0.1598 -0.0011
  875BOLB   C4D21000  23.694  13.236  24.643  0.0453 -0.0966  0.3192
  876BOLB   NC121001  27.622  10.949  18.935 -0.0920 -0.0921  0.0830
  876BOLB   PO121002  27.685  11.469  19.070  0.1598 -0.0622  0.0079
  876BOLB   GL121003  27.263  11.353  18.898  0.0089  0.0322  0.3037
  876BOLB   GL221004  27.134  11.723  18.903 -0.0511 -0.2781 -0.1595
  876BOLB   C1A21005  26.854  11.131  18.890 -0.1240 -0.1182  0.0434
  876BOLB   C2A21006  26.517  11.067  18.593 -0.1199 -0.0177 -0.0868
  876BOLB   C3A21007  26.129  11.008  18.684 -0.0142  0.0513  0.2135
  876BOLB   C4A21008  25.943  10.695  18.809 -0.3607  0.1297  0.0807
  876BOLB   C1B21009  27.011  11.515  19.280 -0.0942 -0.1048  0.0104
  876BOLB   C2B21010  26.881  11.292  19.538 -0.3246 -0.1117  0.0996
  876BOLB   C3B21011  27.033  11.151  19.956  0.0267 -0.1192 -0.1624
  876BOLB   C4B21012  27.245  10.875  20.339  0.0230  0.3040 -0.0508
  876BOLB   NC221013  26.397   8.640  20.180 -0.0257 -0.2123  0.0970
  876BOLB   PO221014  26.318   8.847  20.580 -0.0761  0.0662 -0.0646
  876BOLB   GL321015  26.110   9.089  20.280  0.0547  0.0426  0.0499
  876BOLB   GL421016  25.995   8.889  20.108  0.0909 -0.2244 -0.0890
  876BOLB   C1C21017  26.118   9.332  19.925  0.2098 -0.2594 -0.1001
  876BOLB   C2C21018  25.865   9.486  19.527 -0.0640  0.1396  0.3889
  876BOLB   C3C21019  26.065   9.830  19.206 -0.2880  0.2481 -0.1895
  876BOLB   C4C21020  26.073  10.272  19.020  0.0476 -0.0944 -0.3606
  876BOLB   C1D21021  25.652   8.908  19.973  0.1197  0.2283 -0.0421
  876BOLB   C2D21022  25.301   9.185  20.045  0.0239 -0.1432  0.2093
  876BOLB   C3D21023  24.935   9.206  20.252 -0.1532 -0.1469  0.0669
  876BOLB   C4D21024  24.552   9.353  20.265  0.2670 -0.5176 -0.1118
  877BOLB   NC121025  27.831  14.124  23.373  0.0147  0.1866  0.0642
  877BOLB   PO121026  27.569  13.829  23.095  0.0407 -0.2261 -0.0795
  877BOLB   GL121027  27.213  13.921  22.964 -0.2068  0.0418  0.0025
  877BOLB   GL221028  27.113  14.227  23.032  0.0783  0.2010  0.0839
  877BOLB   C1A21029  26.869  13.707  22.848 -0.3737 -0.0509 -0.0031
  877BOLB   C2A21030  26.579  13.437  23.025  0.1447  0.0674 -0.1349
  877BOLB   C3A21031  26.150  13.242  23.204 -0.3531  0.0376  0.0176
  877BOLB   C4A21032  25.970  13.047  23.533 -0.1172 -0.1188  0.0203
  877BOLB   C1B21033  26.926  14.532  23.136 -0.0071 -0.0467  0.3399
  877BOLB   C2B21034  26.554  14.756  23.248 -0.0885  0.1342 -0.0708
  877BOLB   C3B21035  26.171  14.752  23.502  0.1149  0.1797 -0.3947
  877BOLB   C4B21036  25.855  14.497  23.569  0.2488 -0.1966  0.0439
  877BOLB   NC221037  27.035  12.683  25.089  0.0582  0.0313  0.0103
  877BOLB   PO221038  26.658  12.393  25.184  0.0508  0.2675 -0.1376
  877BOLB   GL321039  26.439  12.633  25.042  0.0091  0.3489  0.3459
  877BOLB   GL421040  26.585  12.881  25.010  0.1732 -0.1763  0.2215
  877BOLB   C1C21041  26.102  12.623  24.790  0.2980 -0.1341 -0.0244
  877BOLB   C2C21042  25.731  12.692  24.544  0.1031 -0.1167  0.1970
  877BOLB   C3C21043  25.582  12.903  24.095  0.0747  0.0928 -0.0925
  877BOLB   C4C21044  25.712  13.011  23.807  0.0030 -0.3552 -0.5124
  877BOLB   C1D21045  26.452  13.072  24.611 -0.2036  0.1627  0.0521
  877BOLB   C2D21046  26.726  12.969  24.327 -0.1298  0.0023  0.0555
  877BOLB   C3D21047  26.888  12.859  23.842 -0.1026  0.1741  0.3032
  877BOLB   C4D21048  26.888  12.596  23.468 -0.1337 -0.1094  0.2235
  878BOLB   NC121049  24.146  11.626  19.293 -0.0218 -0.0718 -0.2859
  878BOLB   PO121050  24.222  12.044  19.510  0.0475  0.0893 -0.0666
  878BOLB   GL121051  24.528  11.820  19.740 -0.0811  0.1765 -0.1477
  878BOLB   GL221052  24.491  11.780  20.085  0.0345  0.1724  0.0606
  878BOLB   C1A21053  24.630  11.369  19.693  0.1997  0.2369  0.0082
  878BOLB   C2A21054  24.695  10.973  19.905  0.0296 -0.3372 -0.0878
  878BOLB   C3A21055  24.627  10.617  20.131 -0.2426 -0.2225 -0.1791
  878BOLB   C4A21056  24.520  10.224  20.212 -0.0023  0.2867 -0.2593
  878BOLB   C1B21057  24.825  11.451  20.152 -0.1798  0.0739 -0.1176
  878BOLB   C2B21058  25.060  11.040  20.247 -0.1496 -0.0385  0.1850
  878BOLB   C3B21059  24.965  10.676  20.487 -0.1683 -0.3137 -0.1384
  878BOLB   C4B21060  24.667  10.387  20.673  0.3803  0.1332  0.0532
  878BOLB   NC221061  25.748   8.202  21.095  0.1754 -0.0073  0.0967
  878BOLB   PO221062  25.328   8.303  21.374  0.3166 -0.0444 -0.2714
  878BOLB   GL321063  25.254   8.557  21.109 -0.0105 -0.0822 -0.0733
  878BOLB   GL421064  25.485   8.655  20.826  0.1174  0.2010  0.1333
  878BOLB   C1C21065  24.972   8.892  20.911 -0.2326  0.1585  0.1533
  878BOLB   C2C21066  24.821   9.213  20.745  0.2675 -0.1587 -0.2119
  878BOLB   C3C21067  24.613   9.538  20.730 -0.0765 -0.5006 -0.0154
  878BOLB   C4C21068  24.596   9.855  20.478 -0.0775 -0.1490 -0.2025
  878BOLB   C1D21069  25.498   9.072  21.021 -0.1435 -0.2429  0.0237
  878BOLB   C2D21070  25.107   9.332  21.276 -0.1486 -0.1040 -0.1840
  878BOLB   C3D21071  24.813   9.558  21.209 -0.0244 -0.0412 -0.1196
  878BOLB   C4D21072  24.401   9.568  21.186 -0.0974  0.0890 -0.2524
  879BOLB   NC121073  24.682  26.406  20.387  0.0680 -0.2000  0.1126
  879BOLB   PO121074  24.402  26.529  20.767  0.2168  0.0401 -0.0315
  879BOLB   GL121075  24.188  26.182  21.056  0.0904 -0.2416 -0.3219
  879BOLB   GL221076  24.053  25.850  21.009 -0.2953 -0.2210  0.1644
  879BOLB   C1A21077  23.854  26.087  21.372  0.0864 -0.0502 -0.2675
  879BOLB   C2A21078  23.597  25.643  21.447  0.1697 -0.1209 -0.1649
  879BOLB   C3A21079  23.801  25.262  21.644  0.0383  0.0407 -0.0751
  879BOLB   C4A21080  23.786  24.956  22.016 -0.4855  0.4260  0.1460
  879BOLB   C1B21081  24.143  25.538  21.378 -0.1326 -0.2011 -0.4887
  879BOLB   C2B21082  23.967  25.718  21.832 -0.1998  0.0289  0.1287
  879BOLB   C3B21083  23.581  25.613  21.958  0.1831  0.1203 -0.0270
  879BOLB   C4B21084  23.231  25.390  21.930  0.0041  0.1065  0.0160
  879BOLB   NC221085  24.992  25.251  23.200  0.0342 -0.2041 -0.1564
  879BOLB   PO221086  25.029  24.985  23.503 -0.0815  0.0544  0.1918
  879BOLB   GL321087  24.532  25.032  23.296 -0.1324  0.1631  0.1311
  879BOLB   GL421088  24.155  25.199  23.476 -0.3528 -0.2195  0.2803
  879BOLB   C1C21089  24.255  24.742  23.096  0.3385 -0.2838  0.0529
  879BOLB   C2C21090  23.976  24.486  22.902 -0.3176 -0.0658  0.3654
  879BOLB   C3C21091  23.744  24.482  22.623 -0.0740 -0.1514  0.1055
  879BOLB   C4C21092  23.682  24.858  22.404 -0.3242 -0.0276  0.1410
  879BOLB   C1D21093  23.853  24.850  23.599 -0.2181  0.0076  0.3160
  879BOLB   C2D21094  23.411  24.957  23.453  0.4577  0.2350  0.0180
  879BOLB   C3D21095  23.087  25.278  23.504 -0.1183  0.0150 -0.5281
  879BOLB   C4D21096  22.997  25.779  23.359  0.0178  0.0390  0.1041
  880BOLB   NC121097  26.987  13.801  21.105 -0.2471 -0.0952  0.2509
  880BOLB   PO121098  26.933  13.912  21.512  0.0265 -0.1209 -0.0459
  880BOLB   GL121099  26.965  13.942  21.952  0.0710  0.0587  0.1760
  880BOLB   GL221100  27.257  13.713  22.065  0.2751  0.1132 -0.0173
  880BOLB   C1A21101  26.591  14.038  22.305  0.0381  0.2320  0.2332
  880BOLB   C2A21102  26.409  13.869  22.728 -0.0512  0.0295  0.1624
  880BOLB   C3A21103  26.271  13.780  23.179 -0.3748  0.0650  0.1516
  880BOLB   C4A21104  26.209  14.026  23.542  0.1317  0.2083 -0.4027
  880BOLB   C1B21105  26.978  13.647  22.347  0.3292  0.0224  0.1040
  880BOLB   C2B21106  26.569  13.531  22.424 -0.0438  0.0929 -0.1037
  880BOLB   C3B21107  26.244  13.595  22.332  0.4486 -0.1694 -0.1794
  880BOLB   C4B21108  25.956  13.226  22.065 -0.1884  0.2599 -0.0126
  880BOLB   NC221109  26.921  14.440  25.776 -0.2073  0.1733 -0.3189
  880BOLB   PO221110  26.433  14.370  25.762 -0.2563 -0.1620 -0.1756
  880BOLB   GL321111  26.062  14.276  25.646 -0.0405 -0.1280  0.0045
  880BOLB   GL421112  25.742  14.073  25.607  0.0713 -0.3778  0.2780
  880BOLB   C1C21113  26.032  14.121  25.134  0.0991  0.0888 -0.0396
  880BOLB   C2C21114  26.061  14.148  24.688 -0.1973  0.0214  0.0943
  880BOLB   C3C21115  26.024  14.341  24.288 -0.1023  0.1755  0.3581
  880BOLB   C4C21116  26.237  14.278  23.886  0.0642  0.0859 -0.2541
  880BOLB   C1D21117  25.574  14.463  25.349  0.2150  0.0849  0.2834
  880BOLB   C2D21118  25.588  14.875  25.056  0.0020 -0.0779 -0.1512
  880BOLB   C3D21119  25.728  15.153  24.734 -0.1357 -0.0497  0.0089
  880BOLB   C4D21120  25.773  15.062  24.242 -0.2235 -0.0576  0.2890
  881BOLB   NC121121  24.216  25.037  20.667  0.1076 -0.0337  0.0168
  881BOLB   PO121122  24.603  24.951  20.787 -0.0501 -0.1517  0.0248
  881BOLB   GL121123  24.196  24.887  21.195  0.0329 -0.0359  0.5632
  881BOLB   GL221124  24.340  25.070  21.597 -0.1091 -0.2394 -0.0086
  881BOLB   C1A21125  23.942  24.747  21.577  0.3315  0.2912 -0.0955
  881BOLB   C2A21126  23.566  24.789  21.615 -0.3381 -0.1500  0.2522
  881BOLB   C3A21127  23.328  24.917  21.860 -0.1990 -0.1008  0.0680
  881BOLB   C4A21128  22.908  25.000  21.885  0.3702 -0.1997 -0.1549
  881BOLB   C1B21129  24.412  24.627  21.593  0.2347 -0.3089  0.1491
  881BOLB   C2B21130  24.491  24.337  21.867 -0.1518  0.2577  0.1883
  881BOLB   C3B21131  24.812  24.248  22.186  0.1314 -0.0171  0.2225
  881BOLB   C4B21132  24.747  24.644  22.416  0.2611 -0.1507  0.0090
  881BOLB   NC221133  23.003  26.708  23.757  0.1350 -0.0295  0.0041
  881BOLB   PO221134  22.479  26.641  23.630 -0.1836  0.0098 -0.2565
  881BOLB   GL321135  22.555  26.487  23.243 -0.0778  0.0796  0.0282
  881BOLB   GL421136  22.251  26.242  23.196 -0.1599  0.0388  0.3341
  881BOLB   C1C21137  22.825  26.350  23.043  0.1051 -0.0705  0.0733
  881BOLB   C2C21138  22.994  25.951  22.811 -0.0670 -0.0604 -0.1042
  881BOLB   C3C21139  22.919  25.745  22.383  0.3199  0.1023 -0.0501
  881BOLB   C4C21140  22.751  25.469  22.101  0.2662  0.1956 -0.0551
  881BOLB   C1D21141  22.461  25.891  23.061 -0.1829 -0.0459 -0.0759
  881BOLB   C2D21142  22.566  25.523  22.723 -0.0336 -0.0354 -0.2131
  881BOLB   C3D21143  22.525  25.138  22.443 -0.3013 -0.2228 -0.1002
  881BOLB   C4D21144  22.399  24.962  21.963  0.5134 -0.1894 -0.1661
  882BOLB   NC121145  23.804  17.142  22.744 -0.2729  0.0788 -0.2643
  882BOLB   PO121146  24.050  17.380  22.596  0.4546 -0.1844 -0.0685
  882BOLB   GL121147  24.264  17.523  22.983 -0.1633  0.1034 -0.1084
  882BOLB   GL221148  24.366  17.893  22.989 -0.1063 -0.2956  0.4443
  882BOLB   C1A21149  24.020  17.631  23.338 -0.0018  0.0114 -0.0879
  882BOLB   C2A21150  24.272  17.743  23.714 -0.0732 -0.1642 -0.0013
  882BOLB   C3A21151  24.240  17.677  24.103  0.1363  0.0932  0.1826
  882BOLB   C4A21152  24.334  17.530  24.417 -0.0899 -0.2470  0.2308
  882BOLB   C1B21153  24.742  18.075  23.035  0.1758  0.0937 -0.2592
  882BOLB   C2B21154  24.748  18.522  23.112 -0.1104  0.1725 -0.0867
  882BOLB   C3B21155  25.038  18.921  22.992 -0.1202  0.1495 -0.1083
  882BOLB   C4B21156  25.448  18.938  22.885  0.1739 -0.1963 -0.0269
  882BOLB   NC221157  26.129  18.676  25.293 -0.2034 -0.0141  0.2135
  882BOLB   PO221158  26.435  18.297  25.320 -0.1156  0.1497  0.0873
  882BOLB   GL321159  26.066  18.145  25.219  0.2660  0.1090  0.2182
  882BOLB   GL421160  25.992  17.734  25.292  0.1089 -0.2084  0.4089
  882BOLB   C1C21161  25.592  18.026  25.145 -0.0117  0.0469  0.1091
  882BOLB   C2C21162  25.252  17.880  25.049  0.1066  0.0094 -0.0404
  882BOLB   C3C21163  24.862  17.801  24.974  0.1124  0.0951 -0.2084
  882BOLB   C4C21164  24.442  17.637  24.884 -0.3207 -0.0271  0.2366
  882BOLB   C1D21165  25.647  17.517  25.085  0.0945  0.0829 -0.2765
  882BOLB   C2D21166  25.544  17.103  25.051  0.0243 -0.0361  0.1561
  882BOLB   C3D21167  25.178  16.812  24.993 -0.1496  0.0576  0.0703
  882BOLB   C4D21168  24.872  16.762  25.248 -0.1897 -0.2889  0.0503
  883BOLB   NC121169  22.648  11.369  19.470 -0.4392  0.2712  0.4784
  883BOLB   PO121170  23.018  11.504  19.358  0.0350  0.0611  0.0830
  883BOLB   GL121171  23.234  11.168  19.402  0.2508 -0.0069  0.1594
  883BOLB   GL221172  23.358  11.236  19.762 -0.3494 -0.1258 -0.2398
  883BOLB   C1A21173  23.272  10.737  19.530 -0.0629 -0.0108 -0.4465
  883BOLB   C2A21174  23.166  10.248  19.629  0.1149 -0.3148 -0.2878
  883BOLB   C3A21175  23.135   9.835  19.689 -0.1281  0.4272  0.1805
  883BOLB   C4A21176  23.144   9.391  19.957 -0.2120 -0.0724 -0.0194
  883BOLB   C1B21177  23.651  10.884  19.856 -0.0927 -0.0444  0.1909
  883BOLB   C2B21178  23.940  10.520  19.900 -0.1574 -0.2445 -0.0827
  883BOLB   C3B21179  24.025  10.234  20.158  0.0914 -0.0782 -0.0504
  883BOLB   C4B21180  24.172   9.780  20.243 -0.0069 -0.0445  0.0888
  883BOLB   NC221181  23.492   6.885  20.130  0.1849 -0.3128  0.0131
  883BOLB   PO221182  23.701   7.126  20.415 -0.3170  0.1389 -0.1978
  883BOLB   GL321183  23.470   7.425  20.472  0.0155  0.2481  0.1757
  883BOLB   GL421184  23.545   7.575  20.787 -0.1254  0.2054  0.1247
  883BOLB   C1C21185  23.455   7.825  20.320  0.0163  0.1367  0.2422
  883BOLB   C2C21186  23.460   8.192  20.201  0.1239  0.0366 -0.0451
  883BOLB   C3C21187  23.385   8.597  20.178  0.0556 -0.0777 -0.0626
  883BOLB   C4C21188  23.460   9.080  20.100  0.1139 -0.2401 -0.0873
  883BOLB   C1D21189  23.911   7.711  20.546 -0.1218  0.1823  0.0389
  883BOLB   C2D21190  23.929   8.111  20.430  0.1585  0.0555  0.6346
  883BOLB   C3D21191  23.878   8.418  20.220  0.0550  0.1932 -0.0145
  883BOLB   C4D21192  23.809   8.757  19.864 -0.1880  0.3161 -0.2774
  884BOLB   NC121193  28.108  10.834  20.400 -0.2980 -0.1040  0.2727
  884BOLB   PO121194  27.962  11.154  20.667 -0.3202 -0.0015  0.1730
  884BOLB   GL121195  27.501  11.298  20.627  0.3091 -0.1035  0.2677
  884BOLB   GL221196  27.296  11.415  20.433 -0.1671 -0.0478  0.1333
  884BOLB   C1A21197  27.099  11.231  20.874 -0.1994  0.0497 -0.1481
  884BOLB   C2A21198  26.768  11.491  21.149  0.1518  0.0810  0.3850
  884BOLB   C3A21199  26.314  11.556  21.013  0.0350 -0.2703 -0.0008
  884BOLB   C4A21200  25.925  11.265  20.876  0.0728 -0.1210 -0.1047
  884BOLB   C1B21201  27.115  11.689  20.710 -0.2574  0.0752  0.1405
  884BOLB   C2B21202  26.749  11.930  20.924 -0.3067 -0.1994 -0.0010
  884BOLB   C3B21203  26.491  11.988  21.325 -0.0904 -0.1812  0.2382
  884BOLB   C4B21204  26.194  12.322  21.320  0.2605 -0.0753 -0.1242
  884BOLB   NC221205  26.834   8.864  20.732 -0.0944 -0.0804 -0.3037
  884BOLB   PO221206  26.697   9.022  20.241 -0.0823 -0.1011  0.3301
  884BOLB   GL321207  26.566   9.470  20.205 -0.3969  0.0459 -0.0656
  884BOLB   GL421208  26.612   9.628  19.953  0.1925  0.2856  0.1660
  884BOLB   C1C21209  26.290   9.714  20.375 -0.1313  0.0513 -0.0410
  884BOLB   C2C21210  26.234  10.189  20.318  0.2205  0.3154 -0.0529
  884BOLB   C3C21211  26.182  10.638  20.353 -0.2664  0.1068 -0.2246
  884BOLB   C4C21212  25.904  10.820  20.635  0.1245  0.2466 -0.2436
  884BOLB   C1D21213  26.262   9.846  19.913 -0.0188 -0.2978  0.3094
  884BOLB   C2D21214  25.881   9.872  19.858 -0.1610 -0.2059 -0.0376
  884BOLB   C3D21215  25.478   9.682  20.013  0.1069 -0.2815 -0.0221
  884BOLB   C4D21216  24.995   9.725  20.036  0.0518  0.2673  0.0061
  885BOLB   NC121217  27.293  19.836  21.737 -0.0852 -0.0493 -0.1666
  885BOLB   PO121218  27.227  19.446  21.962 -0.0459 -0.1576  0.1045
  885BOLB   GL121219  26.810  19.645  22.071 -0.0706  0.2145  0.2031
  885BOLB   GL221220  26.769  19.622  21.675  0.3711 -0.0522 -0.0122
  885BOLB   C1A21221  26.447  19.855  22.024  0.1129 -0.0848 -0.2094
  885BOLB   C2A21222  26.262  19.953  21.686  0.3159 -0.2141 -0.1842
  885BOLB   C3A21223  25.975  19.934  21.310 -0.0930  0.2393  0.0025
  885BOLB   C4A21224  25.730  19.947  20.954  0.0137  0.0009 -0.2104
  885BOLB   C1B21225  26.303  19.401  21.618  0.0999  0.3182  0.1679
  885BOLB   C2B21226  25.943  19.241  21.556  0.2211 -0.3831 -0.1878
  885BOLB   C3B21227  25.611  19.612  21.521  0.0598  0.1826 -0.1131
  885BOLB   C4B21228  25.350  19.903  21.417 -0.1719  0.0855 -0.1782
  885BOLB   NC221229  26.472  22.093  22.088 -0.2798  0.1202  0.1853
  885BOLB   PO221230  26.270  21.679  21.959 -0.1511 -0.0943 -0.2366
  885BOLB   GL321231  25.964  21.385  21.943 -0.0266  0.2402  0.0233
  885BOLB   GL421232  26.042  21.136  22.127 -0.3497  0.0718 -0.1037
  885BOLB   C1C21233  25.985  21.162  21.570  0.2718 -0.0174 -0.1063
  885BOLB   C2C21234  25.643  20.935  21.215 -0.0645  0.1838 -0.1229
  885BOLB   C3C21235  25.498  20.642  21.017  0.0611  0.1871  0.1234
  885BOLB   C4C21236  25.502  20.225  20.852  0.1619  0.1634 -0.1016
  885BOLB   C1D21237  25.860  20.912  21.962 -0.1157  0.2231  0.0611
  885BOLB   C2D21238  25.495  20.660  21.711 -0.0407 -0.0115 -0.1979
  885BOLB   C3D21239  25.333  20.405  21.438 -0.0756  0.2990  0.1966
  885BOLB   C4D21240  25.063  20.367  21.195 -0.0663  0.0560 -0.0403
  886BOLB   NC121241  27.474  14.433  22.494 -0.2990  0.2187  0.2997
  886BOLB   PO121242  27.468  14.815  22.615 -0.0942  0.0062  0.0046
  886BOLB   GL121243  27.092  14.648  22.726 -0.2258  0.1375  0.1624
  886BOLB   GL221244  27.060  14.976  22.817 -0.1314 -0.4552  0.3214
  886BOLB   C1A21245  26.703  14.335  22.726 -0.2059  0.0701  0.1157
  886BOLB   C2A21246  26.713  14.009  23.203 -0.2744 -0.1051  0.3423
  886BOLB   C3A21247  26.670  13.812  23.535  0.0458  0.1120 -0.0095
  886BOLB   C4A21248  26.542  13.775  23.975  0.3867  0.0508 -0.3160
  886BOLB   C1B21249  26.960  15.059  23.250 -0.0615  0.1683  0.0428
  886BOLB   C2B21250  26.890  14.838  23.595 -0.5144  0.1530 -0.3422
  886BOLB   C3B21251  26.528  14.926  23.794 -0.0613 -0.4365  0.0978
  886BOLB   C4B21252  26.138  14.796  24.027 -0.1179 -0.0809 -0.2647
  886BOLB   NC221253  26.251  13.806  25.737 -0.0058 -0.0189 -0.0735
  886BOLB   PO221254  26.236  13.419  25.894  0.2324 -0.0989  0.2943
  886BOLB   GL321255  25.813  13.402  25.717  0.3773 -0.4235  0.0720
  886BOLB   GL421256  25.347  13.461  25.744 -0.3097 -0.2008  0.3352
  886BOLB   C1C21257  25.771  13.601  25.282 -0.0247 -0.0806  0.2708
  886BOLB   C2C21258  25.868  13.660  24.829 -0.0298 -0.4147 -0.3592
  886BOLB   C3C21259  25.785  13.852  24.433  0.0597 -0.2677 -0.0607
  886BOLB   C4C21260  26.094  13.828  24.146 -0.0903 -0.1756  0.0736
  886BOLB   C1D21261  25.288  13.785  25.391  0.1750 -0.1828 -0.0369
  886BOLB   C2D21262  25.505  14.014  25.030 -0.1910  0.0976  0.3130
  886BOLB   C3D21263  25.676  14.469  24.838 -0.0574 -0.5186  0.0616
  886BOLB   C4D21264  25.859  14.708  24.560  0.0459 -0.1190 -0.0609
  887BOLB   NC121265  24.168  26.934  23.200  0.3265 -0.2945 -0.3293
  887BOLB   PO121266  23.766  27.088  23.115 -0.1957 -0.2083  0.1094
  887BOLB   GL121267  23.426  26.714  22.978 -0.1013 -0.0225  0.3524
  887BOLB   GL221268  23.162  26.810  22.836  0.0670  0.0535  0.0483
  887BOLB   C1A21269  23.317  26.286  23.144  0.2376  0.4233  0.2255
  887BOLB   C2A21270  23.554  25.918  23.257 -0.5300 -0.2297  0.2711
  887BOLB   C3A21271  23.523  25.500  23.351 -0.0465 -0.2216  0.1189
  887BOLB   C4A21272  23.797  25.151  23.085 -0.4299 -0.4011 -0.0468
  887BOLB   C1B21273  23.235  26.355  22.682  0.0723 -0.2706  0.2225
  887BOLB   C2B21274  23.422  25.988  22.596 -0.2993  0.1863 -0.0958
  887BOLB   C3B21275  23.557  25.538  22.828 -0.0363  0.1690  0.2732
  887BOLB   C4B21276  23.403  25.085  22.800  0.0117 -0.3540 -0.0713
  887BOLB   NC221277  25.648  24.616  22.379  0.4344  0.1824  0.3242
  887BOLB   PO221278  25.329  24.568  22.696 -0.0800 -0.0451 -0.0549
  887BOLB   GL321279  24.988  24.272  22.723 -0.0921 -0.1424  0.0125
  887BOLB   GL421280  24.933  24.065  23.029  0.0127 -0.0287  0.0452
  887BOLB   C1C21281  24.642  24.016  22.646 -0.0272  0.1767  0.0957
  887BOLB   C2C21282  24.274  24.244  22.480 -0.4058  0.0276  0.1579
  887BOLB   C3C21283  24.179  24.824  22.532 -0.2732  0.0546  0.0073
  887BOLB   C4C21284  23.992  25.053  22.791 -0.4030  0.0948  0.3824
  887BOLB   C1D21285  24.483  24.222  23.132  0.0711 -0.0832 -0.1625
  887BOLB   C2D21286  24.086  24.006  23.181  0.2344 -0.1006 -0.0560
  887BOLB   C3D21287  24.198  23.681  23.443 -0.2379 -0.0929 -0.1731
  887BOLB   C4D21288  24.003  23.543  23.868 -0.1540  0.2254  0.0766
  888BOLB   NC121289  23.462  20.891  21.173 -0.3573  0.2523  0.2472
  888BOLB   PO121290  23.345  20.871  21.653  0.2934  0.1262 -0.0631
  888BOLB   GL121291  23.677  20.867  22.017  0.3391 -0.3033 -0.2460
  888BOLB   GL221292  23.692  20.706  22.312  0.0457  0.0080 -0.0824
  888BOLB   C1A21293  24.077  20.902  22.117  0.2987 -0.0198 -0.2260
  888BOLB   C2A21294  24.320  21.055  22.411  0.1264 -0.1356 -0.2233
  888BOLB   C3A21295  24.452  20.965  22.754  0.1114 -0.0252  0.3111
  888BOLB   C4A21296  24.407  20.603  23.044  0.0810  0.1783  0.0087
  888BOLB   C1B21297  24.019  20.610  22.642  0.2767 -0.0697  0.4410
  888BOLB   C2B21298  24.265  20.445  22.525 -0.3914 -0.3191 -0.2701
  888BOLB   C3B21299  24.655  20.170  22.452  0.1279  0.1596 -0.2591
  888BOLB   C4B21300  24.649  19.831  22.324  0.3755 -0.0700  0.1240
  888BOLB   NC221301  25.634  20.730  25.297 -0.1697  0.4271  0.0067
  888BOLB   PO221302  25.437  20.684  24.963  0.0177  0.2599  0.1007
  888BOLB   GL321303  25.081  20.584  24.731 -0.1935 -0.0415  0.1521
  888BOLB   GL421304  24.919  20.527  24.962 -0.2079 -0.1419 -0.2512
  888BOLB   C1C21305  25.034  20.487  24.319 -0.0763  0.0885 -0.2090
  888BOLB   C2C21306  24.730  20.456  24.030  0.1866  0.0786  0.0012
  888BOLB   C3C21307  24.838  20.386  23.608  0.0301 -0.0650  0.0999
  888BOLB   C4C21308  24.665  20.423  23.266 -0.0917 -0.2855  0.1967
  888BOLB   C1D21309  24.760  20.155  24.711  0.0449 -0.4493  0.0552
  888BOLB   C2D21310  24.698  20.000  24.250  0.0772  0.0385 -0.0815
  888BOLB   C3D21311  24.491  20.090  23.811 -0.0427 -0.1931 -0.2341
  888BOLB   C4D21312  24.311  20.367  23.701  0.3370  0.1433  0.1317
  889BOLB   NC121313  24.746  23.236  20.504  0.2911  0.0157 -0.0613
  889BOLB   PO121314  24.281  23.313  20.698  0.3453  0.0321  0.2618
  889BOLB   GL121315  24.197  23.137  21.052 -0.3899  0.0834 -0.1683
  889BOLB   GL221316  24.449  23.258  21.319  0.4016  0.2306  0.0551
  889BOLB   C1A21317  24.480  22.793  21.462 -0.0175 -0.0322  0.0364
  889BOLB   C2A21318  24.633  22.709  21.792  0.1938 -0.2812  0.0535
  889BOLB   C3A21319  24.494  22.491  22.095 -0.0442  0.1835  0.0325
  889BOLB   C4A21320  24.085  22.626  22.334  0.1462 -0.1088  0.2888
  889BOLB   C1B21321  24.203  23.094  21.698 -0.1802  0.0001 -0.1293
  889BOLB   C2B21322  24.131  22.709  21.809  0.1386 -0.1171 -0.0383
  889BOLB   C3B21323  23.786  22.491  21.800  0.1081  0.1576  0.0905
  889BOLB   C4B21324  23.539  22.074  21.905 -0.1527  0.0196 -0.1236
  889BOLB   NC221325  25.177  23.527  24.492  0.0262  0.0263 -0.1295
  889BOLB   PO221326  24.758  23.442  24.342  0.0147 -0.0928  0.0692
  889BOLB   GL321327  24.489  23.445  24.016  0.1187  0.1627  0.0075
  889BOLB   GL421328  24.611  23.634  23.752  0.1607 -0.0126  0.0884
  889BOLB   C1C21329  24.297  23.170  23.721 -0.2334  0.0301 -0.6017
  889BOLB   C2C21330  24.091  22.799  23.515  0.4958  0.0244 -0.0169
  889BOLB   C3C21331  24.073  22.553  23.116  0.1005 -0.3848 -0.0382
  889BOLB   C4C21332  23.974  22.372  22.658 -0.5188 -0.0485  0.1967
  889BOLB   C1D21333  24.646  23.719  23.314  0.0749 -0.1103  0.3702
  889BOLB   C2D21334  24.479  23.754  22.984 -0.1131 -0.0517  0.2477
  889BOLB   C3D21335  24.251  23.479  22.838 -0.1503  0.0543  0.0780
  889BOLB   C4D21336  24.240  23.007  22.906  0.1128  0.0690  0.3440
  890BOLB   NC121337  22.965  17.016  22.756  0.1056 -0.0893  0.2533
  890BOLB   PO121338  23.370  17.223  22.989 -0.3172 -0.1390  0.0596
  890BOLB   GL121339  23.516  17.205  23.327 -0.2358  0.0874 -0.0449
  890BOLB   GL221340  23.830  17.177  23.205  0.1183  0.1643  0.2086
  890BOLB   C1A21341  23.548  17.531  23.599 -0.2213  0.1044  0.0310
  890BOLB   C2A21342  23.722  17.641  23.976  0.1227  0.1810 -0.2086
  890BOLB   C3A21343  23.808  17.903  24.319  0.1528 -0.2142  0.0328
  890BOLB   C4A21344  23.625  18.119  24.751  0.0783 -0.1620 -0.1211
  890BOLB   C1B21345  23.983  17.218  23.639  0.1499 -0.3726 -0.1086
  890BOLB   C2B21346  23.958  17.223  24.116 -0.2208 -0.1594  0.0406
  890BOLB   C3B21347  23.722  17.374  24.383 -0.1915 -0.0536  0.1304
  890BOLB   C4B21348  23.601  17.415  24.814 -0.1410 -0.1667  0.1753
  890BOLB   NC221349  23.078  18.675  27.156  0.1312  0.0735 -0.2030
  890BOLB   PO221350  23.223  18.330  27.294 -0.0905 -0.0950 -0.0233
  890BOLB   GL321351  23.270  18.278  26.860  0.3035  0.0387 -0.0174
  890BOLB   GL421352  23.022  18.479  26.727 -0.2411  0.0108  0.0875
  890BOLB   C1C21353  23.191  18.040  26.515  0.2749 -0.1083 -0.0267
  890BOLB   C2C21354  23.173  18.046  26.075  0.0494 -0.0909  0.2308
  890BOLB   C3C21355  23.232  17.948  25.593  0.1151  0.1788 -0.0367
  890BOLB   C4C21356  23.455  18.044  25.096  0.3118 -0.2691  0.0626
  890BOLB   C1D21357  22.942  18.485  26.305  0.3040 -0.1199 -0.0790
  890BOLB   C2D21358  22.589  18.511  26.109  0.0941  0.1101  0.2032
  890BOLB   C3D21359  22.215  18.234  26.217  0.0601  0.2751 -0.0631
  890BOLB   C4D21360  22.273  17.761  26.109 -0.0209  0.2276  0.1445
  891BOLB   NC121361  23.376  18.994  22.375 -0.0617 -0.3644  0.2076
  891BOLB   PO121362  23.688  18.754  22.376  0.1092 -0.0461  0.2237
  891BOLB   GL121363  23.596  18.902  22.868  0.2628  0.1079 -0.0980
  891BOLB   GL221364  23.438  19.257  22.898  0.0826 -0.2995  0.1753
  891BOLB   C1A21365  23.863  18.785  23.226 -0.0524  0.2743  0.1405
  891BOLB   C2A21366  24.032  18.653  23.581  0.2227  0.0958  0.1195
  891BOLB   C3A21367  24.095  18.706  23.974 -0.0286  0.3106  0.0806
  891BOLB   C4A21368  24.162  18.612  24.350 -0.1843  0.3617 -0.2383
  891BOLB   C1B21369  23.731  19.292  23.251  0.1312 -0.3262 -0.0557
  891BOLB   C2B21370  23.789  19.090  23.676  0.5392 -0.0231  0.3136
  891BOLB   C3B21371  23.653  18.999  24.035 -0.2635 -0.0634  0.4251
  891BOLB   C4B21372  23.827  18.983  24.509  0.2692  0.0610 -0.2446
  891BOLB   NC221373  24.701  20.518  26.263 -0.0705 -0.0686  0.0888
  891BOLB   PO221374  24.854  20.081  26.186 -0.1385 -0.1181 -0.0702
  891BOLB   GL321375  24.500  19.814  25.931 -0.0193  0.0837 -0.0197
  891BOLB   GL421376  24.251  19.836  25.910  0.0877  0.1432  0.1380
  891BOLB   C1C21377  24.327  19.414  25.590  0.1361  0.0515  0.0287
  891BOLB   C2C21378  24.086  19.067  25.412 -0.0962 -0.0244 -0.0368
  891BOLB   C3C21379  23.797  18.922  25.047 -0.0927 -0.0156 -0.1742
  891BOLB   C4C21380  23.885  18.583  24.738 -0.0401  0.2942 -0.0629
  891BOLB   C1D21381  24.107  19.795  25.507  0.0173  0.2175  0.0807
  891BOLB   C2D21382  24.077  19.717  25.057 -0.3278  0.0970  0.5298
  891BOLB   C3D21383  24.101  19.979  24.747 -0.0067 -0.1199  0.1166
  891BOLB   C4D21384  23.776  20.204  24.600 -0.1566 -0.0711 -0.0590
  892BOLB   NC121385  25.744  12.113  18.258 -0.1935  0.0292 -0.0353
  892BOLB   PO121386  26.158  12.293  18.380 -0.0482 -0.1226  0.0147
  892BOLB   GL121387  25.984  11.989  18.689  0.0709  0.0294  0.5011
  892BOLB   GL221388  25.986  11.900  19.003 -0.1168  0.1550  0.0465
  892BOLB   C1A21389  25.807  11.518  18.614  0.0603 -0.0816  0.0671
  892BOLB   C2A21390  25.886  11.213  18.301  0.1183 -0.1283  0.3790
  892BOLB   C3A21391  26.023  10.786  18.186  0.0473 -0.0656  0.1819
  892BOLB   C4A21392  25.956  10.424  18.131 -0.0163 -0.0523 -0.0484
  892BOLB   C1B21393  26.039  11.543  19.158  0.2162  0.0513 -0.0370
  892BOLB   C2B21394  25.932  11.127  19.181 -0.0915 -0.1143 -0.1029
  892BOLB   C3B21395  25.850  10.681  19.270 -0.0456 -0.4146  0.0499
  892BOLB   C4B21396  25.831  10.276  19.565 -0.1667  0.0755  0.5149
  892BOLB   NC221397  27.477   9.627  19.665  0.2790 -0.0029  0.2279
  892BOLB   PO221398  27.840   9.817  19.380 -0.0197  0.0517  0.0571
  892BOLB   GL321399  27.478   9.936  19.169 -0.1084  0.1716  0.0717
  892BOLB   GL421400  27.431  10.106  18.976  0.0404 -0.3620  0.2008
  892BOLB   C1C21401  27.097   9.793  18.869  0.0330 -0.2011 -0.0946
  892BOLB   C2C21402  26.877   9.961  18.557  0.0368 -0.0767 -0.2803
  892BOLB   C3C21403  26.500  10.075  18.463 -0.0413  0.0556  0.1466
  892BOLB   C4C21404  26.240  10.048  18.172  0.2797  0.2718 -0.1217
  892BOLB   C1D21405  27.011  10.344  18.788  0.2554 -0.1609 -0.2455
  892BOLB   C2D21406  26.848  10.697  18.737  0.1489 -0.2733  0.0698
  892BOLB   C3D21407  26.946  11.061  18.329  0.3334 -0.2096 -0.1483
  892BOLB   C4D21408  26.962  11.181  17.937 -0.0366 -0.2870  0.3194
  893BOLB   NC121409  22.030  10.801  18.644 -0.1091 -0.2933 -0.0433
  893BOLB   PO121410  22.364  10.679  18.468 -0.1602  0.1137  0.2905
  893BOLB   GL121411  22.670  10.337  18.322 -0.0604 -0.1487 -0.0230
  893BOLB   GL221412  22.837  10.484  18.110 -0.4489  0.2364 -0.3294
  893BOLB   C1A21413  23.059  10.040  18.204 -0.1568  0.0832  0.3637
  893BOLB   C2A21414  23.321   9.896  18.047 -0.2489  0.0220 -0.1710
  893BOLB   C3A21415  23.675   9.615  18.038  0.1293  0.1568 -0.2228
  893BOLB   C4A21416  24.080   9.330  17.931  0.3234  0.0137 -0.3090
  893BOLB   C1B21417  23.199  10.504  18.422  0.0273  0.0303 -0.2441
  893BOLB   C2B21418  23.444  10.119  18.563 -0.3400  0.1292  0.1640
  893BOLB   C3B21419  23.749   9.817  18.455 -0.1564  0.1342 -0.4589
  893BOLB   C4B21420  23.816   9.328  18.604 -0.0278 -0.0811  0.2314
  893BOLB   NC221421  26.487   8.339  17.848  0.0834 -0.0321  0.0487
  893BOLB   PO221422  26.428   8.602  17.446  0.3209 -0.1189 -0.5434
  893BOLB   GL321423  26.073   8.531  17.431 -0.3461 -0.3374  0.0074
  893BOLB   GL421424  25.926   8.537  17.116 -0.0374  0.0922 -0.0401
  893BOLB   C1C21425  25.700   8.842  17.498  0.2623  0.0417  0.0845
  893BOLB   C2C21426  25.434   9.095  17.743  0.1955 -0.1223 -0.0562
  893BOLB   C3C21427  25.032   9.169  17.702 -0.1593  0.0161  0.0256
  893BOLB   C4C21428  24.499   9.264  17.741 -0.1341 -0.2522 -0.1699
  893BOLB   C1D21429  25.613   8.802  16.854 -0.1525  0.0267  0.3933
  893BOLB   C2D21430  25.262   9.042  16.613  0.0019  0.0349  0.2090
  893BOLB   C3D21431  24.937   9.239  16.698  0.2367  0.1294 -0.4224
  893BOLB   C4D21432  24.727   9.488  16.825  0.0045 -0.1466  0.0719
  894BOLB   NC121433  23.440  12.514  21.300 -0.0328  0.1119 -0.0504
  894BOLB   PO121434  23.238  12.471  21.657  0.0824  0.1639 -0.0884
  894BOLB   GL121435  23.257  12.218  21.977  0.1619 -0.2163 -0.0171
  894BOLB   GL221436  23.056  11.991  21.864 -0.1281  0.2976  0.3808
  894BOLB   C1A21437  23.377  11.957  22.332  0.1961 -0.1128  0.2065
  894BOLB   C2A21438  23.359  11.571  22.635 -0.2286 -0.0432 -0.0173
  894BOLB   C3A21439  23.504  11.385  22.910 -0.2683 -0.3655 -0.1363
  894BOLB   C4A21440  23.384  11.354  23.280 -0.0948  0.0526 -0.0025
  894BOLB   C1B21441  23.368  11.655  21.936  0.2816  0.0556 -0.1793
  894BOLB   C2B21442  23.566  11.414  22.156 -0.1532 -0.4210  0.3416
  894BOLB   C3B21443  23.790  11.248  22.511 -0.0145 -0.2632 -0.1244
  894BOLB   C4B21444  24.075  10.860  22.447 -0.0029  0.2517 -0.2021
  894BOLB   NC221445  24.364   9.552  24.170  0.4735 -0.0137  0.0370
  894BOLB   PO221446  24.062   9.531  24.478  0.1925  0.0407  0.2587
  894BOLB   GL321447  23.946   9.844  24.120  0.0716  0.2345  0.0967
  894BOLB   GL421448  24.211   9.980  23.969 -0.0764  0.1196  0.1483
  894BOLB   C1C21449  23.570  10.122  24.025  0.2502 -0.0785 -0.0651
  894BOLB   C2C21450  23.480  10.521  24.089  0.2016 -0.0204 -0.1639
  894BOLB   C3C21451  23.428  10.792  23.783 -0.2275  0.0554  0.1098
  894BOLB   C4C21452  23.253  11.141  23.637  0.0010 -0.0084 -0.0355
  894BOLB   C1D21453  24.069  10.331  23.801 -0.0405  0.1030  0.2664
  894BOLB   C2D21454  23.995  10.699  23.968 -0.0012  0.0184 -0.0037
  894BOLB   C3D21455  23.669  10.956  24.164 -0.1264  0.2936  0.0349
  894BOLB   C4D21456  23.273  11.185  24.190 -0.0653 -0.4159  0.1570
  895BOLB   NC121457  27.915  17.956  23.425  0.1524 -0.0236 -0.1901
  895BOLB   PO121458  27.478  17.737  23.546  0.3354  0.0947  0.0233
  895BOLB   GL121459  27.030  17.664  23.418  0.2508 -0.0587 -0.2611
  895BOLB   GL221460  26.983  17.582  23.751 -0.0783 -0.0036  0.3443
  895BOLB   C1A21461  26.671  17.791  23.036 -0.1242  0.0566 -0.0779
  895BOLB   C2A21462  26.364  18.003  22.920  0.1123  0.0108  0.0918
  895BOLB   C3A21463  25.971  18.007  22.923  0.2806  0.0698 -0.2477
  895BOLB   C4A21464  25.757  18.061  23.281 -0.1121 -0.1680 -0.5469
  895BOLB   C1B21465  26.718  17.224  23.722 -0.0399 -0.1926 -0.1504
  895BOLB   C2B21466  26.601  16.814  23.709 -0.2735  0.1143 -0.0050
  895BOLB   C3B21467  26.209  16.614  23.435  0.0143  0.0450  0.3501
  895BOLB   C4B21468  26.063  16.495  23.079  0.1877 -0.0807  0.3707
  895BOLB   NC221469  27.013  19.004  24.753 -0.3568 -0.2158 -0.0464
  895BOLB   PO221470  27.012  18.684  24.630  0.0402  0.1723  0.0780
  895BOLB   GL321471  26.508  18.714  24.673 -0.2713  0.1706 -0.4119
  895BOLB   GL421472  26.371  18.559  24.845  0.0649  0.5419 -0.0224
  895BOLB   C1C21473  26.064  18.879  24.538  0.1262  0.1358  0.0252
  895BOLB   C2C21474  25.642  18.764  24.399  0.1441  0.1339  0.0875
  895BOLB   C3C21475  25.516  18.500  23.982  0.1016  0.1734 -0.0697
  895BOLB   C4C21476  25.481  18.214  23.706 -0.0521 -0.0062 -0.2978
  895BOLB   C1D21477  25.945  18.405  24.624 -0.5773  0.1711  0.2700
  895BOLB   C2D21478  25.810  18.288  24.323  0.2335 -0.3221  0.0539
  895BOLB   C3D21479  25.405  17.999  24.201 -0.0158 -0.0643  0.2021
  895BOLB   C4D21480  25.179  17.788  23.806 -0.2321  0.1050 -0.4055
  896BOLB   NC121481  24.085  18.147  22.227 -0.1171 -0.0852 -0.1598
  896BOLB   PO121482  23.899  17.955  22.605  0.0411  0.0245  0.3051
  896BOLB   GL121483  23.854  18.112  22.958 -0.0799  0.1314 -0.0504
  896BOLB   GL221484  23.810  18.432  22.783  0.2278  0.0703 -0.0805
  896BOLB   C1A21485  24.059  18.302  23.252 -0.0160 -0.0516  0.3929
  896BOLB   C2A21486  24.420  18.390  23.466 -0.0139  0.2168  0.2065
  896BOLB   C3A21487  24.647  18.656  23.737  0.1818 -0.0843 -0.1068
  896BOLB   C4A21488  24.583  18.811  24.171  0.2019  0.1891 -0.0314
  896BOLB   C1B21489  24.220  18.528  22.691 -0.0829 -0.2257 -0.1299
  896BOLB   C2B21490  24.316  18.743  23.040 -0.0874 -0.0036 -0.1389
  896BOLB   C3B21491  24.546  19.160  23.034 -0.0920 -0.1847  0.0321
  896BOLB   C4B21492  24.578  19.443  22.748 -0.0211  0.0342  0.0262
  896BOLB   NC221493  24.562  18.583  27.214  0.0061 -0.0399  0.0940
  896BOLB   PO221494  24.652  18.506  26.738  0.0627 -0.2029 -0.0668
  896BOLB   GL321495  24.396  18.603  26.301  0.0782 -0.0160  0.1563
  896BOLB   GL421496  24.082  18.497  26.177  0.2140 -0.2439 -0.1592
  896BOLB   C1C21497  24.583  18.779  25.908 -0.0609 -0.0552  0.1296
  896BOLB   C2C21498  24.725  18.876  25.457 -0.2126 -0.0262  0.3874
  896BOLB   C3C21499  24.692  18.737  24.950 -0.2610  0.0407  0.0566
  896BOLB   C4C21500  24.675  18.671  24.532 -0.0845 -0.0917  0.0782
  896BOLB   C1D21501  24.159  18.530  25.754 -0.3080 -0.1030  0.0866
  896BOLB   C2D21502  24.140  18.070  25.496 -0.0404  0.0810 -0.1987
  896BOLB   C3D21503  23.919  17.815  25.087 -0.0774 -0.1989 -0.1420
  896BOLB   C4D21504  23.968  17.693  24.716 -0.1647  0.0996  0.0885
  897BOLB   NC121505  26.496  13.746  21.736 -0.1389 -0.0447  0.0516
  897BOLB   PO121506  26.282  13.376  21.490 -0.0568 -0.1881 -0.0237
  897BOLB   GL121507  25.831  13.288  21.568 -0.0161  0.1400  0.0063
  897BOLB   GL221508  25.643  13.452  21.702  0.1830  0.0430 -0.1770
  897BOLB   C1A21509  25.543  12.945  21.691  0.3992  0.2494 -0.1345
  897BOLB   C2A21510  25.585  12.493  21.707 -0.1843  0.1117 -0.2832
  897BOLB   C3A21511  25.622  12.250  22.014 -0.1373  0.0599 -0.0656
  897BOLB   C4A21512  25.867  11.902  22.180  0.3122 -0.2650  0.2449
  897BOLB   C1B21513  25.404  13.325  22.042 -0.1221  0.1235 -0.0780
  897BOLB   C2B21514  25.162  13.018  22.273  0.0326  0.2048  0.1796
  897BOLB   C3B21515  25.091  12.688  22.485 -0.0780 -0.3394  0.1337
  897BOLB   C4B21516  25.134  12.321  22.830  0.3249  0.4225  0.6660
  897BOLB   NC221517  27.155  10.428  23.151 -0.0272 -0.0112  0.2376
  897BOLB   PO221518  26.825  10.020  23.192 -0.0575  0.0266 -0.0691
  897BOLB   GL321519  26.556  10.442  23.246  0.2957 -0.3487 -0.0238
  897BOLB   GL421520  26.644  10.465  22.930 -0.4203 -0.2029 -0.1345
  897BOLB   C1C21521  26.108  10.773  23.358 -0.0729  0.0041  0.1592
  897BOLB   C2C21522  26.003  11.204  23.185  0.1482 -0.3833 -0.6671
  897BOLB   C3C21523  26.052  11.459  22.848  0.4384  0.3506 -0.0588
  897BOLB   C4C21524  26.003  11.589  22.387 -0.0936 -0.0395  0.3214
  897BOLB   C1D21525  26.291  10.463  22.594  0.1613 -0.0160 -0.0035
  897BOLB   C2D21526  25.974  10.577  22.268 -0.0057 -0.0515  0.0164
  897BOLB   C3D21527  26.024  10.229  21.945 -0.3238  0.1052  0.1018
  897BOLB   C4D21528  25.728  10.038  21.684  0.3378 -0.0602 -0.2253
  898BOLB   NC121529  22.860  18.506  22.976 -0.6029 -0.1357  0.1722
  898BOLB   PO121530  22.510  18.695  22.930 -0.2924 -0.0161 -0.0347
  898BOLB   GL121531  22.701  18.936  23.260 -0.1109  0.4408 -0.1592
  898BOLB   GL221532  23.065  18.992  22.987  0.2692  0.2167 -0.0704
  898BOLB   C1A21533  22.809  19.206  23.463  0.1039 -0.2288 -0.0561
  898BOLB   C2A21534  22.869  19.495  23.864 -0.0134  0.0223 -0.2074
  898BOLB   C3A21535  22.870  19.656  24.182  0.2494 -0.4617  0.0698
  898BOLB   C4A21536  22.687  19.885  24.579 -0.2917 -0.0763  0.2891
  898BOLB   C1B21537  23.277  19.062  23.306 -0.1326  0.1907  0.2062
  898BOLB   C2B21538  23.293  19.187  23.782  0.0823 -0.1354 -0.2909
  898BOLB   C3B21539  23.287  19.355  24.223  0.0440 -0.1228 -0.2890
  898BOLB   C4B21540  22.987  19.298  24.531 -0.0405  0.0397  0.2511
  898BOLB   NC221541  24.356  20.208  26.286 -0.2936 -0.1089  0.1022
  898BOLB   PO221542  24.531  19.899  26.531  0.4311  0.2044  0.0436
  898BOLB   GL321543  24.245  19.531  26.309 -0.2862 -0.3403 -0.0754
  898BOLB   GL421544  24.380  19.351  26.325  0.0750 -0.0339  0.0798
  898BOLB   C1C21545  23.916  19.472  25.925 -0.2501 -0.2682 -0.3866
  898BOLB   C2C21546  23.716  19.385  25.462  0.0670  0.2079  0.1849
  898BOLB   C3C21547  23.399  19.579  25.163 -0.4380  0.1050 -0.3140
  898BOLB   C4C21548  23.005  19.617  24.911 -0.0720 -0.2134 -0.0991
  898BOLB   C1D21549  24.163  19.034  25.950  0.2662  0.2295  0.1615
  898BOLB   C2D21550  23.725  18.812  25.823  0.1151 -0.0013  0.2638
  898BOLB   C3D21551  23.443  18.813  25.411  0.1388  0.0644 -0.0059
  898BOLB   C4D21552  23.446  18.594  25.015  0.3090 -0.1557 -0.1407
  899BOLB   NC121553  24.657  16.047  22.544  0.0204  0.2539  0.1499
  899BOLB   PO121554  24.672  15.638  22.629 -0.0050  0.1419 -0.3411
  899BOLB   GL121555  24.916  15.420  22.908 -0.3051  0.0984 -0.0065
  899BOLB   GL221556  25.153  15.218  22.975 -0.2769 -0.1684  0.0280
  899BOLB   C1A21557  24.828  15.272  23.355  0.1280  0.0521  0.3980
  899BOLB   C2A21558  24.759  14.853  23.687 -0.2992 -0.1753  0.2840
  899BOLB   C3A21559  24.611  14.687  24.131 -0.0733  0.3209 -0.3492
  899BOLB   C4A21560  24.768  14.420  24.502 -0.1151 -0.1996  0.0563
  899BOLB   C1B21561  25.333  15.380  23.314  0.2695  0.0460 -0.1980
  899BOLB   C2B21562  25.303  15.081  23.614  0.0144  0.0238  0.1581
  899BOLB   C3B21563  25.233  14.884  24.006 -0.1266  0.4373 -0.1087
  899BOLB   C4B21564  25.115  14.491  24.101 -0.2290 -0.1691 -0.3324
  899BOLB   NC221565  25.303  13.239  26.592 -0.0629  0.0712 -0.1837
  899BOLB   PO221566  25.144  13.130  26.141 -0.0936 -0.1894 -0.2616
  899BOLB   GL321567  24.915  13.241  25.977  0.0770  0.0861 -0.2283
  899BOLB   GL421568  24.643  13.385  26.098  0.1354  0.2094  0.2216
  899BOLB   C1C21569  24.646  13.164  25.615 -0.0835  0.0548  0.2054
  899BOLB   C2C21570  24.793  13.396  25.223  0.0683 -0.1275  0.3501
  899BOLB   C3C21571  24.987  13.759  24.997 -0.0129  0.3728  0.1554
  899BOLB   C4C21572  24.883  14.005  24.690 -0.0753 -0.1630 -0.1285
  899BOLB   C1D21573  24.433  13.640  25.796  0.2910  0.4840  0.0099
  899BOLB   C2D21574  24.310  13.635  25.326 -0.3116  0.1699 -0.1540
  899BOLB   C3D21575  24.141  13.807  25.020 -0.1677 -0.2574 -0.2168
  899BOLB   C4D21576  23.766  14.064  24.897  0.3648 -0.1539 -0.0031
  900BOLB   NC121577  25.328  15.357  22.551  0.0025  0.0297  0.1168
  900BOLB   PO121578  25.025  15.035  22.495 -0.1632  0.0542  0.1135
  900BOLB   GL121579  25.107  14.667  22.770  0.0141  0.2230 -0.1101
  900BOLB   GL221580  25.387  14.733  22.681 -0.4673  0.0374  0.0947
  900BOLB   C1A21581  25.142  14.428  22.974  0.1595  0.1735  0.1223
  900BOLB   C2A21582  25.012  14.058  23.278 -0.0951 -0.0471  0.2808
  900BOLB   C3A21583  24.882  13.851  23.693 -0.0661  0.2038  0.0633
  900BOLB   C4A21584  24.695  13.638  23.978 -0.0886  0.0350  0.0931
  900BOLB   C1B21585  25.373  14.825  23.223  0.1754 -0.0935 -0.1165
  900BOLB   C2B21586  25.241  14.560  23.581  0.1324  0.1532 -0.0583
  900BOLB   C3B21587  25.344  14.214  23.722  0.2369 -0.0394 -0.1613
  900BOLB   C4B21588  25.694  14.048  23.865  0.0298 -0.0051  0.0509
  900BOLB   NC221589  25.512  12.980  25.869  0.0458  0.2387 -0.0284
  900BOLB   PO221590  25.126  12.699  25.891  0.1872  0.0329  0.1801
  900BOLB   GL321591  25.075  12.796  25.528  0.0978  0.3300  0.0836
  900BOLB   GL421592  25.172  13.080  25.463 -0.0310 -0.1141  0.1915
  900BOLB   C1C21593  24.723  12.770  25.249  0.0722 -0.2100  0.1740
  900BOLB   C2C21594  24.700  12.744  24.865  0.1803 -0.1585 -0.1245
  900BOLB   C3C21595  24.643  12.908  24.443 -0.0591  0.0955  0.1199
  900BOLB   C4C21596  24.544  13.264  24.185 -0.3676 -0.0286  0.0834
  900BOLB   C1D21597  25.069  13.063  24.992  0.1800 -0.0445  0.4122
  900BOLB   C2D21598  24.912  13.332  24.704 -0.0626 -0.0995 -0.2411
  900BOLB   C3D21599  25.005  13.478  24.371 -0.0656 -0.3460  0.0784
  900BOLB   C4D21600  25.249  13.423  24.010 -0.1576 -0.1454 -0.2426
  901BOLB   NC121601  22.708  14.558  22.901 -0.0461  0.0441  0.0667
  901BOLB   PO121602  22.397  14.757  23.223 -0.3339 -0.0807 -0.1596
  901BOLB   GL121603  22.430  14.828  23.586 -0.2297 -0.1825 -0.3781
  901BOLB   GL221604  22.780  14.915  23.689 -0.1586  0.1383  0.0185
  901BOLB   C1A21605  22.550  14.848  24.130  0.2208 -0.1401  0.1581
  901BOLB   C2A21606  22.636  14.748  24.574 -0.2725  0.3487  0.3115
  901BOLB   C3A21607  22.598  14.856  25.042  0.0475 -0.3147 -0.0072
  901BOLB   C4A21608  22.779  14.981  25.411  0.0081  0.0210 -0.3110
  901BOLB   C1B21609  22.756  14.470  23.910 -0.0142  0.0226  0.2598
  901BOLB   C2B21610  22.644  14.289  24.172 -0.2442  0.2439 -0.0096
  901BOLB   C3B21611  22.778  14.221  24.616 -0.1133  0.0049 -0.0142
  901BOLB   C4B21612  22.710  14.056  25.057 -0.2291 -0.2311  0.0264
  901BOLB   NC221613  23.164  15.425  27.385  0.2789 -0.2571 -0.3161
  901BOLB   PO221614  23.603  15.368  27.411 -0.1840  0.1312 -0.0022
  901BOLB   GL321615  23.398  15.173  27.027 -0.3587 -0.2125  0.0635
  901BOLB   GL421616  23.453  15.430  26.897 -0.1439  0.1316 -0.0990
  901BOLB   C1C21617  23.134  14.862  26.767  0.1856  0.1129  0.1768
  901BOLB   C2C21618  22.715  15.027  26.690 -0.1963 -0.1317  0.0856
  901BOLB   C3C21619  22.558  15.060  26.221  0.2034  0.0337 -0.3669
  901BOLB   C4C21620  22.617  14.986  25.832 -0.1905 -0.0847 -0.2076
  901BOLB   C1D21621  23.141  15.405  26.506 -0.0799  0.1025  0.2675
  901BOLB   C2D21622  23.058  15.600  26.159 -0.2871  0.1054  0.0355
  901BOLB   C3D21623  23.128  16.007  26.061 -0.4029  0.2617 -0.2126
  901BOLB   C4D21624  23.232  16.241  26.460  0.0216 -0.2254 -0.1610
  902BOLB   NC121625  22.877  11.378  18.173  0.1147 -0.2571  0.0546
  902BOLB   PO121626  23.103  11.089  18.126 -0.1794 -0.0345  0.2205
  902BOLB   GL121627  23.235  10.804  17.829 -0.2128 -0.1733 -0.0405
  902BOLB   GL221628  22.986  10.684  17.640  0.0627 -0.1817  0.0143
  902BOLB   C1A21629  23.423  10.387  18.022  0.2961 -0.2700  0.0111
  902BOLB   C2A21630  23.758  10.148  18.068 -0.0729 -0.1777 -0.0538
  902BOLB   C3A21631  24.111   9.969  17.966 -0.0461 -0.1568  0.2886
  902BOLB   C4A21632  24.454   9.777  18.113 -0.2757 -0.0024  0.2682
  902BOLB   C1B21633  23.069  10.253  17.726 -0.1697 -0.0938  0.1038
  902BOLB   C2B21634  22.951   9.847  17.568 -0.2955  0.0450  0.1847
  902BOLB   C3B21635  22.564   9.696  17.434  0.0445 -0.0812 -0.1042
  902BOLB   C4B21636  22.488   9.441  17.390  0.1103 -0.0813 -0.0393
  902BOLB   NC221637  26.032   7.915  18.424 -0.0352  0.3063  0.2783
  902BOLB   PO221638  25.686   8.071  18.243 -0.1413 -0.0406  0.3249
  902BOLB   GL321639  25.570   8.393  18.070 -0.1241 -0.1568  0.0035
  902BOLB   GL421640  25.417   8.432  17.673  0.0006  0.2117 -0.0896
  902BOLB   C1C21641  25.304   8.675  18.053  0.0452  0.0428 -0.1055
  902BOLB   C2C21642  25.194   9.052  18.163  0.2428  0.3471  0.1415
  902BOLB   C3C21643  24.725   9.117  18.178  0.0706 -0.0462 -0.0043
  902BOLB   C4C21644  24.501   9.457  18.231 -0.3893 -0.0168 -0.0350
  902BOLB   C1D21645  24.952   8.415  17.852  0.0247  0.2401 -0.0199
  902BOLB   C2D21646  24.655   8.697  17.647  0.2774  0.4382  0.0091
  902BOLB   C3D21647  24.381   8.809  17.890 -0.1750 -0.1182  0.0972
  902BOLB   C4D21648  23.903   8.728  17.811  0.4293 -0.0047  0.2460
  903BOLB   NC121649  22.137  16.039  22.960  0.1026  0.0850 -0.2201
  903BOLB   PO121650  22.168  16.023  23.337  0.0559 -0.0502  0.0637
  903BOLB   GL121651  22.243  15.928  23.803 -0.0618  0.0471  0.1508
  903BOLB   GL221652  22.014  16.090  24.026 -0.0701  0.3028 -0.0172
  903BOLB   C1A21653  22.370  15.717  24.194  0.1309  0.4224  0.1213
  903BOLB   C2A21654  22.515  15.663  24.479 -0.1690 -0.0022 -0.0614
  903BOLB   C3A21655  22.765  15.744  24.860  0.2619  0.0262 -0.1785
  903BOLB   C4A21656  22.896  15.542  25.275  0.2633  0.3131  0.0003
  903BOLB   C1B21657  22.125  16.040  24.464 -0.0873 -0.2346  0.0388
  903BOLB   C2B21658  22.541  16.183  24.721 -0.0079 -0.1837 -0.0623
  903BOLB   C3B21659  22.658  16.150  25.153 -0.0507 -0.2517 -0.0975
  903BOLB   C4B21660  22.727  15.921  25.643 -0.2367  0.0176 -0.0384
  903BOLB   NC221661  23.970  15.644  27.552  0.2010 -0.0474 -0.2321
  903BOLB   PO221662  23.858  16.094  27.495  0.3486  0.1697  0.0905
  903BOLB   GL321663  23.894  16.143  26.996  0.0402 -0.0067  0.1790
  903BOLB   GL421664  23.976  16.466  26.940 -0.2701 -0.0915  0.4149
  903BOLB   C1C21665  23.685  15.924  26.725  0.6336 -0.2010  0.2186
  903BOLB   C2C21666  23.620  15.909  26.382 -0.0103 -0.0078 -0.2132
  903BOLB   C3C21667  23.595  15.846  25.929 -0.0871  0.1680  0.1154
  903BOLB   C4C21668  23.214  15.832  25.557  0.1572  0.1851  0.1643
  903BOLB   C1D21669  23.931  16.403  26.589 -0.2475 -0.1070 -0.0306
  903BOLB   C2D21670  23.735  16.302  26.118  0.0848  0.1457 -0.1091
  903BOLB   C3D21671  23.416  16.261  25.750  0.1874 -0.2127 -0.3308
  903BOLB   C4D21672  23.056  16.253  25.477 -0.1296 -0.2718  0.1396
  904BOLB   NC121673  23.110  22.567  20.556 -0.1024  0.2320 -0.1468
  904BOLB   PO121674  23.152  22.783  20.921 -0.0129 -0.1350 -0.0091
  904BOLB   GL121675  23.113  22.863  21.291 -0.1012  0.0106  0.1300
  904BOLB   GL221676  22.954  22.682  21.537  0.1280 -0.1824  0.0926
  904BOLB   C1A21677  23.214  23.233  21.645  0.0437  0.0037  0.3699
  904BOLB   C2A21678  23.278  23.181  22.060  0.0971  0.0132 -0.0497
  904BOLB   C3A21679  23.574  22.855  22.312 -0.2440 -0.1019 -0.3908
  904BOLB   C4A21680  23.806  22.846  22.681 -0.0323  0.2809  0.2294
  904BOLB   C1B21681  23.315  22.709  21.745 -0.5915 -0.1170 -0.1491
  904BOLB   C2B21682  23.688  23.012  21.820  0.2734  0.0400 -0.1740
  904BOLB   C3B21683  23.946  23.120  22.158 -0.1236 -0.0515 -0.2477
  904BOLB   C4B21684  24.078  23.209  22.465  0.0750  0.0616  0.1843
  904BOLB   NC221685  25.711  22.892  22.222  0.3620  0.3167  0.0888
  904BOLB   PO221686  25.349  23.136  22.225  0.3431 -0.1875 -0.1243
  904BOLB   GL321687  24.923  23.045  22.526  0.3492  0.1382  0.0605
  904BOLB   GL421688  24.815  23.406  22.700 -0.2085  0.1403  0.0693
  904BOLB   C1C21689  24.778  22.950  23.011 -0.1358  0.0714  0.2256
  904BOLB   C2C21690  24.459  23.279  23.285  0.1910  0.0296  0.1532
  904BOLB   C3C21691  24.001  23.276  23.310  0.2115 -0.1364  0.0040
  904BOLB   C4C21692  23.740  22.978  23.116  0.0192 -0.0522  0.0073
  904BOLB   C1D21693  24.516  23.545  22.438 -0.0662  0.3969 -0.3213
  904BOLB   C2D21694  24.113  23.811  22.461 -0.1327  0.0475  0.2366
  904BOLB   C3D21695  23.842  23.976  22.749 -0.1295 -0.2690 -0.0705
  904BOLB   C4D21696  23.581  24.075  22.974 -0.0104 -0.1250  0.0311
  905BOLB   NC121697  27.372  17.198  23.627 -0.2376 -0.0032  0.0626
  905BOLB   PO121698  27.284  16.794  23.614  0.1152 -0.2195 -0.0650
  905BOLB   GL121699  27.232  16.925  24.089 -0.1806 -0.2730 -0.3231
  905BOLB   GL221700  27.263  17.122  24.382 -0.0504 -0.0414 -0.1225
  905BOLB   C1A21701  26.782  16.986  24.187 -0.1102  0.0861  0.1096
  905BOLB   C2A21702  26.403  17.199  24.061  0.4844  0.4972  0.0575
  905BOLB   C3A21703  26.099  17.344  24.328  0.2156 -0.1075  0.0946
  905BOLB   C4A21704  25.814  17.625  24.224  0.1510  0.2788 -0.1812
  905BOLB   C1B21705  27.071  17.408  24.321  0.2433 -0.0610  0.1493
  905BOLB   C2B21706  26.609  17.631  24.220  0.1132 -0.0023  0.3870
  905BOLB   C3B21707  26.367  17.933  23.895  0.1319 -0.0858 -0.3104
  905BOLB   C4B21708  26.169  17.969  23.463 -0.2620 -0.1433  0.0200
  905BOLB   NC221709  27.347  19.509  24.148 -0.2349  0.0366 -0.0576
  905BOLB   PO221710  26.894  19.441  24.182 -0.1805  0.2332 -0.0616
  905BOLB   GL321711  26.708  19.078  24.014  0.1038 -0.3687 -0.0876
  905BOLB   GL421712  26.662  18.761  24.196  0.0324 -0.1698  0.1250
  905BOLB   C1C21713  26.570  18.757  23.683  0.0280 -0.1153 -0.2476
  905BOLB   C2C21714  26.241  18.546  23.558  0.4041  0.0985 -0.0416
  905BOLB   C3C21715  26.026  18.302  23.835 -0.1256  0.0494  0.2030
  905BOLB   C4C21716  25.839  17.916  23.923  0.0046 -0.1217  0.0571
  905BOLB   C1D21717  26.694  18.351  23.883  0.2259  0.0710 -0.3148
  905BOLB   C2D21718  26.672  17.963  23.532  0.0568 -0.1207 -0.1003
  905BOLB   C3D21719  26.469  17.589  23.548  0.0018 -0.1077 -0.4688
  905BOLB   C4D21720  26.046  17.432  23.824  0.2307 -0.1966 -0.1450
  906BOLB   NC121721  24.483  16.558  22.520 -0.2928  0.3141  0.1684
  906BOLB   PO121722  24.241  16.285  22.750  0.1060 -0.1307  0.0997
  906BOLB   GL121723  24.442  16.154  23.021  0.0557 -0.0259 -0.0504
  906BOLB   GL221724  24.838  16.075  23.016  0.0241  0.1338  0.3930
  906BOLB   C1A21725  24.633  16.358  23.352 -0.0012  0.0704  0.0283
  906BOLB   C2A21726  24.412  16.498  23.744 -0.1748 -0.0702 -0.1132
  906BOLB   C3A21727  24.245  16.838  24.030  0.0795  0.0006 -0.1770
  906BOLB   C4A21728  24.161  17.095  24.528  0.0683 -0.1843 -0.2505
  906BOLB   C1B21729  24.867  15.824  23.409 -0.3754 -0.2298  0.0546
  906BOLB   C2B21730  24.986  15.553  23.716  0.1377 -0.0511 -0.0407
  906BOLB   C3B21731  24.838  15.229  24.071  0.2270  0.0942 -0.1079
  906BOLB   C4B21732  24.867  14.930  24.483 -0.0469  0.1115 -0.2422
  906BOLB   NC221733  25.413  17.485  27.130  0.2550  0.0576  0.3296
  906BOLB   PO221734  24.952  17.645  26.974  0.1434 -0.2653 -0.4236
  906BOLB   GL321735  24.800  17.613  26.547  0.2223 -0.1615 -0.1514
  906BOLB   GL421736  24.482  17.832  26.583 -0.0436 -0.1704  0.0962
  906BOLB   C1C21737  24.640  17.586  26.184  0.0940 -0.0444  0.2308
  906BOLB   C2C21738  24.314  17.401  25.768 -0.2977 -0.0476  0.0700
  906BOLB   C3C21739  24.065  17.448  25.408 -0.3137  0.1643 -0.2638
  906BOLB   C4C21740  24.074  17.262  25.008 -0.0570  0.0082  0.1820
  906BOLB   C1D21741  24.154  17.646  26.292  0.1445  0.2697 -0.0089
  906BOLB   C2D21742  23.940  17.244  26.184 -0.4888 -0.2762  0.0979
  906BOLB   C3D21743  23.823  17.093  25.793 -0.0588  0.1674 -0.2130
  906BOLB   C4D21744  23.794  16.928  25.470  0.2927 -0.2204 -0.1707
  907BOLB   NC121745  25.667  12.294  19.211 -0.2243 -0.1738 -0.3010
  907BOLB   PO121746  25.544  12.167  18.729 -0.1323 -0.1432 -0.1125
  907BOLB   GL121747  25.317  11.754  18.580 -0.1096  0.2401  0.0319
  907BOLB   GL221748  25.247  11.510  18.801 -0.1015 -0.1544  0.1471
  907BOLB   C1A21749  25.350  11.450  18.319 -0.0013 -0.0600  0.0173
  907BOLB   C2A21750  25.456  11.115  18.538  0.2011  0.1580  0.0776
  907BOLB   C3A21751  25.488  10.849  18.897  0.3421 -0.0899 -0.0221
  907BOLB   C4A21752  25.532  10.434  18.934  0.1138  0.0316 -0.2360
  907BOLB   C1B21753  25.196  11.158  19.077  0.2290  0.2414 -0.0341
  907BOLB   C2B21754  24.980  10.820  19.243  0.0172  0.2042 -0.3091
  907BOLB   C3B21755  24.838  10.424  19.524  0.1136  0.1469  0.2131
  907BOLB   C4B21756  24.843  10.175  19.809  0.0015  0.4042  0.4555
  907BOLB   NC221757  25.363   7.854  18.933 -0.0605  0.0858 -0.2522
  907BOLB   PO221758  25.880   8.122  18.864  0.0227  0.1784  0.0176
  907BOLB   GL321759  25.697   8.485  19.039 -0.0565 -0.3111 -0.2229
  907BOLB   GL421760  25.674   8.582  19.453 -0.2561  0.0884  0.0144
  907BOLB   C1C21761  25.574   8.979  19.007 -0.0058 -0.1297 -0.3035
  907BOLB   C2C21762  25.729   9.430  19.052  0.1504 -0.2434  0.0747
  907BOLB   C3C21763  25.560   9.774  19.200 -0.1060 -0.0602 -0.2776
  907BOLB   C4C21764  25.555  10.188  19.159  0.1290  0.1607 -0.2691
  907BOLB   C1D21765  25.627   9.064  19.470 -0.4991  0.0380  0.0964
  907BOLB   C2D21766  25.373   9.381  19.462  0.2062 -0.4809  0.1479
  907BOLB   C3D21767  25.024   9.607  19.461  0.2116  0.0767  0.0922
  907BOLB   C4D21768  24.709   9.522  19.210 -0.0963  0.2405 -0.1016
  908BOLB   NC121769  22.542  16.650  22.605 -0.0679  0.2747 -0.2691
  908BOLB   PO121770  22.860  16.474  22.783  0.1436 -0.1507 -0.0807
  908BOLB   GL121771  23.020  16.482  23.136 -0.2381 -0.0725  0.2614
  908BOLB   GL221772  22.922  16.367  23.406 -0.0326  0.2660  0.0481
  908BOLB   C1A21773  23.377  16.513  23.367 -0.0165  0.0606 -0.4679
  908BOLB   C2A21774  23.333  16.401  23.827 -0.0838 -0.2202  0.2404
  908BOLB   C3A21775  23.435  16.359  24.308  0.2592 -0.2473 -0.1058
  908BOLB   C4A21776  23.547  16.378  24.618 -0.0295 -0.2814 -0.0995
  908BOLB   C1B21777  22.923  16.194  23.856 -0.0500 -0.0084 -0.0665
  908BOLB   C2B21778  22.583  16.249  23.996 -0.1642  0.0175  0.3527
  908BOLB   C3B21779  22.517  16.658  24.196 -0.4347 -0.2088  0.1062
  908BOLB   C4B21780  22.543  16.763  24.700  0.0013 -0.0182  0.1403
  908BOLB   NC221781  25.253  16.400  27.119  0.4682 -0.1754 -0.1910
  908BOLB   PO221782  24.996  16.243  26.832 -0.1192 -0.0621  0.0609
  908BOLB   GL321783  24.980  16.201  26.378  0.1994 -0.1847 -0.2085
  908BOLB   GL421784  24.696  15.993  26.492  0.5082  0.3427 -0.0814
  908BOLB   C1C21785  24.804  16.411  26.033 -0.1643 -0.1533 -0.0686
  908BOLB   C2C21786  24.471  16.498  25.521  0.1810 -0.2571  0.0221
  908BOLB   C3C21787  24.290  16.366  25.200  0.0382  0.1430 -0.1405
  908BOLB   C4C21788  23.895  16.433  24.889  0.0399  0.2075 -0.0055
  908BOLB   C1D21789  24.569  15.967  26.063  0.0221 -0.0256 -0.3211
  908BOLB   C2D21790  24.780  15.947  25.626  0.2109 -0.4973  0.0140
  908BOLB   C3D21791  24.868  16.242  25.361 -0.0377  0.2156  0.0023
  908BOLB   C4D21792  24.778  15.975  24.947 -0.1246 -0.0392  0.5498
  909BOLB   NC121793  27.441  12.837  22.083 -0.1016 -0.2470  0.0945
  909BOLB   PO121794  27.494  13.243  22.295 -0.0569 -0.1234  0.0008
  909BOLB   GL121795  27.062  13.105  22.282  0.0603 -0.3888 -0.0013
  909BOLB   GL221796  26.871  13.215  22.133  0.0167  0.0457  0.0174
  909BOLB   C1A21797  26.772  12.713  22.299 -0.0836  0.2701 -0.3437
  909BOLB   C2A21798  26.398  12.479  22.469  0.1310  0.3688  0.1229
  909BOLB   C3A21799  25.925  12.399  22.342 -0.0623 -0.3621  0.0926
  909BOLB   C4A21800  25.617  12.108  22.602  0.2454  0.1236  0.0173
  909BOLB   C1B21801  26.499  13.097  22.086  0.0568  0.3005 -0.2692
  909BOLB   C2B21802  26.394  12.573  22.018  0.0435  0.1009  0.0018
  909BOLB   C3B21803  26.081  12.215  21.784  0.3834  0.0066  0.1588
  909BOLB   C4B21804  25.707  12.091  21.437  0.3102 -0.1286 -0.0195
  909BOLB   NC221805  26.348  10.709  24.168  0.3015 -0.4345  0.3411
  909BOLB   PO221806  26.142  10.476  23.976  0.1103 -0.1706  0.3243
  909BOLB   GL321807  25.828  10.352  23.633  0.1392 -0.2004 -0.0432
  909BOLB   GL421808  26.042  10.262  23.466 -0.0136 -0.0941  0.4425
  909BOLB   C1C21809  25.636  10.623  23.307 -0.3758 -0.1702  0.0804
  909BOLB   C2C21810  25.439  11.055  23.226  0.1330 -0.2215 -0.1799
  909BOLB   C3C21811  25.464  11.415  22.990 -0.0238 -0.1203 -0.0703
  909BOLB   C4C21812  25.674  11.764  22.916 -0.0685  0.2955  0.0902
  909BOLB   C1D21813  25.793  10.071  23.101  0.0216 -0.0862 -0.0396
  909BOLB   C2D21814  25.540  10.372  22.847  0.0100 -0.1267  0.0002
  909BOLB   C3D21815  25.475  10.654  22.510  0.0860  0.1183  0.1376
  909BOLB   C4D21816  25.173  10.761  22.129  0.0466 -0.0797  0.2187
  910BOLB   NC121817  23.079  27.356  19.260  0.1615  0.0843  0.1072
  910BOLB   PO121818  23.039  27.184  18.916  0.0100 -0.0812  0.0004
  910BOLB   GL121819  22.726  26.893  18.839 -0.0025 -0.2154 -0.1700
  910BOLB   GL221820  22.541  27.112  18.921  0.2437 -0.2377 -0.3124
  910BOLB   C1A21821  22.462  26.653  19.215 -0.1513 -0.1846  0.1404
  910BOLB   C2A21822  22.119  26.921  19.328 -0.1211 -0.2643 -0.1066
  910BOLB   C3A21823  21.919  26.971  19.689 -0.1296  0.1279  0.1148
  910BOLB   C4A21824  21.458  27.097  19.732 -0.2200 -0.1442  0.0323
  910BOLB   C1B21825  22.214  26.785  18.789  0.3429 -0.1167  0.3822
  910BOLB   C2B21826  22.002  26.534  19.023 -0.0042 -0.3552  0.0068
  910BOLB   C3B21827  21.693  26.536  19.397 -0.1368  0.1350 -0.0036
  910BOLB   C4B21828  21.250  26.298  19.348 -0.0482  0.1424 -0.0246
  910BOLB   NC221829  21.998  28.131  20.976  0.1654  0.1139 -0.3546
  910BOLB   PO221830  21.635  28.381  20.901  0.0573 -0.0601  0.3849
  910BOLB   GL321831  21.532  27.918  20.813 -0.0104  0.0356  0.1119
  910BOLB   GL421832  21.783  27.627  20.703 -0.0160  0.1695  0.2944
  910BOLB   C1C21833  21.366  27.786  20.459  0.3619 -0.1713  0.0767
  910BOLB   C2C21834  20.870  27.691  20.308  0.0454 -0.2434 -0.1745
  910BOLB   C3C21835  20.848  27.281  20.033  0.0474  0.0477 -0.2269
  910BOLB   C4C21836  21.114  26.971  19.942 -0.1044  0.1071 -0.3933
  910BOLB   C1D21837  21.738  27.216  20.857 -0.1402 -0.1316  0.1136
  910BOLB   C2D21838  21.948  26.848  21.090 -0.0207 -0.3057  0.4228
  910BOLB   C3D21839  22.038  26.549  21.060  0.4927 -0.0482  0.0137
  910BOLB   C4D21840  21.858  26.234  21.238  0.1791 -0.2065  0.1411
  911BOLB   NC121841  22.358  27.150  16.975 -0.2154  0.3784  0.0504
  911BOLB   PO121842  22.790  26.950  17.110 -0.1369  0.2273  0.2378
  911BOLB   GL121843  22.443  26.687  17.081  0.1443 -0.1691  0.1552
  911BOLB   GL221844  22.305  26.689  17.350  0.3163  0.3305 -0.0748
  911BOLB   C1A21845  21.958  26.544  16.932  0.0132  0.0712  0.1095
  911BOLB   C2A21846  21.463  26.514  16.970  0.1159 -0.5757 -0.3575
  911BOLB   C3A21847  21.280  26.773  16.750  0.0252 -0.0960 -0.0190
  911BOLB   C4A21848  21.152  27.070  16.535  0.1196 -0.0191 -0.0262
  911BOLB   C1B21849  22.033  26.474  17.452 -0.0262 -0.3696  0.0870
  911BOLB   C2B21850  21.783  26.787  17.669  0.1324 -0.1557 -0.2682
  911BOLB   C3B21851  21.453  26.971  17.872 -0.2123  0.0598  0.5343
  911BOLB   C4B21852  21.359  27.431  17.915 -0.0933  0.0644 -0.2807
  911BOLB   NC221853  21.323  28.958  17.952  0.0592  0.3041 -0.1461
  911BOLB   PO221854  21.748  29.016  17.983  0.0822 -0.1833 -0.0746
  911BOLB   GL321855  21.658  28.558  18.034  0.0792 -0.4413 -0.0384
  911BOLB   GL421856  21.204  28.488  18.120  0.0934 -0.0160 -0.0003
  911BOLB   C1C21857  21.421  28.120  17.835 -0.0760  0.0716 -0.1879
  911BOLB   C2C21858  21.270  27.974  17.454 -0.3058 -0.4157 -0.2339
  911BOLB   C3C21859  21.223  27.735  16.961 -0.2314 -0.0272 -0.1331
  911BOLB   C4C21860  21.133  27.473  16.601 -0.0233  0.1534 -0.2736
  911BOLB   C1D21861  20.837  28.370  18.330  0.1160 -0.1487  0.0303
  911BOLB   C2D21862  20.538  28.318  18.634 -0.0592  0.1616  0.0016
  911BOLB   C3D21863  20.140  28.228  18.712  0.5039  0.0329  0.2629
  911BOLB   C4D21864  19.920  27.899  18.681 -0.0903  0.0247 -0.1216
  912BOLB   NC121865  11.534  27.644  17.929 -0.1019  0.0993  0.0369
  912BOLB   PO121866  11.601  28.139  17.917 -0.1002  0.4281 -0.0648
  912BOLB   GL121867  11.973  27.949  17.859  0.4864 -0.1072  0.1467
  912BOLB   GL221868  12.080  27.692  17.952  0.0205 -0.2181  0.2065
  912BOLB   C1A21869  12.279  28.171  17.661  0.2524  0.1367  0.0616
  912BOLB   C2A21870  12.766  28.424  17.548  0.0918 -0.4115  0.1199
  912BOLB   C3A21871  13.066  28.528  17.176 -0.1108 -0.1647  0.1852
  912BOLB   C4A21872  12.968  28.647  16.811 -0.3842  0.0970  0.3212
  912BOLB   C1B21873  12.441  27.937  18.033  0.0031  0.2490 -0.2709
  912BOLB   C2B21874  12.838  28.048  17.825 -0.0255  0.0187 -0.0601
  912BOLB   C3B21875  13.204  28.325  17.699 -0.1159  0.1655 -0.0520
  912BOLB   C4B21876  13.645  28.431  17.579 -0.0775  0.1585  0.1540
  912BOLB   NC221877  10.635  28.138  16.174 -0.1898 -0.2360  0.2480
  912BOLB   PO221878  10.918  28.328  15.753  0.2405 -0.0493 -0.0652
  912BOLB   GL321879  11.410  28.319  15.617  0.2634  0.0740 -0.0947
  912BOLB   GL421880  11.429  28.422  15.254  0.1580 -0.1901 -0.1310
  912BOLB   C1C21881  11.609  28.683  15.686 -0.3104  0.0987 -0.0598
  912BOLB   C2C21882  11.888  28.795  16.116 -0.0019  0.1419  0.0550
  912BOLB   C3C21883  12.252  28.810  16.322  0.0564 -0.1109 -0.3034
  912BOLB   C4C21884  12.692  28.642  16.315 -0.1497 -0.0370  0.2298
  912BOLB   C1D21885  11.556  28.457  14.836  0.2952  0.0550 -0.0158
  912BOLB   C2D21886  11.889  28.548  14.547  0.5588  0.0085  0.1132
  912BOLB   C3D21887  12.093  28.662  14.182  0.0069 -0.1566 -0.1166
  912BOLB   C4D21888  11.888  28.938  13.749  0.0237  0.0267 -0.0122
  913BOLB   NC121889   8.218  10.976  11.920 -0.4223 -0.2151  0.0107
  913BOLB   PO121890   8.399  11.321  12.050  0.1493 -0.3812  0.2465
  913BOLB   GL121891   8.203  11.454  11.613  0.1070 -0.1926 -0.0053
  913BOLB   GL221892   8.092  11.142  11.434 -0.2160 -0.3022  0.0556
  913BOLB   C1A21893   8.337  11.686  11.281 -0.0025 -0.3441  0.1756
  913BOLB   C2A21894   8.318  11.669  10.894 -0.0951 -0.0132 -0.2754
  913BOLB   C3A21895   8.455  11.783  10.494  0.0966  0.2755 -0.0749
  913BOLB   C4A21896   8.544  11.865  10.020 -0.0153 -0.0306  0.2398
  913BOLB   C1B21897   8.406  11.185  11.115  0.2274  0.0786 -0.1794
  913BOLB   C2B21898   8.479  11.188  10.691 -0.3378  0.3189 -0.1624
  913BOLB   C3B21899   8.504  11.305  10.292 -0.0149  0.0728  0.2759
  913BOLB   C4B21900   8.629  11.378   9.881 -0.0069 -0.1532  0.2160
  913BOLB   NC221901   7.718  12.102   7.787 -0.0111  0.1564  0.0523
  913BOLB   PO221902   8.087  12.361   7.696 -0.1065 -0.0323  0.0844
  913BOLB   GL321903   8.006  12.499   8.005 -0.0092  0.0165  0.0894
  913BOLB   GL421904   8.034  12.864   7.833 -0.0059 -0.3657 -0.0224
  913BOLB   C1C21905   8.218  12.485   8.371  0.0981  0.2746 -0.0049
  913BOLB   C2C21906   8.177  12.623   8.851 -0.3512  0.1161 -0.2180
  913BOLB   C3C21907   8.206  12.220   9.191  0.0870  0.1772  0.1633
  913BOLB   C4C21908   8.453  12.178   9.590 -0.0043 -0.1078 -0.0976
  913BOLB   C1D21909   8.302  13.005   8.226  0.2627  0.1937  0.0258
  913BOLB   C2D21910   8.478  13.162   8.548  0.2165  0.0322  0.1375
  913BOLB   C3D21911   8.525  13.037   8.943 -0.0615  0.2939  0.0260
  913BOLB   C4D21912   8.269  12.834   9.292 -0.0845  0.0745  0.1520
  914BOLB   NC121913   9.757   8.386  12.132  0.1378 -0.2498 -0.0996
  914BOLB   PO121914   9.496   8.182  11.876 -0.4261  0.0737 -0.0805
  914BOLB   GL121915   9.589   8.181  11.439  0.0690  0.0289 -0.0954
  914BOLB   GL221916   9.742   7.868  11.313  0.0518 -0.0009 -0.1520
  914BOLB   C1A21917   9.666   8.431  11.224  0.2179  0.1684 -0.1168
  914BOLB   C2A21918   9.821   8.727  10.933 -0.0221 -0.0156 -0.0250
  914BOLB   C3A21919   9.828   8.858  10.546  0.1375 -0.1393  0.1103
  914BOLB   C4A21920   9.870   8.538  10.386  0.3026 -0.0548 -0.0826
  914BOLB   C1B21921   9.967   7.681  11.674 -0.2032  0.1114  0.1799
  914BOLB   C2B21922  10.407   7.372  11.586 -0.0294  0.0220  0.3071
  914BOLB   C3B21923  10.759   7.358  11.304  0.0122 -0.2747 -0.1166
  914BOLB   C4B21924  10.926   7.173  10.884  0.3091 -0.4220  0.0563
  914BOLB   NC221925  10.437   7.080   8.910  0.0348 -0.0525 -0.1056
  914BOLB   PO221926  10.665   6.769   9.088  0.2512 -0.2100 -0.1383
  914BOLB   GL321927  10.560   6.976   9.487  0.2710  0.0580  0.0389
  914BOLB   GL421928  10.796   6.904   9.633 -0.1877  0.0942  0.1500
  914BOLB   C1C21929  10.577   7.349   9.555  0.0498 -0.0078 -0.1897
  914BOLB   C2C21930  10.413   7.756   9.695 -0.1302  0.1454  0.0922
  914BOLB   C3C21931  10.180   7.993  10.019  0.0167  0.1404 -0.0513
  914BOLB   C4C21932   9.976   8.119  10.345  0.3581 -0.0252 -0.1337
  914BOLB   C1D21933  10.999   6.927   9.949 -0.0363  0.3491  0.3258
  914BOLB   C2D21934  10.944   7.015  10.335  0.0028  0.0467  0.0805
  914BOLB   C3D21935  10.593   6.883  10.638 -0.2336  0.2727 -0.1078
  914BOLB   C4D21936  10.253   6.784  10.668 -0.1209  0.1605  0.0567
  915BOLB   NC121937   8.535  13.018  12.024 -0.0150  0.0007 -0.3575
  915BOLB   PO121938   8.190  12.968  12.241 -0.0534 -0.0354  0.1462
  915BOLB   GL121939   7.963  13.036  11.874  0.1992 -0.0128  0.1055
  915BOLB   GL221940   8.122  12.954  11.730 -0.1728 -0.2359 -0.1647
  915BOLB   C1A21941   7.849  13.091  11.365 -0.0473 -0.1723 -0.1514
  915BOLB   C2A21942   8.035  13.053  10.886 -0.1338 -0.0111 -0.2294
  915BOLB   C3A21943   8.145  13.188  10.459 -0.4136  0.0404 -0.0321
  915BOLB   C4A21944   8.061  13.382   9.984  0.1056  0.0328  0.1954
  915BOLB   C1B21945   7.679  12.690  11.581  0.0375  0.0392 -0.0977
  915BOLB   C2B21946   7.300  12.700  11.388 -0.2089  0.1005  0.0836
  915BOLB   C3B21947   7.240  12.549  11.138 -0.1616 -0.0101 -0.1387
  915BOLB   C4B21948   7.182  12.738  10.782  0.0653 -0.0579  0.0599
  915BOLB   NC221949   7.034  12.686   7.621 -0.1798  0.0540 -0.4170
  915BOLB   PO221950   7.193  12.266   7.936  0.2516 -0.0397 -0.3782
  915BOLB   GL321951   7.485  12.473   8.268 -0.1522  0.0030  0.0683
  915BOLB   GL421952   7.596  12.236   8.345  0.1694 -0.2309  0.1590
  915BOLB   C1C21953   7.818  12.763   8.398 -0.3556 -0.1261  0.3432
  915BOLB   C2C21954   8.047  13.073   8.712  0.3944 -0.1656  0.3757
  915BOLB   C3C21955   8.017  13.241   9.072 -0.0548 -0.3984  0.1427
  915BOLB   C4C21956   7.934  13.354   9.520 -0.1565  0.1078 -0.0245
  915BOLB   C1D21957   7.397  12.129   8.747 -0.1655 -0.0271 -0.0626
  915BOLB   C2D21958   7.275  12.124   9.121 -0.3041  0.2458  0.0091
  915BOLB   C3D21959   7.392  12.188   9.516  0.2369  0.2140  0.0555
  915BOLB   C4D21960   7.334  12.223   9.957 -0.1341 -0.0258  0.0523
  916BOLB   NC121961   8.965  10.200  12.837 -0.3632 -0.0695  0.1247
  916BOLB   PO121962   8.684  10.041  12.419 -0.0366  0.1078 -0.0888
  916BOLB   GL121963   8.534  10.076  12.000 -0.0740 -0.0845  0.1761
  916BOLB   GL221964   8.242  10.180  11.710 -0.0063  0.0060  0.0233
  916BOLB   C1A21965   8.610   9.880  11.561  0.1999 -0.0628  0.1913
  916BOLB   C2A21966   8.596   9.696  11.122  0.3837  0.2940  0.0572
  916BOLB   C3A21967   8.642   9.492  10.774  0.0927  0.4391  0.0465
  916BOLB   C4A21968   8.437   9.495  10.404  0.2645  0.1455  0.1023
  916BOLB   C1B21969   8.047   9.848  11.447 -0.0723 -0.1129  0.1438
  916BOLB   C2B21970   8.153   9.532  11.184  0.0272  0.2336  0.0216
  916BOLB   C3B21971   8.134   9.480  10.804 -0.0523  0.1438 -0.2426
  916BOLB   C4B21972   7.889   9.657  10.438  0.0120  0.0717 -0.2973
  916BOLB   NC221973   8.113   7.809   8.951  0.2634 -0.1128  0.0253
  916BOLB   PO221974   8.252   7.611   9.323 -0.2003  0.0481 -0.0533
  916BOLB   GL321975   8.356   7.847   9.716 -0.1344  0.3203 -0.0031
  916BOLB   GL421976   8.739   7.703   9.861  0.1925  0.2358 -0.3008
  916BOLB   C1C21977   8.219   8.368   9.512  0.2135  0.1404  0.2209
  916BOLB   C2C21978   8.138   8.679   9.819  0.0115 -0.0595  0.0019
  916BOLB   C3C21979   7.990   9.036  10.033 -0.0515  0.1812  0.0303
  916BOLB   C4C21980   8.191   9.470  10.119 -0.0080  0.0993  0.0610
  916BOLB   C1D21981   8.789   8.131   9.622 -0.2246  0.1843 -0.2356
  916BOLB   C2D21982   8.617   8.638   9.583 -0.1522 -0.0756 -0.1075
  916BOLB   C3D21983   8.731   9.049   9.445  0.0266 -0.0134  0.1989
  916BOLB   C4D21984   8.463   9.325   9.138  0.0326 -0.3447  0.2757
  917BOLB   NC121985   7.347  13.178  12.560 -0.2195  0.2967  0.1211
  917BOLB   PO121986   7.203  12.808  12.694  0.4680 -0.2044 -0.0960
  917BOLB   GL121987   7.006  12.824  12.316  0.2425 -0.3114  0.0585
  917BOLB   GL221988   6.820  12.992  12.288  0.0873  0.0244 -0.1317
  917BOLB   C1A21989   6.941  12.847  11.842  0.0971 -0.0145 -0.2963
  917BOLB   C2A21990   6.595  13.009  11.489  0.1928  0.0701 -0.0885
  917BOLB   C3A21991   6.464  13.276  11.211 -0.0696  0.0602 -0.3420
  917BOLB   C4A21992   6.245  13.644  11.047  0.1301 -0.0215  0.0651
  917BOLB   C1B21993   6.576  13.198  12.070  0.3287  0.2807  0.1878
  917BOLB   C2B21994   6.428  13.468  11.759 -0.0486 -0.0957  0.2000
  917BOLB   C3B21995   6.141  13.759  11.539  0.3626 -0.0324 -0.1065
  917BOLB   C4B21996   5.826  14.007  11.465  0.0290 -0.1477  0.0386
  917BOLB   NC221997   5.262  13.038   8.609 -0.0056 -0.0441 -0.2907
  917BOLB   PO221998   5.441  13.368   8.859 -0.0224 -0.1643 -0.0823
  917BOLB   GL321999   5.698  13.612   9.187  0.1109  0.0495 -0.2784
  917BOLB   GL422000   6.023  13.514   9.193 -0.4750  0.0466 -0.0435
  917BOLB   C1C22001   5.610  13.847   9.504  0.1274  0.0367 -0.2371
  917BOLB   C2C22002   5.594  13.821   9.978  0.2608  0.3013 -0.1887
  917BOLB   C3C22003   5.792  13.832  10.348  0.1498 -0.2626  0.2299
  917BOLB   C4C22004   6.093  13.759  10.638 -0.0404 -0.0547  0.0771
  917BOLB   C1D22005   6.352  13.275   9.301 -0.1760 -0.0234  0.0638
  917BOLB   C2D22006   6.786  13.205   9.207 -0.3402 -0.0362 -0.1373
  917BOLB   C3D22007   7.180  13.195   9.370 -0.1233  0.3797 -0.1876
  917BOLB   C4D22008   7.412  13.164   9.720  0.2288 -0.4198 -0.0086
  918BOLB   NC122009   8.191  14.901  12.637  0.0425  0.1580 -0.2224
  918BOLB   PO122010   8.204  15.258  12.375  0.1681 -0.0462 -0.0564
  918BOLB   GL122011   7.946  15.356  12.089 -0.0969  0.1449 -0.0089
  918BOLB   GL222012   7.996  15.696  11.988  0.1371 -0.1785 -0.3114
  918BOLB   C1A22013   7.553  15.347  11.965  0.2286  0.5330  0.1707
  918BOLB   C2A22014   7.272  15.456  11.612 -0.0444  0.3786  0.2036
  918BOLB   C3A22015   6.998  15.494  11.334  0.1776  0.3765  0.1323
  918BOLB   C4A22016   6.582  15.496  11.043  0.1404  0.0297 -0.1962
  918BOLB   C1B22017   8.059  15.929  11.598 -0.0506 -0.1407 -0.0484
  918BOLB   C2B22018   7.832  15.989  11.236 -0.0571 -0.1203 -0.0609
  918BOLB   C3B22019   7.484  16.035  10.857  0.0296 -0.0855  0.1078
  918BOLB   C4B22020   7.256  16.323  10.581 -0.0601  0.1139  0.0353
  918BOLB   NC222021   5.216  15.168   9.029 -0.0870  0.0790  0.1969
  918BOLB   PO222022   5.065  15.103   9.508  0.1341  0.0664 -0.2416
  918BOLB   GL322023   5.473  15.147   9.589 -0.2340  0.1317 -0.0872
  918BOLB   GL422024   5.653  14.910   9.502  0.0843 -0.1367 -0.2792
  918BOLB   C1C22025   5.702  15.512   9.781  0.2295  0.0848 -0.0933
  918BOLB   C2C22026   6.115  15.644   9.956 -0.1594 -0.3163 -0.2091
  918BOLB   C3C22027   6.260  15.687  10.304  0.2002 -0.2211  0.1104
  918BOLB   C4C22028   6.394  15.586  10.756 -0.1258  0.3546  0.0629
  918BOLB   C1D22029   5.895  14.729   9.813  0.0987  0.5236  0.1387
  918BOLB   C2D22030   6.148  14.507  10.022  0.0021  0.2829  0.0704
  918BOLB   C3D22031   6.461  14.258   9.893 -0.0122  0.1176 -0.0126
  918BOLB   C4D22032   6.707  13.969   9.899  0.0493 -0.1518  0.0455
  919BOLB   NC122033   5.140  16.173  15.812 -0.1961  0.1299 -0.0365
  919BOLB   PO122034   5.230  16.289  15.429 -0.1451 -0.1968 -0.0807
  919BOLB   GL122035   5.174  16.737  15.223 -0.2717  0.1202  0.2493
  919BOLB   GL222036   5.244  17.049  15.494 -0.1174  0.1927 -0.2284
  919BOLB   C1A22037   4.955  17.119  15.070  0.1197  0.2778  0.1310
  919BOLB   C2A22038   4.751  17.345  14.650  0.1403  0.0950 -0.2953
  919BOLB   C3A22039   4.661  17.224  14.333 -0.0230 -0.2223 -0.2152
  919BOLB   C4A22040   4.500  17.247  13.897  0.1603 -0.1885  0.0845
  919BOLB   C1B22041   5.282  17.485  15.427 -0.3483 -0.2329 -0.1313
  919BOLB   C2B22042   4.951  17.673  15.238 -0.2656  0.0620 -0.3196
  919BOLB   C3B22043   4.577  17.625  15.019 -0.0831  0.0405 -0.1377
  919BOLB   C4B22044   4.367  17.998  14.940  0.1821  0.0150  0.1072
  919BOLB   NC222045   2.329  18.676  14.002 -0.3441  0.1052  0.0001
  919BOLB   PO222046   2.630  18.422  14.111 -0.1145  0.3371  0.2220
  919BOLB   GL322047   3.108  18.466  14.029  0.2016  0.0362 -0.0516
  919BOLB   GL422048   3.339  18.484  14.232  0.4644 -0.3661 -0.0455
  919BOLB   C1C22049   3.476  18.157  13.953 -0.1683 -0.1895 -0.3624
  919BOLB   C2C22050   3.566  17.778  13.738 -0.3300  0.3298 -0.2222
  919BOLB   C3C22051   3.923  17.684  13.498 -0.0456 -0.0186 -0.1161
  919BOLB   C4C22052   4.345  17.490  13.504  0.0677 -0.1934  0.2366
  919BOLB   C1D22053   3.251  18.082  14.374  0.0009  0.0406 -0.1390
  919BOLB   C2D22054   3.529  17.706  14.233 -0.0089  0.0573 -0.5817
  919BOLB   C3D22055   3.802  17.533  14.039 -0.0583 -0.2401  0.0502
  919BOLB   C4D22056   3.981  17.271  13.768  0.0691 -0.1652 -0.1636
  920BOLB   NC122057   8.459  23.306  12.622 -0.0382  0.1438  0.0038
  920BOLB   PO122058   8.295  22.970  12.458 -0.3433 -0.5303  0.1296
  920BOLB   GL122059   8.467  22.662  12.136  0.1806  0.2021 -0.0231
  920BOLB   GL222060   8.244  22.452  12.222  0.1760  0.1934 -0.0423
  920BOLB   C1A22061   8.423  22.599  11.659 -0.0116 -0.2612 -0.0281
  920BOLB   C2A22062   8.146  22.449  11.511  0.1372  0.2995  0.4781
  920BOLB   C3A22063   7.751  22.498  11.230  0.0375 -0.1409 -0.2019
  920BOLB   C4A22064   7.547  22.157  11.034  0.2450 -0.1241  0.1415
  920BOLB   C1B22065   8.358  22.099  11.928 -0.1294  0.0700  0.0420
  920BOLB   C2B22066   8.009  21.927  11.629  0.3962  0.2759  0.0894
  920BOLB   C3B22067   7.551  21.746  11.814 -0.0307 -0.4141 -0.3472
  920BOLB   C4B22068   7.086  21.632  11.816 -0.0004  0.0643 -0.0418
  920BOLB   NC222069   6.411  22.022   8.492  0.2250  0.1425 -0.1431
  920BOLB   PO222070   6.693  22.122   8.890  0.2540  0.0136  0.2043
  920BOLB   GL322071   6.698  22.012   9.348 -0.4735 -0.4104  0.3865
  920BOLB   GL422072   6.426  21.799   9.553  0.1303 -0.1073 -0.4515
  920BOLB   C1C22073   6.816  22.079   9.771  0.0616 -0.0254 -0.0268
  920BOLB   C2C22074   7.260  22.140   9.944 -0.1099 -0.1596 -0.0370
  920BOLB   C3C22075   7.514  21.944  10.301  0.1730 -0.1275  0.1201
  920BOLB   C4C22076   7.634  21.985  10.631 -0.2528 -0.2990 -0.0709
  920BOLB   C1D22077   6.408  21.810  10.000 -0.1358  0.3318  0.1121
  920BOLB   C2D22078   6.651  21.835  10.317  0.0716 -0.0950 -0.1748
  920BOLB   C3D22079   6.619  21.978  10.688 -0.2883  0.0264  0.0033
  920BOLB   C4D22080   6.361  21.819  10.873  0.2511  0.0319  0.0600
  921BOLB   NC122081   9.283  16.087  12.452 -0.2272  0.2949  0.1100
  921BOLB   PO122082   8.978  16.401  12.195 -0.0065  0.3096 -0.0742
  921BOLB   GL122083   8.802  16.438  11.825 -0.2372  0.2069 -0.4788
  921BOLB   GL222084   8.665  16.219  11.682  0.1058  0.0257  0.0154
  921BOLB   C1A22085   8.578  16.595  11.371  0.0353  0.3315  0.0658
  921BOLB   C2A22086   8.437  16.647  11.031  0.2267  0.0980  0.0768
  921BOLB   C3A22087   8.253  16.707  10.564  0.1154 -0.2133 -0.1199
  921BOLB   C4A22088   8.419  16.671  10.235  0.3307 -0.1574 -0.3345
  921BOLB   C1B22089   8.698  15.969  11.325  0.3429  0.1666 -0.1405
  921BOLB   C2B22090   8.424  15.935  11.035  0.2909  0.3291  0.0142
  921BOLB   C3B22091   8.437  15.669  10.745 -0.0735  0.2979  0.1499
  921BOLB   C4B22092   8.195  15.713  10.352  0.0606 -0.0879  0.2636
  921BOLB   NC222093   7.442  16.682   7.605  0.1877 -0.1062  0.0592
  921BOLB   PO222094   7.186  16.726   7.973  0.0336  0.2239 -0.4812
  921BOLB   GL322095   7.297  16.779   8.399  0.1433  0.1817  0.0410
  921BOLB   GL422096   7.185  16.521   8.628 -0.3508 -0.1288  0.1970
  921BOLB   C1C22097   7.644  16.664   8.679 -0.0451  0.1442  0.0331
  921BOLB   C2C22098   7.878  16.546   9.141  0.3199  0.1395 -0.2627
  921BOLB   C3C22099   8.119  16.524   9.508  0.1239  0.1394 -0.1145
  921BOLB   C4C22100   8.435  16.639   9.861 -0.5244 -0.1688  0.1261
  921BOLB   C1D22101   7.282  16.772   8.982  0.0523  0.0372 -0.1821
  921BOLB   C2D22102   7.658  16.943   9.372  0.0939 -0.0021 -0.1929
  921BOLB   C3D22103   7.788  17.117   9.819  0.2347 -0.2989  0.1004
  921BOLB   C4D22104   7.778  17.023  10.327 -0.2213 -0.1578  0.1591
  922BOLB   NC122105   7.542  17.413  13.737 -0.1755  0.0276  0.3176
  922BOLB   PO122106   7.168  17.514  13.561 -0.2394  0.0639  0.0159
  922BOLB   GL122107   6.944  17.569  13.189  0.4707 -0.0344 -0.0596
  922BOLB   GL222108   6.772  17.265  12.910  0.2743  0.1963 -0.2985
  922BOLB   C1A22109   6.645  17.798  12.878  0.1999 -0.0578  0.0753
  922BOLB   C2A22110   6.431  17.905  12.482 -0.0879 -0.2729 -0.0102
  922BOLB   C3A22111   6.177  18.216  12.206  0.1012 -0.3008 -0.0156
  922BOLB   C4A22112   5.781  18.215  11.966  0.1143 -0.1785  0.0525
  922BOLB   C1B22113   6.477  16.998  12.812 -0.2347 -0.4497  0.1275
  922BOLB   C2B22114   5.983  17.096  12.560  0.0249  0.5354 -0.1928
  922BOLB   C3B22115   5.833  17.469  12.311 -0.0078 -0.2353 -0.0439
  922BOLB   C4B22116   6.119  17.751  12.173  0.0289 -0.0798 -0.0108
  922BOLB   NC222117   4.633  17.765  10.021 -0.2516  0.2603 -0.0967
  922BOLB   PO222118   4.519  17.712  10.402 -0.0455  0.0780 -0.2100
  922BOLB   GL322119   4.580  17.468  10.798 -0.1403  0.1326  0.1494
  922BOLB   GL422120   4.323  17.392  11.070  0.0437  0.4882  0.0680
  922BOLB   C1C22121   5.061  17.511  10.922 -0.1426 -0.2389 -0.0335
  922BOLB   C2C22122   5.512  17.660  10.852  0.1617  0.2419 -0.0436
  922BOLB   C3C22123   5.706  18.020  11.141 -0.0628 -0.3144  0.1634
  922BOLB   C4C22124   5.839  18.023  11.520 -0.4081 -0.1259 -0.0427
  922BOLB   C1D22125   4.649  17.392  11.299 -0.0081  0.1196 -0.0376
  922BOLB   C2D22126   5.024  17.309  11.476  0.1033  0.2245 -0.1106
  922BOLB   C3D22127   5.124  16.952  11.748 -0.3205 -0.1664  0.0302
  922BOLB   C4D22128   5.247  16.606  11.531  0.0394  0.1227  0.0652
  923BOLB   NC122129   6.687  17.261  14.123  0.0488 -0.1632 -0.0828
  923BOLB   PO122130   6.736  17.460  13.832  0.1675 -0.1124 -0.2696
  923BOLB   GL122131   6.409  17.627  13.763 -0.4607  0.0188  0.0035
  923BOLB   GL222132   6.324  17.924  13.944 -0.5144  0.0680 -0.2810
  923BOLB   C1A22133   6.135  17.746  13.497  0.0277  0.1468  0.0880
  923BOLB   C2A22134   6.009  17.745  13.076 -0.2250 -0.0875 -0.0434
  923BOLB   C3A22135   5.965  17.826  12.642  0.2796  0.0864 -0.0192
  923BOLB   C4A22136   5.719  18.043  12.371  0.0454  0.1392  0.2106
  923BOLB   C1B22137   6.134  18.306  13.919 -0.2336  0.2945 -0.0498
  923BOLB   C2B22138   6.167  18.549  13.942  0.2248  0.1454 -0.1577
  923BOLB   C3B22139   6.448  18.717  14.040 -0.2918 -0.0459  0.4262
  923BOLB   C4B22140   6.731  18.848  14.417 -0.0208  0.0373  0.1465
  923BOLB   NC222141   3.402  19.645  11.555 -0.3214  0.3325  0.2609
  923BOLB   PO222142   3.581  19.293  11.831  0.0321 -0.1227  0.0177
  923BOLB   GL322143   3.922  18.973  12.027  0.2579  0.1609  0.1635
  923BOLB   GL422144   4.279  18.993  12.025  0.1286 -0.1769  0.2404
  923BOLB   C1C22145   4.023  18.453  12.187 -0.2080 -0.2772  0.2222
  923BOLB   C2C22146   4.349  18.259  12.294 -0.0122  0.3266 -0.2785
  923BOLB   C3C22147   4.785  18.247  12.203 -0.0066  0.4666 -0.3307
  923BOLB   C4C22148   5.277  18.262  12.018  0.0963 -0.0930 -0.0265
  923BOLB   C1D22149   4.409  18.587  11.920  0.0530  0.0064  0.0450
  923BOLB   C2D22150   4.544  18.322  11.638  0.1559 -0.3249  0.1909
  923BOLB   C3D22151   4.938  18.276  11.678  0.1208 -0.2507  0.1879
  923BOLB   C4D22152   5.319  18.443  11.561  0.1296  0.3533  0.1657
  924BOLB   NC122153   7.087  17.123  13.308 -0.1609 -0.2012 -0.1290
  924BOLB   PO122154   6.705  17.139  13.437  0.0838  0.1641 -0.2181
  924BOLB   GL122155   6.413  17.406  13.216  0.1501 -0.2597  0.2440
  924BOLB   GL222156   6.235  17.131  13.222  0.3195 -0.2841  0.1380
  924BOLB   C1A22157   6.263  17.461  12.706 -0.3273 -0.1270  0.1671
  924BOLB   C2A22158   6.402  17.291  12.348  0.0079 -0.3456 -0.0233
  924BOLB   C3A22159   6.566  17.072  11.961  0.1506 -0.0379  0.1115
  924BOLB   C4A22160   6.678  17.298  11.664  0.0766  0.2395  0.2240
  924BOLB   C1B22161   5.848  17.258  13.018 -0.2234 -0.0224  0.1077
  924BOLB   C2B22162   5.598  16.928  12.867  0.3825  0.0985 -0.1919
  924BOLB   C3B22163   5.305  16.889  12.550  0.1884  0.1552 -0.1370
  924BOLB   C4B22164   5.241  16.621  12.101 -0.1554  0.0846  0.0658
  924BOLB   NC222165   4.901  18.729   9.945  0.1870  0.2081 -0.2476
  924BOLB   PO222166   5.025  18.411   9.664  0.0866 -0.1358 -0.2314
  924BOLB   GL322167   5.489  18.236   9.843 -0.1981  0.0441 -0.0184
  924BOLB   GL422168   5.826  18.257   9.663 -0.1161 -0.1375  0.3335
  924BOLB   C1C22169   5.605  18.114  10.317 -0.3311 -0.0023  0.1500
  924BOLB   C2C22170   5.879  18.064  10.653  0.1050  0.1139 -0.0371
  924BOLB   C3C22171   6.266  17.992  11.049  0.1257  0.0721  0.0923
  924BOLB   C4C22172   6.495  17.605  11.320  0.0003 -0.1259 -0.1520
  924BOLB   C1D22173   6.080  18.392   9.955 -0.0940 -0.1097 -0.1271
  924BOLB   C2D22174   6.427  18.301  10.064 -0.1318 -0.1870 -0.1091
  924BOLB   C3D22175   6.792  18.219  10.119  0.1506  0.1958  0.1345
  924BOLB   C4D22176   7.178  17.967  10.097  0.0249 -0.2179  0.0926
  925BOLB   NC122177   9.512  27.011   9.917  0.0609 -0.0595  0.1686
  925BOLB   PO122178   9.546  26.590   9.825  0.0973 -0.2372 -0.3886
  925BOLB   GL122179   9.604  26.373  10.141  0.2415  0.2857  0.2173
  925BOLB   GL222180   9.972  26.306  10.174  0.2267  0.0585 -0.2883
  925BOLB   C1A22181   9.549  25.915  10.218  0.3800 -0.1022 -0.2292
  925BOLB   C2A22182   9.299  25.699  10.362  0.1855  0.1092  0.1588
  925BOLB   C3A22183   9.045  25.368  10.251  0.1146 -0.0191 -0.0084
  925BOLB   C4A22184   9.102  24.967  10.112 -0.2044  0.3301 -0.4476
  925BOLB   C1B22185  10.318  26.092  10.490  0.1343  0.3318  0.0302
  925BOLB   C2B22186  10.512  26.149  10.850 -0.1431  0.0974  0.1147
  925BOLB   C3B22187  10.772  26.043  11.048  0.1538  0.4319 -0.0892
  925BOLB   C4B22188  11.030  26.330  11.183 -0.0651  0.1568 -0.0621
  925BOLB   NC222189   7.385  24.433   8.619  0.0048 -0.0873 -0.2948
  925BOLB   PO222190   7.330  24.405   9.061 -0.0646 -0.2218  0.3046
  925BOLB   GL322191   7.724  24.183   9.327 -0.0144 -0.1656 -0.0306
  925BOLB   GL422192   7.613  23.809   9.394 -0.0710  0.1423  0.3454
  925BOLB   C1C22193   8.023  23.993   9.566 -0.0536  0.0639 -0.0288
  925BOLB   C2C22194   8.343  24.030   9.941  0.1453  0.3631 -0.0447
  925BOLB   C3C22195   8.651  24.391  10.108  0.2724  0.0326  0.1843
  925BOLB   C4C22196   8.953  24.601  10.208  0.1521 -0.3117 -0.0646
  925BOLB   C1D22197   7.727  23.500   9.707 -0.1658  0.2938  0.1452
  925BOLB   C2D22198   7.641  23.280   9.953  0.0570  0.1428 -0.0582
  925BOLB   C3D22199   7.491  23.009  10.192 -0.2549  0.1283 -0.1099
  925BOLB   C4D22200   7.586  22.441  10.130  0.1547 -0.0357 -0.0701
  926BOLB   NC122201   8.973  17.909  12.448  0.1876 -0.2839  0.0465
  926BOLB   PO122202   8.824  18.309  12.279 -0.1084  0.0192  0.0021
  926BOLB   GL122203   8.687  18.255  11.826  0.3609  0.2405  0.1977
  926BOLB   GL222204   8.519  18.006  11.687  0.0203 -0.0199 -0.0681
  926BOLB   C1A22205   8.486  18.631  11.497 -0.3710  0.0833  0.1802
  926BOLB   C2A22206   8.158  18.643  11.166 -0.0442 -0.0473 -0.0977
  926BOLB   C3A22207   7.766  18.698  10.926 -0.1332  0.0263  0.0146
  926BOLB   C4A22208   7.368  18.782  10.746 -0.1173 -0.3166  0.3540
  926BOLB   C1B22209   8.094  17.917  11.493  0.1131  0.1059 -0.1436
  926BOLB   C2B22210   7.710  18.166  11.116 -0.4458 -0.1097  0.0216
  926BOLB   C3B22211   7.330  18.371  11.107  0.4235  0.2981  0.1533
  926BOLB   C4B22212   6.974  18.282  10.784 -0.0793 -0.1329  0.0621
  926BOLB   NC222213   5.939  19.993   9.415  0.0230 -0.1281 -0.0701
  926BOLB   PO222214   5.930  19.531   9.235 -0.2650  0.2711  0.3680
  926BOLB   GL322215   5.891  19.151   9.489 -0.3128  0.0337  0.0263
  926BOLB   GL422216   5.684  18.820   9.296  0.0654 -0.0085  0.1917
  926BOLB   C1C22217   6.077  18.907   9.817  0.0823  0.1488 -0.0241
  926BOLB   C2C22218   6.357  18.815  10.076  0.0429  0.1006 -0.2595
  926BOLB   C3C22219   6.664  18.631  10.395 -0.0615  0.0717 -0.3773
  926BOLB   C4C22220   6.913  18.801  10.689 -0.0502 -0.1632 -0.1441
  926BOLB   C1D22221   6.047  18.598   9.405 -0.3446  0.2850  0.2802
  926BOLB   C2D22222   6.435  18.652   9.632 -0.2242  0.1266 -0.1915
  926BOLB   C3D22223   6.848  18.797   9.929  0.1445  0.3362  0.2475
  926BOLB   C4D22224   7.136  18.891  10.223 -0.0610 -0.1024 -0.1348
  927BOLB   NC122225   5.949  23.406  12.453 -0.1025  0.1556 -0.2901
  927BOLB   PO122226   5.762  23.039  12.561 -0.1073  0.0666  0.2252
  927BOLB   GL122227   6.214  22.855  12.535 -0.1840  0.0219  0.0483
  927BOLB   GL222228   6.168  22.924  12.238  0.1566 -0.0388  0.0245
  927BOLB   C1A22229   6.679  22.902  12.510 -0.1565  0.2614 -0.0120
  927BOLB   C2A22230   7.024  22.830  12.473 -0.1160  0.0346 -0.3485
  927BOLB   C3A22231   7.106  22.428  12.362 -0.1604  0.1104  0.2944
  927BOLB   C4A22232   7.256  22.245  11.946  0.2069  0.0751 -0.1164
  927BOLB   C1B22233   6.482  22.504  12.288  0.0558 -0.1039  0.2109
  927BOLB   C2B22234   6.644  22.173  12.529  0.1242 -0.2134 -0.1156
  927BOLB   C3B22235   6.418  21.839  12.757  0.2395 -0.0594 -0.1316
  927BOLB   C4B22236   5.967  21.854  12.939  0.2587 -0.0861 -0.0466
  927BOLB   NC222237   5.301  22.673  10.598  0.1311  0.1107  0.2404
  927BOLB   PO222238   5.579  22.627  10.935 -0.1732  0.0857  0.0664
  927BOLB   GL322239   5.870  22.245  11.054  0.2077 -0.0950 -0.1981
  927BOLB   GL422240   6.217  22.275  10.778  0.0059  0.1190 -0.0119
  927BOLB   C1C22241   6.172  22.020  11.314  0.0250  0.0312 -0.2150
  927BOLB   C2C22242   6.397  21.729  11.362 -0.0679  0.1306 -0.0541
  927BOLB   C3C22243   6.649  21.775  11.639 -0.1500  0.1088  0.2329
  927BOLB   C4C22244   7.023  22.113  11.637  0.0396 -0.2243  0.6953
  927BOLB   C1D22245   6.471  22.626  10.768 -0.1282 -0.2008 -0.0940
  927BOLB   C2D22246   6.818  22.885  10.937 -0.1886 -0.0524 -0.3474
  927BOLB   C3D22247   7.092  23.157  10.912 -0.2908 -0.3504 -0.1040
  927BOLB   C4D22248   7.400  23.232  10.696  0.0744 -0.0119  0.0103
  928BOLB   NC122249   6.147  15.210  14.523  0.1482 -0.1140  0.0564
  928BOLB   PO122250   5.942  15.369  14.118 -0.3417 -0.1446  0.0027
  928BOLB   GL122251   5.783  15.468  13.613  0.0174  0.0815 -0.1120
  928BOLB   GL222252   5.519  15.351  13.801 -0.1559 -0.1008  0.1294
  928BOLB   C1A22253   5.631  15.677  13.239  0.0974  0.2590  0.0263
  928BOLB   C2A22254   5.409  15.935  13.036  0.1493  0.1213 -0.1458
  928BOLB   C3A22255   5.306  15.975  12.656  0.2660  0.4381 -0.0340
  928BOLB   C4A22256   5.047  16.172  12.365 -0.1359  0.0521 -0.2302
  928BOLB   C1B22257   5.242  15.618  13.649 -0.2310 -0.1040  0.0179
  928BOLB   C2B22258   4.808  15.729  13.556  0.4437  0.0287  0.1946
  928BOLB   C3B22259   4.434  15.909  13.559 -0.0971  0.4808  0.1410
  928BOLB   C4B22260   4.268  16.359  13.556  0.0094 -0.0789  0.0193
  928BOLB   NC222261   3.242  15.976  10.620  0.0171 -0.1458  0.1803
  928BOLB   PO222262   3.325  16.406  10.873 -0.1346 -0.4214  0.0462
  928BOLB   GL322263   3.694  16.028  10.843  0.0700  0.2244 -0.0007
  928BOLB   GL422264   3.955  16.067  10.669  0.3543 -0.1978 -0.0485
  928BOLB   C1C22265   3.880  16.044  11.240 -0.2846 -0.3981  0.2640
  928BOLB   C2C22266   4.139  15.928  11.569  0.0778 -0.0401 -0.1812
  928BOLB   C3C22267   4.402  15.884  11.823 -0.2448 -0.3389 -0.2348
  928BOLB   C4C22268   4.735  16.087  12.204  0.0590  0.0325  0.0515
  928BOLB   C1D22269   4.265  15.895  10.879  0.3080 -0.0054  0.1982
  928BOLB   C2D22270   4.511  15.853  11.218 -0.0106  0.0295  0.0325
  928BOLB   C3D22271   4.736  15.573  11.386 -0.1882  0.0964 -0.0858
  928BOLB   C4D22272   4.893  15.431  11.745  0.0668  0.1628 -0.4879
  929BOLB   NC122273   4.272  11.387  11.392 -0.1640 -0.2486 -0.1531
  929BOLB   PO122274   4.141  11.804  11.558  0.0034  0.3893 -0.1610
  929BOLB   GL122275   4.409  12.092  11.722 -0.2520  0.2010  0.0781
  929BOLB   GL222276   4.776  12.062  11.769 -0.0944  0.2687  0.0348
  929BOLB   C1A22277   4.497  12.545  11.664  0.1231 -0.1837  0.0792
  929BOLB   C2A22278   4.819  12.871  11.828 -0.1656 -0.2047  0.0784
  929BOLB   C3A22279   4.924  13.253  11.734  0.0260  0.2026  0.1156
  929BOLB   C4A22280   4.971  13.722  11.579 -0.0184  0.1274 -0.2076
  929BOLB   C1B22281   5.144  12.417  11.512 -0.0841  0.0755 -0.1138
  929BOLB   C2B22282   5.322  12.594  11.030 -0.5482  0.0037 -0.1525
  929BOLB   C3B22283   5.714  12.558  10.872 -0.0073  0.3625  0.1475
  929BOLB   C4B22284   5.906  12.353  10.479 -0.1010  0.1811 -0.3119
  929BOLB   NC222285   3.836  14.059  10.133  0.1378  0.3636 -0.3399
  929BOLB   PO222286   3.566  13.830  10.381 -0.0033 -0.1113  0.1135
  929BOLB   GL322287   3.780  13.925  10.714 -0.1482 -0.0193 -0.0865
  929BOLB   GL422288   3.862  13.632  10.853 -0.2192 -0.0149 -0.0123
  929BOLB   C1C22289   4.163  14.036  10.923  0.2606 -0.1015  0.0975
  929BOLB   C2C22290   4.207  14.318  11.170  0.1191 -0.1267 -0.1182
  929BOLB   C3C22291   4.568  14.446  11.290 -0.1026 -0.0726 -0.2006
  929BOLB   C4C22292   4.877  14.197  11.506 -0.0111  0.0508  0.3146
  929BOLB   C1D22293   4.148  13.695  11.256 -0.0396  0.1623 -0.2786
  929BOLB   C2D22294   4.485  13.888  11.345 -0.2448 -0.1390  0.0808
  929BOLB   C3D22295   4.874  14.010  11.079 -0.0245  0.1305  0.0889
  929BOLB   C4D22296   5.044  14.293  10.798  0.1461  0.0591  0.2688
  930BOLB   NC122297   8.260  16.812  12.619 -0.3938 -0.1510 -0.0502
  930BOLB   PO122298   8.233  17.366  12.608  0.0003 -0.2806 -0.3776
  930BOLB   GL122299   7.862  17.084  12.421  0.0344 -0.0861  0.0595
  930BOLB   GL222300   7.808  16.694  12.414 -0.2745  0.3866  0.0258
  930BOLB   C1A22301   7.473  17.250  12.226  0.0140  0.2010 -0.1020
  930BOLB   C2A22302   7.180  17.107  11.949  0.3412 -0.1214  0.4348
  930BOLB   C3A22303   6.959  16.927  11.579  0.1832  0.2286  0.1266
  930BOLB   C4A22304   6.736  16.936  11.212 -0.0675  0.0247 -0.0095
  930BOLB   C1B22305   7.634  16.872  11.967 -0.2841 -0.0697  0.1060
  930BOLB   C2B22306   7.521  17.013  11.581  0.2623 -0.0635  0.2831
  930BOLB   C3B22307   7.321  16.967  11.174 -0.3130  0.1128  0.0263
  930BOLB   C4B22308   7.275  16.815  10.727  0.3649  0.1613  0.1507
  930BOLB   NC222309   4.970  16.900   9.582 -0.0335  0.3231 -0.2087
  930BOLB   PO222310   4.838  16.549   9.807  0.0796  0.1722 -0.1016
  930BOLB   GL322311   5.280  16.634   9.961 -0.2155 -0.2389  0.1797
  930BOLB   GL422312   5.594  16.454   9.974 -0.3387 -0.0582 -0.0347
  930BOLB   C1C22313   5.682  16.889  10.203  0.2709  0.2874  0.0655
  930BOLB   C2C22314   5.951  17.074  10.466 -0.0324 -0.1003 -0.0643
  930BOLB   C3C22315   6.218  17.190  10.687  0.2115 -0.1953 -0.3220
  930BOLB   C4C22316   6.514  17.066  10.979 -0.1841  0.0714 -0.2869
  930BOLB   C1D22317   5.802  16.437  10.307 -0.2281  0.3074  0.3659
  930BOLB   C2D22318   6.086  16.628  10.646  0.1324 -0.1330  0.2250
  930BOLB   C3D22319   6.294  16.584  11.053  0.3684 -0.1106  0.2585
  930BOLB   C4D22320   6.650  16.423  11.347 -0.1377  0.1156 -0.6068
  931BOLB   NC122321   6.816  15.608  13.280  0.2685  0.0492 -0.0788
  931BOLB   PO122322   6.651  15.825  13.642 -0.2839 -0.0890  0.0304
  931BOLB   GL122323   6.354  15.847  13.234 -0.1467 -0.2391  0.0599
  931BOLB   GL222324   6.122  15.692  13.223  0.2353 -0.0008  0.0194
  931BOLB   C1A22325   6.397  15.973  12.791 -0.1352  0.0625  0.0189
  931BOLB   C2A22326   6.194  16.059  12.422 -0.1781 -0.1970 -0.0581
  931BOLB   C3A22327   6.001  15.884  12.058 -0.1604 -0.1592 -0.1929
  931BOLB   C4A22328   6.214  15.709  11.679  0.0673  0.2886 -0.4030
  931BOLB   C1B22329   5.980  15.771  12.799 -0.0451  0.2439 -0.0941
  931BOLB   C2B22330   5.759  15.743  12.451 -0.0007 -0.2801 -0.1677
  931BOLB   C3B22331   5.525  16.027  12.225  0.0110 -0.1102 -0.0863
  931BOLB   C4B22332   5.399  16.200  11.812 -0.1929 -0.1017  0.1667
  931BOLB   NC222333   4.388  15.789  10.131 -0.0574  0.0634 -0.2663
  931BOLB   PO222334   4.457  15.682   9.685 -0.3129 -0.0143  0.0658
  931BOLB   GL322335   4.836  15.633  10.009 -0.3104 -0.1401 -0.0684
  931BOLB   GL422336   5.040  15.540   9.913 -0.0330 -0.1148  0.0990
  931BOLB   C1C22337   5.103  15.750  10.439 -0.0235  0.2714 -0.2100
  931BOLB   C2C22338   5.468  15.705  10.766  0.3217 -0.3045  0.1409
  931BOLB   C3C22339   5.856  15.690  10.893 -0.1265  0.1030  0.1745
  931BOLB   C4C22340   6.162  15.694  11.195 -0.2456  0.2121  0.0239
  931BOLB   C1D22341   5.386  15.449  10.123  0.1042  0.1185 -0.3717
  931BOLB   C2D22342   5.768  15.446  10.444  0.2423  0.0913 -0.1832
  931BOLB   C3D22343   6.009  15.229  10.792 -0.1413  0.0748  0.2305
  931BOLB   C4D22344   6.269  15.115  11.104 -0.2547 -0.0546 -0.1338
  932BOLB   NC122345   8.896  14.904  11.816 -0.4488  0.2183 -0.0017
  932BOLB   PO122346   8.502  14.765  12.180 -0.3091 -0.3766 -0.1912
  932BOLB   GL122347   8.397  14.809  11.688 -0.2434  0.2043 -0.1098
  932BOLB   GL222348   8.586  14.562  11.496 -0.1550  0.1464 -0.4055
  932BOLB   C1A22349   8.200  14.974  11.282 -0.1020 -0.0537  0.0366
  932BOLB   C2A22350   8.244  14.968  10.836  0.2950  0.0982  0.2060
  932BOLB   C3A22351   8.125  15.265  10.528 -0.0791 -0.1028 -0.2563
  932BOLB   C4A22352   8.001  15.284  10.137 -0.0094  0.1369 -0.0297
  932BOLB   C1B22353   8.555  14.666  11.044  0.1421  0.1910  0.1542
  932BOLB   C2B22354   8.506  14.686  10.567 -0.0633 -0.1956 -0.2554
  932BOLB   C3B22355   8.553  14.690  10.181 -0.2369  0.0190 -0.1918
  932BOLB   C4B22356   8.604  14.824   9.761  0.1390  0.1701  0.2462
  932BOLB   NC222357   7.356  15.757   7.865 -0.4138  0.2421  0.1631
  932BOLB   PO222358   7.040  15.725   8.123 -0.3759 -0.1244 -0.1938
  932BOLB   GL322359   7.144  15.509   8.439 -0.0589 -0.3769  0.1572
  932BOLB   GL422360   7.495  15.633   8.355  0.0214 -0.1492 -0.1017
  932BOLB   C1C22361   7.306  15.688   8.827  0.1548 -0.0746 -0.1968
  932BOLB   C2C22362   7.418  15.801   9.262  0.0393  0.2867  0.3550
  932BOLB   C3C22363   7.575  15.875   9.748  0.1259 -0.1407  0.0287
  932BOLB   C4C22364   7.787  15.538   9.970 -0.3383 -0.2755  0.1599
  932BOLB   C1D22365   7.799  15.712   8.595 -0.0729 -0.0537  0.0882
  932BOLB   C2D22366   8.037  15.687   8.922  0.0876  0.0916  0.0099
  932BOLB   C3D22367   8.167  15.399   9.223  0.1417  0.0740 -0.1874
  932BOLB   C4D22368   7.870  15.322   9.515 -0.1184  0.0585  0.0996
  933BOLB   NC122369   8.090  20.109  13.232 -0.2208  0.4875  0.1150
  933BOLB   PO122370   7.827  19.850  13.266  0.1872 -0.3752 -0.2413
  933BOLB   GL122371   7.493  19.812  13.133 -0.0535 -0.0782  0.0349
  933BOLB   GL222372   7.422  19.505  13.252 -0.0660  0.0785 -0.1278
  933BOLB   C1A22373   7.238  20.179  13.203 -0.0127  0.0103 -0.0912
  933BOLB   C2A22374   7.075  20.588  12.988  0.0089 -0.1256  0.0942
  933BOLB   C3A22375   7.279  20.903  12.763  0.1478 -0.0385 -0.1358
  933BOLB   C4A22376   7.161  21.330  12.534  0.2153  0.0326  0.1276
  933BOLB   C1B22377   7.041  19.692  13.045  0.0240 -0.2308  0.1213
  933BOLB   C2B22378   6.875  19.756  12.498 -0.4099 -0.0535  0.0560
  933BOLB   C3B22379   6.888  19.755  12.093  0.3919 -0.2754  0.1056
  933BOLB   C4B22380   6.675  19.965  11.755  0.1849 -0.2473 -0.0409
  933BOLB   NC222381   4.981  21.537  11.943  0.1171 -0.1115  0.1980
  933BOLB   PO222382   5.109  21.759  11.704 -0.3517  0.3810 -0.1378
  933BOLB   GL322383   5.388  21.407  11.620 -0.0502  0.1594 -0.0103
  933BOLB   GL422384   5.157  21.182  11.637 -0.2751  0.1533 -0.0235
  933BOLB   C1C22385   5.777  21.203  11.640  0.1269 -0.0705 -0.1185
  933BOLB   C2C22386   6.174  21.333  11.622 -0.0393  0.2053 -0.0147
  933BOLB   C3C22387   6.657  21.302  11.801 -0.0886 -0.1081 -0.0836
  933BOLB   C4C22388   6.927  21.234  12.185  0.2312  0.1903 -0.0069
  933BOLB   C1D22389   5.424  20.950  11.923  0.1274 -0.2522 -0.0322
  933BOLB   C2D22390   5.742  20.708  12.077 -0.2354 -0.1217 -0.3378
  933BOLB   C3D22391   6.146  20.703  12.351 -0.1254  0.0758  0.1281
  933BOLB   C4D22392   6.541  20.438  12.420  0.1506 -0.0468  0.1016
  934BOLB   NC122393   7.187  23.756  12.911  0.0756  0.1224 -0.3302
  934BOLB   PO122394   7.628  23.488  12.715  0.0227 -0.0501 -0.0613
  934BOLB   GL122395   7.894  23.586  12.421 -0.3150  0.1356  0.0135
  934BOLB   GL222396   7.968  23.290  12.291  0.1788 -0.0006  0.2179
  934BOLB   C1A22397   8.026  23.686  11.964  0.1978 -0.0289 -0.0421
  934BOLB   C2A22398   8.187  23.770  11.514 -0.0047  0.0307 -0.1984
  934BOLB   C3A22399   8.403  23.842  11.176 -0.0442  0.0563  0.3078
  934BOLB   C4A22400   8.484  23.609  10.775  0.3358 -0.0425 -0.1968
  934BOLB   C1B22401   7.686  23.276  12.028  0.0631 -0.0652 -0.0232
  934BOLB   C2B22402   7.538  23.084  11.700  0.1082 -0.1174 -0.2638
  934BOLB   C3B22403   7.710  22.753  11.623 -0.2325  0.2779 -0.1503
  934BOLB   C4B22404   8.031  22.878  11.883  0.1409  0.3167 -0.0303
  934BOLB   NC222405   7.020  24.999  10.584  0.1362 -0.2118 -0.0862
  934BOLB   PO222406   7.543  25.141  10.565  0.2442 -0.0221  0.3018
  934BOLB   GL322407   7.824  24.827  10.469  0.3452  0.1356  0.0901
  934BOLB   GL422408   8.128  24.921  10.227  0.3465 -0.0403  0.0982
  934BOLB   C1C22409   7.652  24.464  10.380 -0.2621 -0.1293 -0.0872
  934BOLB   C2C22410   7.775  24.073  10.265  0.0807  0.0937 -0.3013
  934BOLB   C3C22411   7.923  23.741  10.100  0.0757 -0.0809 -0.2696
  934BOLB   C4C22412   8.317  23.516  10.367  0.1857 -0.0406 -0.1752
  934BOLB   C1D22413   8.394  24.795   9.870  0.4633  0.3138  0.2552
  934BOLB   C2D22414   8.766  24.791   9.682  0.1293  0.0922 -0.2287
  934BOLB   C3D22415   9.124  24.504   9.743  0.0886 -0.1334  0.0066
  934BOLB   C4D22416   9.490  24.641   9.859 -0.1718 -0.1883  0.1393
  935BOLB   NC122417   7.849  18.525  12.997 -0.2322 -0.3283  0.0873
  935BOLB   PO122418   7.690  18.142  12.862 -0.1828  0.0702  0.0502
  935BOLB   GL122419   7.362  18.429  13.043  0.0045  0.0129  0.3182
  935BOLB   GL222420   7.340  18.743  13.006  0.0313  0.3192  0.3144
  935BOLB   C1A22421   6.863  18.616  12.989 -0.3685 -0.0334  0.1104
  935BOLB   C2A22422   6.587  18.720  12.655  0.0627  0.0041  0.2522
  935BOLB   C3A22423   6.208  18.929  12.588 -0.1244 -0.3341 -0.0456
  935BOLB   C4A22424   5.871  19.090  12.482 -0.2430 -0.0349 -0.1729
  935BOLB   C1B22425   7.151  18.805  12.609  0.0776 -0.0209  0.0646
  935BOLB   C2B22426   6.899  18.946  12.278  0.1242  0.2526  0.1829
  935BOLB   C3B22427   6.475  18.929  12.093  0.3265  0.1531  0.0546
  935BOLB   C4B22428   6.205  18.607  11.961  0.1009 -0.0511 -0.1326
  935BOLB   NC222429   4.495  18.488  10.852 -0.1360  0.2718  0.0160
  935BOLB   PO222430   4.904  18.442  10.769 -0.2211 -0.4411 -0.1059
  935BOLB   GL322431   5.263  18.513  10.827  0.1875 -0.0386  0.1670
  935BOLB   GL422432   5.189  18.827  10.828  0.1709  0.0419 -0.1268
  935BOLB   C1C22433   5.608  18.481  11.202  0.2276 -0.1058  0.1805
  935BOLB   C2C22434   5.757  18.715  11.528  0.1536  0.1422 -0.1187
  935BOLB   C3C22435   5.535  18.693  11.933  0.2374 -0.1193 -0.1049
  935BOLB   C4C22436   5.537  19.016  12.345 -0.2715 -0.2627  0.1391
  935BOLB   C1D22437   5.156  19.259  11.010 -0.1610 -0.3017  0.1048
  935BOLB   C2D22438   5.226  19.486  11.426 -0.0136 -0.0239  0.0036
  935BOLB   C3D22439   5.156  19.573  11.844 -0.1703  0.2051  0.0882
  935BOLB   C4D22440   5.196  19.563  12.289 -0.0230  0.2855 -0.0620
  936BOLB   NC122441   8.506  19.091  13.145  0.1773  0.2324 -0.1059
  936BOLB   PO122442   8.367  19.108  12.737  0.1921  0.1800  0.2909
  936BOLB   GL122443   8.028  19.319  12.386 -0.3874 -0.3010 -0.1558
  936BOLB   GL222444   7.989  19.346  12.034 -0.0645 -0.1597  0.2026
  936BOLB   C1A22445   7.659  19.556  12.363 -0.0534 -0.3172  0.0397
  936BOLB   C2A22446   7.379  19.791  12.059  0.2274  0.2027 -0.0581
  936BOLB   C3A22447   7.206  20.119  11.652 -0.1962 -0.4256 -0.3302
  936BOLB   C4A22448   6.854  20.325  11.455 -0.2483 -0.3588 -0.1315
  936BOLB   C1B22449   7.758  19.604  11.683 -0.0283  0.1847 -0.2952
  936BOLB   C2B22450   7.755  19.596  11.205 -0.0584  0.2564 -0.0939
  936BOLB   C3B22451   7.910  19.964  10.893  0.0130  0.0253 -0.2121
  936BOLB   C4B22452   7.899  20.325  10.627 -0.2665 -0.0288  0.0082
  936BOLB   NC222453   5.557  20.586   9.964  0.1886  0.0458  0.2848
  936BOLB   PO222454   5.811  20.480   9.480  0.1994  0.2254  0.2244
  936BOLB   GL322455   6.254  20.379   9.645 -0.0262 -0.3631  0.1794
  936BOLB   GL422456   6.452  20.238   9.615 -0.2080 -0.1647 -0.1342
  936BOLB   C1C22457   6.400  20.387  10.110  0.1194 -0.3623  0.3100
  936BOLB   C2C22458   6.655  20.680  10.339 -0.2754  0.0257  0.0917
  936BOLB   C3C22459   6.938  20.656  10.608  0.0222  0.0872 -0.1240
  936BOLB   C4C22460   6.846  20.624  11.101 -0.0560 -0.1733  0.0468
  936BOLB   C1D22461   6.797  20.403   9.887 -0.0576 -0.1193  0.2980
  936BOLB   C2D22462   6.851  20.207  10.323  0.0806  0.0768  0.0592
  936BOLB   C3D22463   7.258  20.116  10.663  0.0651  0.1401  0.3449
  936BOLB   C4D22464   7.687  19.942  10.458 -0.0075 -0.3269  0.1734
  937BOLB   NC122465   4.620  15.183  15.717 -0.0695 -0.0690 -0.1255
  937BOLB   PO122466   4.994  15.332  15.518  0.3448 -0.1389  0.2839
  937BOLB   GL122467   4.771  15.500  15.131 -0.0722  0.1428  0.1659
  937BOLB   GL222468   4.378  15.556  15.014 -0.1806  0.0423  0.1970
  937BOLB   C1A22469   4.667  15.991  15.049 -0.1085 -0.2326 -0.3019
  937BOLB   C2A22470   4.569  16.302  14.680  0.1734 -0.1893 -0.0700
  937BOLB   C3A22471   4.211  16.515  14.418 -0.2227  0.0587  0.0475
  937BOLB   C4A22472   3.892  16.400  14.006 -0.2331 -0.0513  0.2925
  937BOLB   C1B22473   4.145  15.960  15.091 -0.3222  0.4190 -0.1309
  937BOLB   C2B22474   4.334  16.341  15.078 -0.0154 -0.2206 -0.3673
  937BOLB   C3B22475   4.650  16.688  15.185 -0.0194 -0.0267  0.0734
  937BOLB   C4B22476   4.718  17.102  15.522 -0.2252  0.1373  0.0375
  937BOLB   NC222477   2.766  17.748  12.194 -0.1873  0.0313 -0.2976
  937BOLB   PO222478   2.647  17.528  12.570 -0.1405  0.4591  0.2569
  937BOLB   GL322479   2.984  17.269  12.758 -0.1121 -0.1125 -0.0581
  937BOLB   GL422480   3.319  17.183  12.499 -0.0103 -0.0109  0.2352
  937BOLB   C1C22481   3.174  16.916  12.928  0.1760  0.2313  0.1693
  937BOLB   C2C22482   3.587  16.749  12.938  0.2346 -0.0740 -0.1978
  937BOLB   C3C22483   3.725  16.433  13.265 -0.1181 -0.2857  0.0048
  937BOLB   C4C22484   3.668  16.375  13.649 -0.1106 -0.1167  0.2136
  937BOLB   C1D22485   3.735  17.143  12.654 -0.2458 -0.1740  0.1898
  937BOLB   C2D22486   4.120  17.142  12.735  0.0580  0.0963  0.1689
  937BOLB   C3D22487   4.499  17.001  12.778  0.1012  0.2070  0.2744
  937BOLB   C4D22488   4.886  17.149  12.587  0.0356  0.2980 -0.0121
  938BOLB   NC122489   5.612  16.625  15.419 -0.1496 -0.0323  0.3162
  938BOLB   PO122490   5.655  16.999  15.128 -0.3499 -0.1094 -0.3347
  938BOLB   GL122491   5.721  17.462  15.179 -0.0839 -0.0145  0.0325
  938BOLB   GL222492   5.475  17.454  14.918  0.0120 -0.0406 -0.2788
  938BOLB   C1A22493   5.397  17.883  15.073  0.1670 -0.1668 -0.1644
  938BOLB   C2A22494   5.396  18.053  14.577 -0.0622  0.3991  0.0399
  938BOLB   C3A22495   5.602  18.156  14.092 -0.0609 -0.0847 -0.2024
  938BOLB   C4A22496   5.609  18.580  13.925  0.0536  0.2695 -0.3178
  938BOLB   C1B22497   5.106  17.670  14.743  0.2809 -0.1964 -0.2372
  938BOLB   C2B22498   4.901  17.965  14.482  0.1441  0.1636 -0.0718
  938BOLB   C3B22499   4.668  18.040  14.203 -0.3939 -0.0629  0.2503
  938BOLB   C4B22500   4.390  18.181  14.160 -0.2629 -0.0198  0.1557
  938BOLB   NC222501   2.961  19.724  13.545 -0.1387  0.1836  0.2384
  938BOLB   PO222502   3.024  19.284  13.641  0.0053  0.3525  0.4391
  938BOLB   GL322503   3.446  19.226  13.651  0.0143 -0.1163  0.2064
  938BOLB   GL422504   3.497  19.159  13.902  0.0137 -0.2229  0.0698
  938BOLB   C1C22505   3.846  19.060  13.467 -0.0848  0.0702 -0.0474
  938BOLB   C2C22506   4.388  18.917  13.393  0.1531 -0.2014  0.2065
  938BOLB   C3C22507   4.784  18.773  13.411 -0.1450 -0.0579 -0.0959
  938BOLB   C4C22508   5.193  18.768  13.646 -0.1459  0.1426  0.2222
  938BOLB   C1D22509   3.730  18.795  13.945  0.1006  0.0635 -0.2620
  938BOLB   C2D22510   3.912  18.338  14.104 -0.1878 -0.3689  0.0324
  938BOLB   C3D22511   3.976  17.975  14.014  0.1561 -0.1905  0.1753
  938BOLB   C4D22512   4.288  17.660  13.984  0.1663  0.3135 -0.0149
  939BOLB   NC122513   6.406  23.876  11.785  0.3934 -0.2032 -0.0072
  939BOLB   PO122514   6.212  23.730  12.075 -0.0757  0.1849  0.2172
  939BOLB   GL122515   6.476  23.363  11.805  0.2056  0.0697 -0.0392
  939BOLB   GL222516   6.136  23.153  11.710 -0.0345  0.3509  0.3240
  939BOLB   C1A22517   6.669  22.999  11.990  0.0304  0.1441  0.0779
  939BOLB   C2A22518   6.922  22.673  11.874  0.0863 -0.2591 -0.2256
  939BOLB   C3A22519   7.254  22.613  11.607  0.0314 -0.0622 -0.0016
  939BOLB   C4A22520   7.297  22.790  11.250  0.1719  0.1870  0.1409
  939BOLB   C1B22521   6.385  22.911  11.453  0.2477  0.0557  0.0602
  939BOLB   C2B22522   6.307  22.505  11.287  0.1606 -0.0802 -0.2287
  939BOLB   C3B22523   6.641  22.148  11.260 -0.3153 -0.1562  0.2424
  939BOLB   C4B22524   6.822  21.904  11.198 -0.1672 -0.1718 -0.4688
  939BOLB   NC222525   5.992  22.960   9.585 -0.2199  0.1110  0.2247
  939BOLB   PO222526   5.867  22.584   9.695 -0.0702  0.0615  0.1076
  939BOLB   GL322527   6.033  22.263  10.081  0.0499 -0.1169  0.0817
  939BOLB   GL422528   6.162  22.031  10.341  0.1590 -0.0338 -0.2412
  939BOLB   C1C22529   6.509  22.357  10.207  0.1438  0.2875  0.3138
  939BOLB   C2C22530   6.928  22.231  10.371  0.1817 -0.0492  0.2122
  939BOLB   C3C22531   7.329  22.400  10.565  0.0917  0.1945 -0.0807
  939BOLB   C4C22532   7.425  22.700  10.780 -0.1267  0.1168  0.4238
  939BOLB   C1D22533   5.920  21.820  10.646 -0.1875  0.3437  0.2179
  939BOLB   C2D22534   5.886  21.622  10.997  0.2007 -0.0295  0.1295
  939BOLB   C3D22535   5.827  21.607  11.369  0.2265 -0.1886 -0.0742
  939BOLB   C4D22536   5.871  21.720  11.789 -0.0476 -0.0023 -0.1446
  940BOLB   NC122537   8.149  11.735  12.439  0.2215  0.4972 -0.0028
  940BOLB   PO122538   8.183  12.065  12.181 -0.2046  0.0309  0.1092
  940BOLB   GL122539   8.365  12.204  11.746 -0.1417 -0.3294 -0.1000
  940BOLB   GL222540   8.254  12.516  11.630 -0.1187  0.0926  0.0325
  940BOLB   C1A22541   8.214  12.165  11.283 -0.0566 -0.1054  0.0173
  940BOLB   C2A22542   8.155  12.229  10.817  0.3754  0.1633 -0.2397
  940BOLB   C3A22543   8.140  12.159  10.499 -0.1841  0.0108 -0.0475
  940BOLB   C4A22544   8.037  12.123  10.017 -0.4251  0.2072 -0.0337
  940BOLB   C1B22545   8.050  12.656  11.282 -0.3368 -0.0809  0.2434
  940BOLB   C2B22546   7.839  12.592  11.005 -0.1326  0.0993 -0.0093
  940BOLB   C3B22547   7.691  12.744  10.655  0.0306 -0.1205  0.0177
  940BOLB   C4B22548   7.705  13.101  10.232  0.1519  0.3529 -0.0322
  940BOLB   NC222549   8.445  12.097   7.511 -0.1334  0.1187 -0.4062
  940BOLB   PO222550   8.086  11.962   7.471 -0.1126  0.2473  0.2153
  940BOLB   GL322551   8.003  11.755   7.889  0.0105 -0.2046 -0.3940
  940BOLB   GL422552   8.356  11.714   7.947 -0.2417 -0.1051  0.0171
  940BOLB   C1C22553   8.004  11.832   8.340 -0.2704  0.0775 -0.1977
  940BOLB   C2C22554   7.940  12.060   8.703  0.5035  0.0880  0.1329
  940BOLB   C3C22555   7.736  11.928   9.109 -0.4386 -0.0897  0.0400
  940BOLB   C4C22556   7.903  12.000   9.497 -0.3629 -0.2798 -0.0249
  940BOLB   C1D22557   8.455  12.018   8.239  0.0688  0.1128 -0.0077
  940BOLB   C2D22558   8.846  12.261   8.401 -0.1041  0.1362  0.0034
  940BOLB   C3D22559   9.147  12.600   8.327 -0.2153  0.0254  0.2531
  940BOLB   C4D22560   9.337  12.903   8.328  0.0341 -0.0613 -0.2726
  941BOLB   NC122561   5.313  13.784  14.253 -0.1311  0.1699  0.1162
  941BOLB   PO122562   5.571  13.434  13.942 -0.3878 -0.1295 -0.1250
  941BOLB   GL122563   5.666  13.604  13.656  0.3404  0.1447 -0.0586
  941BOLB   GL222564   5.672  13.894  13.685 -0.3315 -0.2382  0.0524
  941BOLB   C1A22565   5.598  13.558  13.241 -0.1458  0.1257  0.0397
  941BOLB   C2A22566   5.541  13.505  12.886  0.3507 -0.2986 -0.2555
  941BOLB   C3A22567   5.493  13.135  12.625 -0.3277  0.2588  0.2155
  941BOLB   C4A22568   5.488  12.845  12.261  0.1364  0.2075  0.1128
  941BOLB   C1B22569   5.504  14.058  13.314  0.2111  0.0577  0.0039
  941BOLB   C2B22570   5.484  14.252  12.986 -0.0642  0.3734  0.0556
  941BOLB   C3B22571   5.555  14.509  12.618 -0.1616 -0.0841  0.0170
  941BOLB   C4B22572   5.445  14.648  12.232 -0.0122  0.2606  0.0738
  941BOLB   NC222573   3.549  12.991  11.446 -0.2378 -0.2563 -0.1192
  941BOLB   PO222574   3.706  13.149  11.002 -0.0986 -0.0783 -0.0755
  941BOLB   GL322575   4.117  13.003  11.017 -0.1697  0.0256 -0.0908
  941BOLB   GL422576   4.109  13.174  10.725  0.1671 -0.0256 -0.2307
  941BOLB   C1C22577   4.532  12.949  10.893  0.0182 -0.0056 -0.1355
  941BOLB   C2C22578   4.930  12.978  11.107  0.0443 -0.3237 -0.0472
  941BOLB   C3C22579   5.107  12.945  11.417  0.0493  0.2226 -0.0687
  941BOLB   C4C22580   5.315  12.797  11.860  0.0520  0.1560  0.4548
  941BOLB   C1D22581   4.376  13.358  10.746  0.0937  0.1046  0.1305
  941BOLB   C2D22582   4.530  13.722  10.795  0.1299 -0.0777 -0.0819
  941BOLB   C3D22583   4.542  14.229  10.738 -0.0105 -0.0293  0.0220
  941BOLB   C4D22584   4.382  14.659  10.718  0.2078 -0.0103  0.0808
  942BOLB   NC122585   8.937  21.968  12.780 -0.1356  0.0837  0.1992
  942BOLB   PO122586   8.984  22.004  12.304 -0.1412  0.1403  0.1136
  942BOLB   GL122587   8.891  21.806  11.893  0.0432 -0.2544 -0.4332
  942BOLB   GL222588   8.942  21.466  11.927  0.2034 -0.0488 -0.0867
  942BOLB   C1A22589   8.879  21.753  11.425 -0.1234  0.1504 -0.1690
  942BOLB   C2A22590   8.864  21.903  11.039 -0.1764 -0.0005 -0.2678
  942BOLB   C3A22591   8.594  22.166  10.869 -0.0881 -0.0602 -0.0721
  942BOLB   C4A22592   8.611  21.822  10.432  0.1387 -0.0669  0.0613
  942BOLB   C1B22593   8.782  21.238  11.630  0.1207  0.0392  0.1456
  942BOLB   C2B22594   8.487  21.163  11.395 -0.0514  0.0479  0.1948
  942BOLB   C3B22595   8.175  21.287  11.032 -0.3193 -0.0152 -0.4945
  942BOLB   C4B22596   7.845  21.110  10.932  0.2393  0.0722 -0.1518
  942BOLB   NC222597   7.532  21.491   8.208 -0.1035 -0.1334  0.3826
  942BOLB   PO222598   7.891  21.731   8.468 -0.1509  0.2817 -0.0585
  942BOLB   GL322599   8.219  21.705   8.604 -0.1375 -0.0764 -0.1454
  942BOLB   GL422600   8.295  22.018   8.562  0.0417  0.1267  0.0939
  942BOLB   C1C22601   8.385  21.747   8.923  0.0507 -0.0916  0.3495
  942BOLB   C2C22602   8.427  21.716   9.293  0.3854  0.1345 -0.1471
  942BOLB   C3C22603   8.612  21.684   9.742 -0.0942  0.0279 -0.2826
  942BOLB   C4C22604   8.689  21.910  10.047 -0.1398 -0.1278  0.4221
  942BOLB   C1D22605   8.670  22.100   8.781  0.1261  0.3240  0.0959
  942BOLB   C2D22606   8.873  22.332   9.024  0.0357 -0.2108  0.1308
  942BOLB   C3D22607   9.343  22.213   9.176  0.2113 -0.1265  0.2018
  942BOLB   C4D22608   9.726  22.171   8.920 -0.1015 -0.1812  0.3880
  943BOLB   NC122609   6.357  16.514  13.992  0.1284  0.2562 -0.2088
  943BOLB   PO122610   6.371  16.868  14.272 -0.0505 -0.0800  0.3886
  943BOLB   GL122611   6.097  17.180  14.275 -0.0404  0.0631 -0.0407
  943BOLB   GL222612   6.243  17.445  14.226 -0.1447  0.0823  0.5890
  943BOLB   C1A22613   5.619  17.187  14.148  0.1674 -0.0029 -0.0781
  943BOLB   C2A22614   5.422  17.271  13.798  0.0748  0.2829  0.2652
  943BOLB   C3A22615   5.215  17.561  13.554 -0.3703  0.0964 -0.0049
  943BOLB   C4A22616   5.347  17.973  13.413  0.0878  0.0317 -0.1571
  943BOLB   C1B22617   5.941  17.508  13.977  0.1095 -0.1145 -0.0400
  943BOLB   C2B22618   5.678  17.832  13.750 -0.0505  0.2096 -0.1999
  943BOLB   C3B22619   5.799  18.142  13.571 -0.0768 -0.2986  0.1683
  943BOLB   C4B22620   5.876  18.564  13.512  0.3801 -0.0053  0.1370
  943BOLB   NC222621   3.536  19.721  12.119  0.3434  0.0929  0.0579
  943BOLB   PO222622   3.820  19.737  12.426 -0.2351  0.0537 -0.1042
  943BOLB   GL322623   4.035  19.355  12.603  0.2481 -0.0582 -0.0865
  943BOLB   GL422624   4.064  19.156  12.918  0.1858  0.0106  0.1717
  943BOLB   C1C22625   4.487  19.285  12.707 -0.3433 -0.0942  0.1275
  943BOLB   C2C22626   4.963  18.998  12.621 -0.2245  0.0558  0.1857
  943BOLB   C3C22627   5.168  18.840  13.061 -0.1932  0.0585 -0.1527
  943BOLB   C4C22628   5.433  18.444  13.371  0.0398  0.0126  0.3503
  943BOLB   C1D22629   4.228  19.437  13.311  0.3697  0.0344 -0.0342
  943BOLB   C2D22630   4.474  19.452  13.700 -0.1131  0.0724 -0.2541
  943BOLB   C3D22631   4.835  19.441  14.022 -0.2238 -0.3218 -0.0551
  943BOLB   C4D22632   5.203  19.441  13.984 -0.3968  0.0332  0.0779
  944BOLB   NC122633   5.935  17.306  14.776 -0.2816  0.4752  0.4400
  944BOLB   PO122634   5.928  16.845  14.635 -0.2609  0.4184 -0.2662
  944BOLB   GL122635   5.576  16.873  14.495 -0.0415 -0.0060 -0.0075
  944BOLB   GL222636   5.380  16.945  14.755 -0.3631 -0.0736  0.3169
  944BOLB   C1A22637   5.287  16.864  14.161  0.0396  0.1618  0.0620
  944BOLB   C2A22638   4.964  17.024  13.885 -0.1994 -0.0522  0.1483
  944BOLB   C3A22639   4.826  17.238  13.520 -0.2134  0.3142 -0.0984
  944BOLB   C4A22640   4.776  17.379  13.043 -0.1579 -0.0378  0.2972
  944BOLB   C1B22641   5.201  17.228  14.453  0.1461 -0.0107 -0.0199
  944BOLB   C2B22642   4.967  17.524  14.131  0.4289  0.1556  0.1565
  944BOLB   C3B22643   4.765  17.712  13.745  0.0470 -0.0812 -0.0311
  944BOLB   C4B22644   4.770  17.785  13.372 -0.3087 -0.0791  0.0604
  944BOLB   NC222645   3.660  18.882  11.427  0.0723 -0.0094 -0.1434
  944BOLB   PO222646   3.573  18.390  11.173  0.0803  0.1590 -0.0804
  944BOLB   GL322647   3.751  18.112  11.512  0.4631  0.2719  0.1927
  944BOLB   GL422648   3.658  17.864  11.773 -0.4096 -0.2726 -0.0224
  944BOLB   C1C22649   4.166  18.070  11.740  0.0030 -0.1753  0.0550
  944BOLB   C2C22650   4.137  17.712  12.027  0.1947 -0.1187 -0.4569
  944BOLB   C3C22651   4.467  17.800  12.370  0.1108 -0.0745 -0.2102
  944BOLB   C4C22652   4.482  17.497  12.620 -0.0201  0.2096  0.0382
  944BOLB   C1D22653   3.568  18.001  12.190 -0.2078  0.2799  0.0947
  944BOLB   C2D22654   3.547  18.105  12.686  0.1588 -0.1334 -0.0576
  944BOLB   C3D22655   3.873  18.462  12.804 -0.0964 -0.0890  0.0266
  944BOLB   C4D22656   4.073  18.653  13.202  0.1348  0.3775  0.0128
  945BOLB   NC122657   6.847  10.097  11.998 -0.3017  0.2201  0.1334
  945BOLB   PO122658   7.197  10.051  11.830 -0.2492  0.1039 -0.3670
  945BOLB   GL122659   7.388   9.905  11.407  0.1560 -0.1368 -0.1807
  945BOLB   GL222660   7.311  10.231  11.238  0.1692 -0.1767 -0.2108
  945BOLB   C1A22661   7.711   9.761  11.071  0.2449 -0.2779  0.0803
  945BOLB   C2A22662   7.989   9.956  10.902  0.2194  0.0811  0.2522
  945BOLB   C3A22663   8.401  10.111  10.752  0.0243 -0.0964 -0.0814
  945BOLB   C4A22664   8.510  10.225  10.431  0.0087  0.0675  0.1464
  945BOLB   C1B22665   7.270  10.260  10.867  0.0410 -0.0390  0.2232
  945BOLB   C2B22666   7.014  10.320  10.460 -0.2785  0.1543  0.1079
  945BOLB   C3B22667   7.012  10.632  10.116  0.0300 -0.2741 -0.2825
  945BOLB   C4B22668   7.228  10.956  10.088 -0.0390 -0.0475  0.0575
  945BOLB   NC222669   6.775   8.885   9.123 -0.1439  0.0758 -0.0570
  945BOLB   PO222670   7.119   8.671   9.155  0.0135 -0.0550  0.1808
  945BOLB   GL322671   7.359   8.993   9.127 -0.0688  0.2061 -0.0189
  945BOLB   GL422672   7.645   8.933   8.992 -0.1543 -0.0771 -0.0461
  945BOLB   C1C22673   7.678   9.180   9.424  0.0418 -0.1294 -0.1070
  945BOLB   C2C22674   7.976   9.440   9.664 -0.0750 -0.1334 -0.0534
  945BOLB   C3C22675   8.055   9.883   9.836  0.0894 -0.1859  0.2946
  945BOLB   C4C22676   8.388  10.117  10.041  0.0294  0.2154 -0.2042
  945BOLB   C1D22677   8.046   9.092   8.861 -0.0301  0.3431 -0.0142
  945BOLB   C2D22678   8.261   9.389   8.652 -0.4029 -0.1867  0.1242
  945BOLB   C3D22679   8.406   9.745   8.888 -0.1050  0.0527  0.0667
  945BOLB   C4D22680   8.688   9.922   8.975  0.0419  0.2262 -0.3245
  946BOLB   NC122681   9.302  11.564  11.641  0.0802  0.1496 -0.1393
  946BOLB   PO122682   9.087  11.154  11.794 -0.2258 -0.0741  0.1569
  946BOLB   GL122683   9.046  11.218  11.375 -0.0598  0.0690  0.0056
  946BOLB   GL222684   8.846  11.452  11.381  0.0537  0.1144 -0.1323
  946BOLB   C1A22685   8.979  10.999  10.994 -0.1756  0.1114  0.0758
  946BOLB   C2A22686   9.015  10.977  10.591  0.1302  0.0568 -0.0754
  946BOLB   C3A22687   9.129  11.163  10.242 -0.0087  0.0679  0.1688
  946BOLB   C4A22688   8.887  10.881   9.972 -0.2325  0.4407 -0.1087
  946BOLB   C1B22689   8.812  11.568  11.019  0.0428 -0.0315  0.1516
  946BOLB   C2B22690   8.930  11.619  10.534  0.2231  0.1825  0.0459
  946BOLB   C3B22691   8.975  11.629  10.081  0.1841  0.1164 -0.1508
  946BOLB   C4B22692   8.907  11.817   9.626 -0.2966  0.1197 -0.4297
  946BOLB   NC222693   9.302  10.498   7.173 -0.0267  0.4403  0.0160
  946BOLB   PO222694   9.209  10.456   7.590  0.1598  0.0650 -0.0627
  946BOLB   GL322695   9.091  10.491   7.965  0.0989 -0.1803  0.1629
  946BOLB   GL422696   8.861  10.217   8.036  0.3342  0.1981  0.1199
  946BOLB   C1C22697   9.225  10.582   8.386 -0.3101 -0.2398  0.1328
  946BOLB   C2C22698   9.155  10.712   8.774 -0.2342 -0.3781  0.0005
  946BOLB   C3C22699   9.006  10.713   9.244  0.1353 -0.0562  0.2436
  946BOLB   C4C22700   8.754  10.820   9.598 -0.2286  0.1863 -0.0327
  946BOLB   C1D22701   8.801  10.482   8.425 -0.1561  0.2163  0.1155
  946BOLB   C2D22702   8.743  10.460   8.957  0.0561 -0.4253 -0.0104
  946BOLB   C3D22703   8.662  10.383   9.347  0.1189 -0.3110 -0.1307
  946BOLB   C4D22704   8.248  10.265   9.534 -0.0305 -0.2353  0.0399
  947BOLB   NC122705   7.323  14.208  13.259 -0.0378  0.1678 -0.0248
  947BOLB   PO122706   7.012  14.158  13.023  0.0110 -0.1063  0.0351
  947BOLB   GL122707   6.971  14.183  12.602 -0.2320 -0.0650  0.1966
  947BOLB   GL222708   6.837  13.980  12.528  0.0500 -0.0479  0.2033
  947BOLB   C1A22709   6.708  14.452  12.202 -0.0788  0.1915  0.0396
  947BOLB   C2A22710   6.599  14.566  11.810  0.2059  0.0745  0.1699
  947BOLB   C3A22711   6.308  14.770  11.641  0.0344 -0.2534  0.2391
  947BOLB   C4A22712   6.069  15.059  11.565  0.0082  0.2297 -0.0427
  947BOLB   C1B22713   6.845  13.817  12.101  0.0874 -0.2474 -0.1459
  947BOLB   C2B22714   6.803  13.947  11.737 -0.1771  0.2789 -0.2612
  947BOLB   C3B22715   6.619  13.728  11.367  0.1291 -0.1004 -0.2916
  947BOLB   C4B22716   6.769  13.647  10.955  0.0796  0.2418 -0.2568
  947BOLB   NC222717   4.663  15.262   9.713 -0.0172 -0.0071  0.1605
  947BOLB   PO222718   4.293  15.109   9.725 -0.2767  0.1062  0.0526
  947BOLB   GL322719   4.454  15.290  10.190 -0.0359 -0.4104  0.2844
  947BOLB   GL422720   4.454  15.078  10.481  0.1102  0.1618 -0.1595
  947BOLB   C1C22721   4.904  15.287  10.408 -0.0494 -0.2742  0.2215
  947BOLB   C2C22722   5.286  15.199  10.572  0.0168  0.0263 -0.0420
  947BOLB   C3C22723   5.540  15.252  10.992 -0.3673  0.0258 -0.0766
  947BOLB   C4C22724   5.814  15.348  11.272  0.3297 -0.0983  0.1067
  947BOLB   C1D22725   4.762  14.958  10.787 -0.0662 -0.0381 -0.2776
  947BOLB   C2D22726   5.038  14.720  11.122 -0.0008  0.2863 -0.2482
  947BOLB   C3D22727   5.343  14.348  11.176 -0.2100 -0.0000  0.1692
  947BOLB   C4D22728   5.370  13.908  11.333 -0.0219  0.0519  0.0690
  948BOLB   NC122729   6.100   9.715   8.466 -0.2883 -0.1098  0.4963
  948BOLB   PO122730   6.271  10.060   8.644 -0.4943  0.1955 -0.0589
  948BOLB   GL122731   6.571  10.191   8.901 -0.2484 -0.2639 -0.1337
  948BOLB   GL222732   6.856  10.044   9.042  0.2449  0.1747 -0.2071
  948BOLB   C1A22733   6.972  10.486   8.956  0.1358  0.0201  0.1484
  948BOLB   C2A22734   7.112  10.917   9.054 -0.2296 -0.0277 -0.2617
  948BOLB   C3A22735   6.968  11.210   9.308 -0.1864 -0.0696 -0.0991
  948BOLB   C4A22736   6.730  11.432   9.608  0.0909 -0.3626 -0.0398
  948BOLB   C1B22737   7.064  10.174   9.439  0.0651  0.2711  0.1206
  948BOLB   C2B22738   7.313  10.335   9.858 -0.1422  0.2935 -0.2817
  948BOLB   C3B22739   7.570  10.581  10.044 -0.0512 -0.1264 -0.0799
  948BOLB   C4B22740   7.706  10.979   9.856  0.1565 -0.0895  0.1089
  948BOLB   NC222741   4.880  10.799  10.581 -0.0143  0.0399  0.0515
  948BOLB   PO222742   4.856  10.883  10.215 -0.4300 -0.2271 -0.0562
  948BOLB   GL322743   5.099  11.188  10.222  0.1217 -0.0254  0.1024
  948BOLB   GL422744   5.051  11.418  10.531  0.2599 -0.1619  0.1993
  948BOLB   C1C22745   5.324  11.508  10.022  0.1118  0.0666 -0.2772
  948BOLB   C2C22746   5.703  11.668   9.910 -0.3352  0.1288 -0.1990
  948BOLB   C3C22747   6.082  11.823   9.842 -0.0901 -0.1095 -0.1084
  948BOLB   C4C22748   6.462  11.786   9.715  0.0707  0.0637 -0.0441
  948BOLB   C1D22749   5.495  11.397  10.554 -0.1946 -0.2395 -0.1701
  948BOLB   C2D22750   5.693  11.198  10.259 -0.2366 -0.1580  0.2441
  948BOLB   C3D22751   5.920  11.249   9.823  0.2592 -0.0311 -0.4180
  948BOLB   C4D22752   6.194  11.483   9.470 -0.1090 -0.3179  0.1648
  949BOLB   NC122753   6.790  16.222  13.868 -0.0455 -0.2202  0.0824
  949BOLB   PO122754   6.526  16.333  13.565 -0.3581 -0.4213 -0.4686
  949BOLB   GL122755   6.326  16.578  13.257  0.2219 -0.0032  0.1057
  949BOLB   GL222756   6.134  16.649  13.497  0.1141 -0.0775 -0.1557
  949BOLB   C1A22757   6.209  16.592  12.957 -0.1269  0.0190  0.0465
  949BOLB   C2A22758   6.031  16.598  12.612 -0.1058 -0.0218  0.0431
  949BOLB   C3A22759   5.979  16.396  12.140 -0.0742  0.0644  0.1443
  949BOLB   C4A22760   5.766  16.591  11.830  0.0391  0.2937  0.4163
  949BOLB   C1B22761   5.752  16.655  13.253  0.0316  0.3693  0.0281
  949BOLB   C2B22762   5.422  16.545  13.084  0.1354  0.1058  0.0063
  949BOLB   C3B22763   5.130  16.419  12.828  0.4344  0.3315 -0.1487
  949BOLB   C4B22764   4.660  16.268  12.643 -0.0413  0.0834 -0.0497
  949BOLB   NC222765   4.260  17.297  10.425  0.2770  0.0248 -0.0447
  949BOLB   PO222766   4.299  16.967  10.327  0.3309  0.1344 -0.0403
  949BOLB   GL322767   4.518  16.946  10.699  0.4801  0.1307 -0.0229
  949BOLB   GL422768   4.582  16.672  10.686 -0.1552  0.1146  0.0895
  949BOLB   C1C22769   4.922  17.051  10.935  0.0244 -0.0244 -0.1501
  949BOLB   C2C22770   5.204  16.760  11.042 -0.1928  0.3564 -0.2046
  949BOLB   C3C22771   5.631  16.603  11.206  0.0255  0.3380 -0.0155
  949BOLB   C4C22772   5.906  16.639  11.504 -0.1660 -0.1914  0.0840
  949BOLB   C1D22773   4.840  16.448  10.906  0.0001 -0.2388  0.3514
  949BOLB   C2D22774   5.042  16.169  11.246 -0.0905  0.3834 -0.1295
  949BOLB   C3D22775   5.216  15.734  11.421  0.0422  0.0144  0.0771
  949BOLB   C4D22776   5.365  15.337  11.536 -0.1520 -0.2238 -0.3670
  950BOLB   NC122777   7.590  10.216  12.040 -0.0529 -0.2455  0.0132
  950BOLB   PO122778   7.921  10.547  11.952  0.1169  0.0599  0.0382
  950BOLB   GL122779   8.081  10.663  11.567  0.1281 -0.1068 -0.1137
  950BOLB   GL222780   7.764  10.711  11.425 -0.0815 -0.3306 -0.0424
  950BOLB   C1A22781   8.459  10.683  11.295  0.2029 -0.1036  0.2180
  950BOLB   C2A22782   8.478  10.704  10.780  0.0500  0.1533 -0.4349
  950BOLB   C3A22783   8.534  10.768  10.370 -0.1141  0.5504  0.0067
  950BOLB   C4A22784   8.444  10.636   9.933  0.1007  0.1329  0.1779
  950BOLB   C1B22785   8.037  10.833  11.076  0.2162  0.2430  0.0661
  950BOLB   C2B22786   8.046  10.484  10.699 -0.1037 -0.1305  0.0068
  950BOLB   C3B22787   8.015  10.695  10.508  0.0733  0.0466 -0.0586
  950BOLB   C4B22788   8.019  11.105  10.356  0.2515 -0.0780 -0.1019
  950BOLB   NC222789   7.087   9.709   8.782  0.1617 -0.2876 -0.0462
  950BOLB   PO222790   6.998   9.410   8.966  0.1841 -0.2312  0.4178
  950BOLB   GL322791   7.341   9.589   9.178  0.1280  0.5021 -0.3184
  950BOLB   GL422792   7.661   9.437   8.977 -0.1473 -0.1747 -0.1423
  950BOLB   C1C22793   7.477   9.793   9.515 -0.1984 -0.2084 -0.1102
  950BOLB   C2C22794   7.693  10.099   9.535  0.0547 -0.0703 -0.0852
  950BOLB   C3C22795   7.816  10.452   9.642 -0.3279  0.2800  0.1158
  950BOLB   C4C22796   8.097  10.553   9.897  0.0744 -0.0423  0.0523
  950BOLB   C1D22797   8.045   9.519   9.154  0.5568 -0.2634  0.2553
  950BOLB   C2D22798   8.308   9.806   9.372 -0.0115 -0.0378  0.3348
  950BOLB   C3D22799   8.659   9.944   9.562 -0.0926 -0.3120 -0.1587
  950BOLB   C4D22800   9.014  10.031   9.496  0.1047 -0.0124 -0.1707
  951BOLB   NC122801   7.252  14.889  13.644 -0.0806 -0.0267  0.1906
  951BOLB   PO122802   7.038  14.583  13.384 -0.0705 -0.3128  0.2649
  951BOLB   GL122803   6.935  14.658  12.964 -0.1742  0.1231  0.4273
  951BOLB   GL222804   7.305  14.576  12.793 -0.1170  0.0817 -0.2712
  951BOLB   C1A22805   6.672  14.744  12.581  0.4174 -0.0112 -0.0456
  951BOLB   C2A22806   6.377  14.926  12.215 -0.1929 -0.1593 -0.1602
  951BOLB   C3A22807   6.138  15.266  11.997 -0.2468 -0.1646  0.3014
  951BOLB   C4A22808   5.799  15.458  11.860  0.1599 -0.0289  0.0701
  951BOLB   C1B22809   7.152  14.610  12.375  0.0259 -0.2166 -0.0980
  951BOLB   C2B22810   6.957  14.842  12.032  0.2312 -0.0004  0.1227
  951BOLB   C3B22811   6.839  15.074  11.633  0.1674  0.1588  0.1371
  951BOLB   C4B22812   6.587  15.288  11.520  0.1352 -0.1660 -0.1315
  951BOLB   NC222813   4.522  16.375   9.445 -0.1829  0.1847  0.0206
  951BOLB   PO222814   4.508  16.139   9.803  0.0209  0.0019  0.3817
  951BOLB   GL322815   4.844  16.156  10.109  0.2407 -0.1992 -0.1289
  951BOLB   GL422816   4.831  16.435  10.305  0.1053 -0.0165  0.2973
  951BOLB   C1C22817   5.330  16.219  10.412  0.0372  0.1501 -0.2029
  951BOLB   C2C22818   5.437  16.252  10.895 -0.0051  0.1277  0.0884
  951BOLB   C3C22819   5.661  16.061  11.312 -0.1245 -0.1411  0.1357
  951BOLB   C4C22820   5.723  15.730  11.602  0.5313 -0.0285  0.0764
  951BOLB   C1D22821   5.206  16.705  10.426 -0.1367 -0.1948  0.2698
  951BOLB   C2D22822   5.593  16.666  10.698 -0.1429 -0.1588 -0.1398
  951BOLB   C3D22823   5.898  16.972  11.033  0.1123 -0.0710 -0.0745
  951BOLB   C4D22824   6.268  17.104  11.426  0.0846  0.2415  0.1574
  952BOLB   NC122825   6.109  14.113  14.532 -0.0166 -0.1738  0.2863
  952BOLB   PO122826   5.643  14.210  14.459  0.1997 -0.2751  0.1456
  952BOLB   GL122827   5.502  14.404  14.107 -0.2232 -0.0966 -0.2049
  952BOLB   GL222828   5.260  14.627  14.023  0.1958 -0.0593  0.0967
  952BOLB   C1A22829   5.664  14.409  13.760 -0.1557 -0.0569  0.2081
  952BOLB   C2A22830   5.346  14.668  13.388  0.2832 -0.2535  0.1052
  952BOLB   C3A22831   5.124  14.637  12.920 -0.2121 -0.3273  0.0732
  952BOLB   C4A22832   4.821  14.673  12.584  0.0247 -0.0332 -0.2342
  952BOLB   C1B22833   5.198  14.248  13.715  0.3973 -0.4252  0.1214
  952BOLB   C2B22834   4.984  14.263  13.281 -0.0156 -0.3070  0.0355
  952BOLB   C3B22835   4.687  14.464  13.031 -0.0530 -0.1944  0.0225
  952BOLB   C4B22836   4.368  14.848  13.006  0.3233 -0.2566  0.2669
  952BOLB   NC222837   3.204  15.610  10.203  0.2524 -0.1495 -0.0580
  952BOLB   PO222838   3.300  15.516  10.561 -0.1636  0.2789  0.2374
  952BOLB   GL322839   3.704  15.484  10.775 -0.3844 -0.0516  0.2796
  952BOLB   GL422840   3.907  15.136  10.826 -0.2243 -0.0077  0.3616
  952BOLB   C1C22841   3.847  15.542  11.212 -0.0549 -0.0818  0.1553
  952BOLB   C2C22842   4.230  15.417  11.494 -0.0720 -0.0696 -0.0390
  952BOLB   C3C22843   4.403  15.166  11.771  0.4175 -0.0919 -0.1921
  952BOLB   C4C22844   4.585  14.872  12.115 -0.3469  0.0355  0.1402
  952BOLB   C1D22845   4.351  15.405  10.971  0.0336 -0.3142 -0.3140
  952BOLB   C2D22846   4.646  15.645  10.787 -0.0301 -0.0244 -0.1019
  952BOLB   C3D22847   4.994  15.613  10.961 -0.3333 -0.0084  0.0725
  952BOLB   C4D22848   5.049  15.220  11.135 -0.1079  0.2929  0.0127
  953BOLB   NC122849   7.765  14.468  12.609 -0.0171  0.2569 -0.0698
  953BOLB   PO122850   7.860  14.137  12.308 -0.0375  0.1271  0.0128
  953BOLB   GL122851   7.711  14.313  11.976 -0.0597 -0.0230 -0.0912
  953BOLB   GL222852   7.734  14.095  11.769  0.1302 -0.1757 -0.2810
  953BOLB   C1A22853   7.462  14.458  11.582 -0.0581 -0.0033  0.2706
  953BOLB   C2A22854   7.399  14.495  11.152 -0.0028  0.2346  0.1643
  953BOLB   C3A22855   7.562  14.482  10.734  0.0789 -0.3133  0.1233
  953BOLB   C4A22856   7.639  14.742  10.482  0.0806 -0.4536 -0.2100
  953BOLB   C1B22857   7.708  14.098  11.332 -0.1322 -0.0533  0.0845
  953BOLB   C2B22858   7.548  13.994  10.921  0.0098  0.3737  0.0637
  953BOLB   C3B22859   7.196  14.063  10.673  0.2543 -0.2182  0.0648
  953BOLB   C4B22860   6.777  14.150  10.368 -0.1794  0.2120 -0.3039
  953BOLB   NC222861   6.512  14.533   7.985  0.1040 -0.2500  0.2341
  953BOLB   PO222862   6.927  14.875   8.186  0.0392  0.0177  0.2302
  953BOLB   GL322863   6.925  15.110   8.572 -0.2050  0.3428  0.2483
  953BOLB   GL422864   6.669  15.255   8.677 -0.2698  0.2831  0.1866
  953BOLB   C1C22865   7.039  15.279   9.068 -0.0947 -0.0834  0.2325
  953BOLB   C2C22866   7.325  15.255   9.500  0.0859  0.1257  0.0230
  953BOLB   C3C22867   7.553  15.044   9.714  0.0662 -0.1570 -0.3490
  953BOLB   C4C22868   7.548  14.817  10.023  0.2258 -0.2331 -0.0354
  953BOLB   C1D22869   6.782  15.661   8.902 -0.0621 -0.2647 -0.5473
  953BOLB   C2D22870   7.037  16.086   8.883  0.0638 -0.1115  0.3085
  953BOLB   C3D22871   7.271  16.285   9.153 -0.1092 -0.2963 -0.1501
  953BOLB   C4D22872   7.617  16.311   9.489  0.1543 -0.2526  0.2991
  954BOLB   NC122873   2.589  17.736  16.464 -0.0405 -0.1172 -0.0214
  954BOLB   PO122874   2.567  17.618  16.949 -0.0301  0.2185 -0.1659
  954BOLB   GL122875   2.939  17.483  16.825  0.3579 -0.2893  0.0384
  954BOLB   GL222876   3.066  17.129  16.831  0.0312 -0.0314  0.3269
  954BOLB   C1A22877   3.215  17.609  16.536  0.3830  0.4562  0.0345
  954BOLB   C2A22878   3.313  17.962  16.211 -0.1903 -0.1970 -0.1019
  954BOLB   C3A22879   3.445  18.038  15.771  0.1288  0.0113  0.0338
  954BOLB   C4A22880   3.671  17.974  15.427 -0.2354  0.2751 -0.1566
  954BOLB   C1B22881   3.485  17.147  16.895 -0.1362  0.2802  0.1340
  954BOLB   C2B22882   3.717  17.144  17.175  0.1714  0.0451 -0.2221
  954BOLB   C3B22883   4.092  16.860  17.326  0.0104  0.1855 -0.0167
  954BOLB   C4B22884   4.544  16.842  17.181 -0.1072  0.1440 -0.2319
  954BOLB   NC222885   2.013  17.710  14.352  0.0565  0.0441  0.1104
  954BOLB   PO222886   2.058  17.803  13.933  0.3283  0.0663 -0.0036
  954BOLB   GL322887   2.323  17.492  14.028  0.2496 -0.1771 -0.0501
  954BOLB   GL422888   2.436  17.270  13.687 -0.2973 -0.2358  0.0488
  954BOLB   C1C22889   2.795  17.407  14.099 -0.1969  0.1512  0.3302
  954BOLB   C2C22890   3.206  17.401  14.331  0.2201 -0.1331  0.0683
  954BOLB   C3C22891   3.425  17.612  14.684 -0.1969  0.0904 -0.1033
  954BOLB   C4C22892   3.466  17.862  15.033 -0.2911  0.0243 -0.1253
  954BOLB   C1D22893   2.727  17.476  13.570  0.0562 -0.1331 -0.1644
  954BOLB   C2D22894   3.200  17.607  13.342  0.1080  0.1642 -0.0979
  954BOLB   C3D22895   3.603  17.630  12.997 -0.2135  0.0362 -0.1903
  954BOLB   C4D22896   4.033  17.487  13.060 -0.0288  0.0890  0.1886
  955BOLB   NC122897   6.656  11.740  12.889  0.0735  0.0475  0.1838
  955BOLB   PO122898   6.955  11.644  12.458 -0.0353 -0.0852  0.3107
  955BOLB   GL122899   7.101  11.784  12.078 -0.3465  0.1524 -0.0509
  955BOLB   GL222900   7.378  11.680  11.959  0.0867 -0.3583 -0.3045
  955BOLB   C1A22901   7.122  12.016  11.658 -0.0475  0.4660  0.2729
  955BOLB   C2A22902   7.085  12.087  11.227 -0.4221 -0.2047  0.0773
  955BOLB   C3A22903   7.198  12.150  10.829 -0.2588 -0.0562  0.0567
  955BOLB   C4A22904   7.242  12.160  10.444 -0.2183  0.2996 -0.0058
  955BOLB   C1B22905   7.538  11.492  11.652 -0.0652 -0.0970 -0.1138
  955BOLB   C2B22906   7.638  11.254  11.306  0.0309  0.1996  0.2741
  955BOLB   C3B22907   7.623  11.149  10.970  0.1175 -0.5714 -0.1992
  955BOLB   C4B22908   7.997  11.207  10.831 -0.2444 -0.3652  0.0291
  955BOLB   NC222909   5.616  12.134   8.740  0.1947  0.1130  0.1406
  955BOLB   PO222910   5.860  11.821   8.535  0.1231  0.4010  0.0688
  955BOLB   GL322911   6.246  11.893   8.776  0.2807 -0.0145  0.3841
  955BOLB   GL422912   6.104  12.142   8.923 -0.0622  0.0855  0.0807
  955BOLB   C1C22913   6.490  11.912   9.209 -0.1389 -0.0721  0.1144
  955BOLB   C2C22914   6.892  11.852   9.360 -0.1878  0.1248 -0.1298
  955BOLB   C3C22915   6.960  11.864   9.838  0.0436 -0.0874 -0.2811
  955BOLB   C4C22916   6.980  11.846  10.236 -0.3070 -0.0735  0.1282
  955BOLB   C1D22917   6.130  12.345   9.349  0.0930 -0.1241 -0.2047
  955BOLB   C2D22918   6.445  12.298   9.645 -0.0479  0.2203  0.1437
  955BOLB   C3D22919   6.408  12.715   9.882  0.0061  0.0850  0.2252
  955BOLB   C4D22920   6.297  13.050  10.052 -0.0356  0.0960  0.0854
  956BOLB   NC122921   8.086  18.854  12.455 -0.1678 -0.0135 -0.2042
  956BOLB   PO122922   8.083  18.460  12.536  0.0542  0.1053  0.0722
  956BOLB   GL122923   7.589  18.572  12.570 -0.1460  0.2512 -0.1212
  956BOLB   GL222924   7.302  18.254  12.570 -0.1846 -0.2947 -0.2031
  956BOLB   C1A22925   7.279  18.560  12.193 -0.0521 -0.1757  0.0926
  956BOLB   C2A22926   6.781  18.572  11.985 -0.1014  0.0833 -0.1192
  956BOLB   C3A22927   6.518  18.497  11.630  0.0109  0.1087 -0.0838
  956BOLB   C4A22928   6.275  18.407  11.299 -0.2069  0.1318 -0.1505
  956BOLB   C1B22929   6.858  18.242  12.579  0.2738  0.2845 -0.0071
  956BOLB   C2B22930   6.635  18.302  12.335  0.1198  0.0735 -0.2330
  956BOLB   C3B22931   6.575  18.085  11.974  0.2279 -0.0697  0.0402
  956BOLB   C4B22932   6.415  17.966  11.682 -0.0369 -0.0489 -0.1169
  956BOLB   NC222933   4.718  19.554   9.622  0.0112 -0.0387  0.1800
  956BOLB   PO222934   4.851  19.609  10.135  0.0402  0.0802 -0.0489
  956BOLB   GL322935   5.204  19.631  10.334 -0.0435  0.1383  0.3910
  956BOLB   GL422936   5.526  19.602  10.165 -0.1637  0.1605 -0.0888
  956BOLB   C1C22937   5.382  19.478  10.648 -0.2054  0.0095 -0.2139
  956BOLB   C2C22938   5.669  19.157  10.706 -0.1430  0.0520 -0.2477
  956BOLB   C3C22939   5.745  18.710  10.755 -0.1738 -0.3455 -0.4728
  956BOLB   C4C22940   6.092  18.482  10.941 -0.1053 -0.0125  0.0452
  956BOLB   C1D22941   5.944  19.555  10.236 -0.0427 -0.0070  0.1585
  956BOLB   C2D22942   6.297  19.365  10.104  0.0958  0.4883 -0.0732
  956BOLB   C3D22943   6.465  19.212   9.773 -0.3692 -0.0891 -0.0826
  956BOLB   C4D22944   6.765  19.128   9.407 -0.2031 -0.4390 -0.0153
  957BOLB   NC122945   6.094  12.000  12.848  0.0706  0.1424 -0.3745
  957BOLB   PO122946   5.678  12.031  12.749 -0.2396  0.0067 -0.2605
  957BOLB   GL122947   5.752  12.298  12.522 -0.0709  0.1280 -0.0901
  957BOLB   GL222948   5.458  12.342  12.391 -0.1836  0.1744 -0.0993
  957BOLB   C1A22949   5.883  12.535  12.143  0.4062 -0.3424 -0.0979
  957BOLB   C2A22950   5.841  12.846  11.809 -0.1402  0.2993 -0.3282
  957BOLB   C3A22951   6.043  12.926  11.528  0.0815  0.1002 -0.3297
  957BOLB   C4A22952   6.277  12.871  11.061  0.0956 -0.0356 -0.0080
  957BOLB   C1B22953   5.142  12.494  12.482  0.0433  0.0308 -0.2123
  957BOLB   C2B22954   4.888  12.801  12.321 -0.0433 -0.0985 -0.1076
  957BOLB   C3B22955   5.076  13.158  12.263  0.2952 -0.6929 -0.1201
  957BOLB   C4B22956   5.187  13.592  12.013 -0.1962 -0.1498  0.1277
  957BOLB   NC222957   5.784  12.935   8.756  0.0505  0.4215 -0.0353
  957BOLB   PO222958   5.404  12.838   9.021  0.0759 -0.2820  0.0168
  957BOLB   GL322959   5.757  13.064   9.258 -0.2852  0.0375  0.0372
  957BOLB   GL422960   6.068  12.930   9.150 -0.1246 -0.1459 -0.3309
  957BOLB   C1C22961   5.969  13.186   9.641 -0.4775  0.3115 -0.0710
  957BOLB   C2C22962   5.964  13.461  10.041  0.1043  0.3657 -0.1180
  957BOLB   C3C22963   6.191  13.352  10.428 -0.0527  0.0391 -0.0778
  957BOLB   C4C22964   6.378  13.134  10.753 -0.3089  0.0316  0.0141
  957BOLB   C1D22965   6.393  12.764   9.405  0.0219 -0.0066  0.1166
  957BOLB   C2D22966   6.827  12.788   9.533 -0.1161  0.3489 -0.0055
  957BOLB   C3D22967   6.942  12.777   9.951 -0.1409  0.1503 -0.0448
  957BOLB   C4D22968   7.206  12.683  10.303 -0.0159 -0.0494 -0.0810
  958BOLB   NC122969   9.257  19.984  12.010  0.0464  0.0308  0.2804
  958BOLB   PO122970   9.206  20.333  12.165  0.0387 -0.0763  0.3032
  958BOLB   GL122971   8.792  20.274  11.898 -0.0683 -0.1099 -0.2385
  958BOLB   GL222972   8.785  19.979  11.748 -0.2837  0.2503  0.1656
  958BOLB   C1A22973   8.298  20.257  11.816 -0.1183  0.3774  0.0209
  958BOLB   C2A22974   7.973  20.453  11.517  0.0657 -0.1772 -0.5424
  958BOLB   C3A22975   7.806  20.409  11.141  0.5612 -0.0646  0.0013
  958BOLB   C4A22976   7.381  20.443  10.984  0.2183  0.4502 -0.0148
  958BOLB   C1B22977   8.545  20.040  11.380  0.0537 -0.1001  0.2088
  958BOLB   C2B22978   8.352  20.227  11.012  0.2461  0.2776  0.0230
  958BOLB   C3B22979   8.443  19.952  10.706 -0.2846  0.1654 -0.1818
  958BOLB   C4B22980   8.198  19.940  10.414  0.3212 -0.1421 -0.3427
  958BOLB   NC222981   6.133  21.138   8.945  0.0283  0.3096  0.1533
  958BOLB   PO222982   6.423  21.394   9.296  0.0555 -0.1217 -0.2850
  958BOLB   GL322983   6.847  21.562   9.442 -0.0916  0.2363  0.1043
  958BOLB   GL422984   7.093  21.501   9.221 -0.3860  0.1157 -0.3992
  958BOLB   C1C22985   7.145  21.646   9.830 -0.1738  0.3311 -0.1500
  958BOLB   C2C22986   7.339  21.253  10.042  0.1158  0.1747 -0.2059
  958BOLB   C3C22987   7.477  21.022  10.427 -0.2826 -0.1923 -0.0192
  958BOLB   C4C22988   7.418  20.621  10.571 -0.0440 -0.3297  0.0062
  958BOLB   C1D22989   7.511  21.573   9.434 -0.3153  0.0177 -0.0783
  958BOLB   C2D22990   8.010  21.486   9.474 -0.0470 -0.0849 -0.1287
  958BOLB   C3D22991   8.410  21.245   9.725  0.0071 -0.2270  0.5804
  958BOLB   C4D22992   8.834  21.307   9.527  0.1101 -0.3667 -0.0534
  959BOLB   NC122993   7.267  12.004  12.500 -0.0382  0.1064  0.0143
  959BOLB   PO122994   7.695  12.034  12.327 -0.4313  0.1473  0.2143
  959BOLB   GL122995   7.670  12.063  11.974 -0.0999 -0.0511  0.0456
  959BOLB   GL222996   7.894  12.069  11.830  0.0376 -0.0425  0.0903
  959BOLB   C1A22997   7.558  12.223  11.506  0.1653  0.3516 -0.4365
  959BOLB   C2A22998   7.636  12.105  11.069  0.1690 -0.0761 -0.0748
  959BOLB   C3A22999   7.685  12.198  10.613  0.2712 -0.0555  0.3533
  959BOLB   C4A23000   7.725  12.391  10.233 -0.2464  0.0102 -0.1048
  959BOLB   C1B23001   7.878  11.808  11.421  0.1000  0.0795  0.1675
  959BOLB   C2B23002   7.802  11.659  11.027  0.1558 -0.0182  0.4520
  959BOLB   C3B23003   7.901  11.689  10.635  0.0077  0.0719 -0.1335
  959BOLB   C4B23004   8.055  11.646  10.182  0.0452  0.0965  0.0655
  959BOLB   NC223005   6.828  13.015   7.974  0.3535 -0.0797 -0.0365
  959BOLB   PO223006   6.761  12.577   8.027  0.2323  0.1172 -0.1595
  959BOLB   GL323007   6.736  12.802   8.467  0.3100  0.1828  0.2398
  959BOLB   GL423008   6.877  13.080   8.533 -0.0183 -0.2555 -0.3381
  959BOLB   C1C23009   6.910  12.669   8.843 -0.0770  0.0845 -0.3705
  959BOLB   C2C23010   7.269  12.708   9.140 -0.2538 -0.3621  0.1801
  959BOLB   C3C23011   7.327  12.688   9.536  0.0772  0.1962 -0.1311
  959BOLB   C4C23012   7.550  12.642   9.931 -0.0783  0.1352 -0.0714
  959BOLB   C1D23013   7.319  12.748   8.642  0.0093  0.3035 -0.3255
  959BOLB   C2D23014   7.628  12.547   8.815  0.0034  0.3916  0.2160
  959BOLB   C3D23015   7.699  12.462   9.211  0.1136  0.1682  0.0107
  959BOLB   C4D23016   7.845  12.427   9.643 -0.0727  0.3421  0.2631
  960BOLB   NC123017   3.442  14.859  15.810 -0.1258 -0.1750  0.2133
  960BOLB   PO123018   3.463  14.918  15.303  0.2255 -0.1579 -0.1150
  960BOLB   GL123019   3.248  15.229  15.144  0.2575  0.1603  0.0391
  960BOLB   GL223020   3.137  15.109  14.819 -0.1082  0.4593  0.3763
  960BOLB   C1A23021   3.228  15.647  14.889 -0.0510  0.0102 -0.0518
  960BOLB   C2A23022   3.451  15.732  14.497 -0.2114 -0.2142  0.0154
  960BOLB   C3A23023   3.851  15.899  14.236 -0.2232 -0.2971  0.1525
  960BOLB   C4A23024   3.968  15.908  13.770  0.0360  0.4270 -0.0361
  960BOLB   C1B23025   3.487  15.278  14.625 -0.3436  0.3776 -0.0293
  960BOLB   C2B23026   3.848  15.177  14.396  0.1804  0.0708  0.3205
  960BOLB   C3B23027   4.037  15.467  14.014  0.3183  0.1262  0.0553
  960BOLB   C4B23028   4.154  15.486  13.538  0.5389  0.1348 -0.1134
  960BOLB   NC223029   2.187  15.001  12.845  0.0789 -0.2224  0.0892
  960BOLB   PO223030   2.270  15.385  12.717  0.3315  0.2449  0.2026
  960BOLB   GL323031   2.598  15.346  12.884 -0.0915 -0.1200  0.1390
  960BOLB   GL423032   2.663  15.053  12.998  0.1475 -0.4430  0.0153
  960BOLB   C1C23033   3.017  15.390  12.830 -0.1002 -0.2982  0.4007
  960BOLB   C2C23034   3.244  15.765  12.756  0.1502 -0.1859 -0.0210
  960BOLB   C3C23035   3.650  15.851  12.929 -0.0500  0.0021 -0.1319
  960BOLB   C4C23036   3.945  16.008  13.322  0.1376 -0.1362 -0.1279
  960BOLB   C1D23037   2.947  14.786  12.759 -0.1404  0.0061 -0.1754
  960BOLB   C2D23038   3.325  14.548  12.789 -0.2516 -0.2620 -0.2890
  960BOLB   C3D23039   3.553  14.169  12.920 -0.1529 -0.1136 -0.3045
  960BOLB   C4D23040   3.689  14.079  13.352 -0.0331 -0.0493  0.3029
  961BOLB   NC123041   9.187   8.547  11.806 -0.0128 -0.1670 -0.0195
  961BOLB   PO123042   9.287   9.037  11.897  0.0783  0.1585 -0.0323
  961BOLB   GL123043   8.976   9.284  11.725 -0.0283  0.2997  0.0308
  961BOLB   GL223044   8.617   9.284  11.690 -0.1432  0.1202 -0.0814
  961BOLB   C1A23045   9.039   9.657  11.493 -0.1711 -0.2291 -0.5685
  961BOLB   C2A23046   9.134   9.783  11.123 -0.3247  0.1326  0.0307
  961BOLB   C3A23047   8.873   9.947  10.822  0.3899 -0.0377 -0.2745
  961BOLB   C4A23048   8.839   9.877  10.292  0.2552  0.0285  0.1146
  961BOLB   C1B23049   8.879   9.234  11.274 -0.3094  0.1930 -0.0345
  961BOLB   C2B23050   9.183   9.301  11.060  0.0299  0.2547 -0.1521
  961BOLB   C3B23051   9.179   9.520  10.616  0.1795  0.2527 -0.0888
  961BOLB   C4B23052   9.359   9.599  10.183  0.1468  0.0765  0.2823
  961BOLB   NC223053   7.209   8.263   9.394  0.0876  0.0918 -0.1125
  961BOLB   PO223054   7.308   8.406   9.758  0.1129  0.1504 -0.2118
  961BOLB   GL323055   7.476   8.733   9.554 -0.0653  0.1429 -0.1411
  961BOLB   GL423056   7.678   8.807   9.733  0.0984  0.0360  0.1187
  961BOLB   C1C23057   7.955   8.787   9.327  0.1538 -0.0329  0.0053
  961BOLB   C2C23058   8.258   9.021   9.499  0.1436 -0.2337  0.5084
  961BOLB   C3C23059   8.479   9.357   9.690  0.1177  0.1153  0.2582
  961BOLB   C4C23060   8.702   9.690   9.945  0.0922 -0.0800  0.1541
  961BOLB   C1D23061   7.567   9.191   9.949  0.2476 -0.0322 -0.1433
  961BOLB   C2D23062   7.623   9.639   9.988  0.1179  0.2866  0.0616
  961BOLB   C3D23063   7.648   9.990  10.024  0.2089  0.1604 -0.0989
  961BOLB   C4D23064   7.950  10.133  10.368 -0.0358  0.0012 -0.0938
  962BOLB   NC123065   7.639  18.479  13.456  0.0775  0.0658  0.2874
  962BOLB   PO123066   7.576  18.994  13.367 -0.0382  0.1895  0.2130
  962BOLB   GL123067   7.098  19.052  13.465 -0.0259 -0.1770  0.3282
  962BOLB   GL223068   7.022  19.109  13.129  0.2622  0.2122 -0.0667
  962BOLB   C1A23069   6.703  18.929  13.638 -0.3105  0.0690  0.0726
  962BOLB   C2A23070   6.445  18.676  13.439 -0.2249  0.2663 -0.0408
  962BOLB   C3A23071   6.146  18.660  13.078  0.0998  0.0390 -0.2573
  962BOLB   C4A23072   5.758  18.671  12.878 -0.3489 -0.1098 -0.0461
  962BOLB   C1B23073   6.494  19.043  13.027  0.4638  0.1398  0.0485
  962BOLB   C2B23074   6.178  19.203  13.025  0.0584  0.0366 -0.1263
  962BOLB   C3B23075   6.025  19.605  12.888 -0.1125 -0.1837 -0.2564
  962BOLB   C4B23076   6.038  19.984  12.671  0.0704 -0.2989  0.2164
  962BOLB   NC223077   3.611  18.635  10.736 -0.2031 -0.0355 -0.2698
  962BOLB   PO223078   4.002  18.840  11.080 -0.0451  0.0651 -0.0882
  962BOLB   GL323079   4.513  18.758  11.274  0.1403 -0.2015  0.4555
  962BOLB   GL423080   4.868  18.690  11.181  0.5365  0.0300  0.0096
  962BOLB   C1C23081   4.805  18.865  11.684 -0.1890  0.0644  0.0691
  962BOLB   C2C23082   4.992  18.660  11.992  0.0339  0.0611  0.2189
  962BOLB   C3C23083   5.234  18.648  12.381  0.0943 -0.1040  0.3368
  962BOLB   C4C23084   5.464  18.677  12.704  0.0540 -0.0230 -0.2256
  962BOLB   C1D23085   5.213  18.897  11.343 -0.0930  0.1936  0.1120
  962BOLB   C2D23086   5.579  19.012  11.167  0.2917 -0.1415  0.2091
  962BOLB   C3D23087   6.005  18.956  11.091 -0.2122  0.0659  0.2849
  962BOLB   C4D23088   6.447  18.933  11.278 -0.0635  0.0541 -0.0770
  963BOLB   NC123089   7.700  13.564  12.749  0.2535 -0.1679  0.3110
  963BOLB   PO123090   7.283  13.671  12.628 -0.2161  0.1356  0.1182
  963BOLB   GL123091   7.402  13.786  12.230  0.1228 -0.1644 -0.1799
  963BOLB   GL223092   7.315  14.136  12.230  0.0629  0.1074  0.0926
  963BOLB   C1A23093   7.382  13.772  11.814  0.2588 -0.2592 -0.2321
  963BOLB   C2A23094   7.201  14.039  11.415  0.0245  0.4057 -0.1094
  963BOLB   C3A23095   6.931  14.169  11.112  0.0794  0.4755  0.1758
  963BOLB   C4A23096   6.914  14.499  10.777  0.0626 -0.0222  0.1002
  963BOLB   C1B23097   7.194  14.350  11.940 -0.0630 -0.4419  0.1243
  963BOLB   C2B23098   6.996  14.582  11.470 -0.1271  0.0263  0.3816
  963BOLB   C3B23099   6.714  14.771  11.134 -0.3003 -0.1270  0.2134
  963BOLB   C4B23100   6.721  15.002  10.858 -0.3054 -0.0515  0.1658
  963BOLB   NC223101   5.121  14.394   8.950 -0.0092  0.4161 -0.1263
  963BOLB   PO223102   5.435  14.621   9.022 -0.0021 -0.1009  0.3573
  963BOLB   GL323103   5.927  14.624   9.102 -0.1824 -0.1193  0.3899
  963BOLB   GL423104   6.124  14.608   8.825  0.2272  0.0352  0.2757
  963BOLB   C1C23105   6.228  14.475   9.461  0.1999 -0.0152  0.1571
  963BOLB   C2C23106   6.468  14.708   9.559  0.1732  0.0209 -0.2120
  963BOLB   C3C23107   6.633  14.847   9.964  0.4582  0.2073 -0.0454
  963BOLB   C4C23108   6.772  14.711  10.378 -0.1467  0.0837 -0.2634
  963BOLB   C1D23109   6.517  14.772   8.845  0.0030 -0.2789  0.1805
  963BOLB   C2D23110   6.894  14.688   9.253  0.3534 -0.2293  0.0016
  963BOLB   C3D23111   7.262  14.620   9.547  0.0990  0.2280 -0.1652
  963BOLB   C4D23112   7.741  14.627   9.484 -0.3026 -0.4082  0.3833
  964BOLB   NC123113   5.299  15.707  18.014  0.4106 -0.1736 -0.0837
  964BOLB   PO123114   5.018  15.953  17.934 -0.1203  0.2988  0.3954
  964BOLB   GL123115   4.710  16.085  17.587  0.1292 -0.1055  0.0344
  964BOLB   GL223116   4.347  16.070  17.676 -0.2405 -0.1365  0.3434
  964BOLB   C1A23117   4.884  16.258  17.091 -0.0028 -0.1656 -0.1103
  964BOLB   C2A23118   4.870  16.674  16.806  0.3418 -0.3233  0.2232
  964BOLB   C3A23119   4.569  16.729  16.472 -0.1893  0.1678 -0.1725
  964BOLB   C4A23120   4.252  16.939  16.357  0.0251  0.0908 -0.1029
  964BOLB   C1B23121   4.378  16.420  17.373  0.1123  0.0420  0.0735
  964BOLB   C2B23122   4.307  16.480  16.899  0.3849  0.1713  0.0629
  964BOLB   C3B23123   4.201  16.379  16.364 -0.3270  0.1583  0.1018
  964BOLB   C4B23124   4.090  16.588  15.994 -0.0635  0.0745  0.0279
  964BOLB   NC223125   2.322  17.724  15.272 -0.3379  0.3690  0.0019
  964BOLB   PO223126   2.277  17.336  15.045 -0.2869 -0.1635 -0.0163
  964BOLB   GL323127   2.569  17.107  15.207  0.1028  0.3010 -0.1085
  964BOLB   GL423128   2.741  17.253  15.488  0.1194  0.1409  0.1073
  964BOLB   C1C23129   2.936  16.878  15.113  0.0697  0.0394 -0.0949
  964BOLB   C2C23130   3.342  16.872  15.319 -0.2747 -0.0713 -0.2204
  964BOLB   C3C23131   3.705  17.134  15.611  0.1268 -0.1589 -0.2291
  964BOLB   C4C23132   3.970  17.035  15.972 -0.2148 -0.0032  0.2627
  964BOLB   C1D23133   3.114  17.284  15.326  0.2529  0.0065  0.2780
  964BOLB   C2D23134   3.579  17.519  15.327  0.2200  0.0376 -0.2106
  964BOLB   C3D23135   3.996  17.394  15.234 -0.0962  0.3751 -0.0566
  964BOLB   C4D23136   4.372  17.186  15.109 -0.0992  0.0758  0.2002
  965BOLB   NC123137   8.404  16.159  12.103  0.4626  0.2327 -0.0892
  965BOLB   PO123138   8.307  16.595  12.201 -0.1630  0.0793  0.0478
  965BOLB   GL123139   8.282  16.605  11.822 -0.2345 -0.1966 -0.0007
  965BOLB   GL223140   8.405  16.868  11.755 -0.1137 -0.1579 -0.0452
  965BOLB   C1A23141   8.136  16.401  11.390  0.2760  0.0574 -0.2358
  965BOLB   C2A23142   8.073  16.337  10.965 -0.1079 -0.0757 -0.0033
  965BOLB   C3A23143   8.010  16.059  10.648 -0.2445 -0.0536 -0.2820
  965BOLB   C4A23144   7.739  16.159  10.191 -0.1681 -0.1390  0.4082
  965BOLB   C1B23145   7.991  17.043  11.670 -0.1126 -0.0220  0.0069
  965BOLB   C2B23146   7.872  16.979  11.252  0.1280 -0.1402  0.0130
  965BOLB   C3B23147   7.758  17.058  10.803 -0.3409  0.1421 -0.2558
  965BOLB   C4B23148   7.346  17.359  10.809 -0.2960  0.0703 -0.0984
  965BOLB   NC223149   5.856  17.635   8.995  0.1455  0.0918 -0.1452
  965BOLB   PO223150   5.894  17.447   8.689  0.3840  0.0711 -0.0476
  965BOLB   GL323151   6.259  17.340   8.912 -0.4551 -0.0931 -0.3750
  965BOLB   GL423152   5.953  17.088   9.054  0.2587 -0.1269  0.0442
  965BOLB   C1C23153   6.626  17.158   9.135  0.1560 -0.1429 -0.0145
  965BOLB   C2C23154   7.029  16.971   9.415  0.1061  0.0747  0.1524
  965BOLB   C3C23155   7.293  16.672   9.618  0.0694 -0.0854  0.0607
  965BOLB   C4C23156   7.445  16.395   9.932 -0.2070 -0.0958 -0.1995
  965BOLB   C1D23157   6.207  17.122   9.381  0.1628  0.1936  0.1880
  965BOLB   C2D23158   6.547  17.018   9.696 -0.0658  0.0328  0.0337
  965BOLB   C3D23159   6.890  16.905   9.979  0.0698  0.0397  0.0468
  965BOLB   C4D23160   7.308  16.805  10.179 -0.0035  0.0327  0.0544
  966BOLB   NC123161   8.704  20.728  13.060  0.1225 -0.1680  0.0145
  966BOLB   PO123162   8.473  20.435  12.834  0.3115 -0.1448  0.4827
  966BOLB   GL123163   8.029  20.539  12.730 -0.2833 -0.1666 -0.3244
  966BOLB   GL223164   7.760  20.553  12.993  0.0398  0.2295  0.0430
  966BOLB   C1A23165   7.817  20.739  12.526 -0.0946  0.0897  0.0317
  966BOLB   C2A23166   7.638  21.205  12.481  0.1733 -0.1145  0.1432
  966BOLB   C3A23167   7.517  21.379  12.176  0.1346 -0.1672  0.1415
  966BOLB   C4A23168   7.455  21.253  11.803 -0.0515 -0.4462 -0.0500
  966BOLB   C1B23169   7.497  20.448  12.741  0.1356 -0.0308 -0.1938
  966BOLB   C2B23170   7.053  20.166  12.681 -0.1624 -0.1238  0.2443
  966BOLB   C3B23171   6.768  20.186  12.926 -0.1924 -0.3036 -0.1801
  966BOLB   C4B23172   6.551  20.519  12.979  0.2124  0.3085  0.0208
  966BOLB   NC223173   5.869  20.974   9.679 -0.0426 -0.3647 -0.0230
  966BOLB   PO223174   5.580  21.061  10.011 -0.2050  0.2118 -0.1292
  966BOLB   GL323175   5.870  20.977  10.264 -0.2451 -0.1636  0.1875
  966BOLB   GL423176   6.122  20.820  10.101  0.4301  0.0273 -0.0705
  966BOLB   C1C23177   6.063  21.171  10.623 -0.4573  0.1292 -0.0289
  966BOLB   C2C23178   6.342  21.314  10.959 -0.0311  0.2878  0.3896
  966BOLB   C3C23179   6.712  21.355  11.285 -0.3087  0.5262  0.2034
  966BOLB   C4C23180   7.041  21.180  11.515  0.6892  0.2043 -0.2480
  966BOLB   C1D23181   6.110  20.655  10.552  0.0114 -0.1977 -0.3379
  966BOLB   C2D23182   6.491  20.790  10.748  0.1543 -0.0611  0.0667
  966BOLB   C3D23183   6.786  21.042  10.885 -0.1483  0.3769  0.3651
  966BOLB   C4D23184   7.206  21.000  10.874 -0.2661  0.1218 -0.2693
  967BOLB   NC123185   5.891  12.659  13.593 -0.1131 -0.0166  0.3386
  967BOLB   PO123186   5.712  12.836  13.218 -0.0579  0.1096 -0.1544
  967BOLB   GL123187   5.758  12.724  12.841 -0.0161  0.5233  0.3109
  967BOLB   GL223188   5.424  12.643  12.882  0.0562  0.2816  0.1740
  967BOLB   C1A23189   5.946  12.910  12.538 -0.1922 -0.0191  0.1645
  967BOLB   C2A23190   6.074  13.150  12.136  0.2270 -0.2221 -0.0804
  967BOLB   C3A23191   5.930  13.384  11.752  0.2345 -0.0838  0.1471
  967BOLB   C4A23192   5.872  13.361  11.297 -0.5081 -0.4371 -0.1137
  967BOLB   C1B23193   5.127  12.885  12.808  0.1043 -0.2868 -0.3932
  967BOLB   C2B23194   4.923  13.324  12.716  0.0757 -0.0766 -0.2054
  967BOLB   C3B23195   5.124  13.617  12.481 -0.0590 -0.0237 -0.0743
  967BOLB   C4B23196   5.460  13.881  12.566  0.1938  0.0299 -0.0439
  967BOLB   NC223197   4.404  13.713   8.932  0.3595 -0.1393 -0.0041
  967BOLB   PO223198   4.461  13.760   9.392 -0.1265 -0.0275 -0.2227
  967BOLB   GL323199   4.673  13.880   9.805  0.0982  0.0251 -0.1257
  967BOLB   GL423200   4.784  14.281   9.846 -0.0001  0.3698 -0.2440
  967BOLB   C1C23201   4.680  13.959  10.288 -0.1831 -0.1540 -0.0402
  967BOLB   C2C23202   4.947  13.831  10.503  0.2478  0.2684 -0.0174
  967BOLB   C3C23203   5.375  13.761  10.845  0.1193  0.0698  0.0786
  967BOLB   C4C23204   5.746  13.674  10.969 -0.2871  0.0110 -0.2804
  967BOLB   C1D23205   5.133  14.031  10.076 -0.1413  0.4820  0.1620
  967BOLB   C2D23206   5.352  14.188  10.451  0.1987  0.2847  0.2049
  967BOLB   C3D23207   5.646  14.227  10.742  0.1356  0.2131 -0.1015
  967BOLB   C4D23208   5.969  14.208  11.044  0.2638  0.2986  0.1017
  968BOLB   NC123209   5.799  10.632  12.141  0.1695 -0.1339  0.2339
  968BOLB   PO123210   5.486  10.828  11.887  0.0989 -0.4536  0.2669
  968BOLB   GL123211   5.673  10.937  11.459  0.0596  0.0626  0.2073
  968BOLB   GL223212   5.458  10.886  11.316 -0.1048 -0.1827  0.1160
  968BOLB   C1A23213   5.993  11.310  11.411 -0.0114  0.1368  0.0087
  968BOLB   C2A23214   6.143  11.625  11.195  0.0831 -0.0973 -0.0982
  968BOLB   C3A23215   6.353  11.852  10.965  0.0432  0.1709 -0.1846
  968BOLB   C4A23216   6.740  12.113  10.680  0.2462  0.2293 -0.0762
  968BOLB   C1B23217   5.454  11.345  11.182  0.1224  0.1609 -0.1338
  968BOLB   C2B23218   5.210  11.711  10.920 -0.0005  0.2686 -0.1054
  968BOLB   C3B23219   4.980  12.116  11.078 -0.0586 -0.1628 -0.0619
  968BOLB   C4B23220   4.736  12.494  11.221 -0.0133 -0.0635 -0.1312
  968BOLB   NC223221   5.860  12.254   8.274 -0.1816  0.2655  0.6987
  968BOLB   PO223222   5.994  12.536   8.616 -0.0417 -0.0710  0.3524
  968BOLB   GL323223   6.292  12.574   8.786  0.2799 -0.0614  0.0404
  968BOLB   GL423224   6.346  12.945   8.744 -0.1466 -0.0434  0.0386
  968BOLB   C1C23225   6.529  12.349   9.015  0.0854  0.2460 -0.1020
  968BOLB   C2C23226   6.859  12.348   9.224  0.0506  0.0491  0.5672
  968BOLB   C3C23227   6.917  12.328   9.701 -0.3293  0.0822 -0.0798
  968BOLB   C4C23228   6.743  12.317  10.198  0.0950 -0.1271 -0.1116
  968BOLB   C1D23229   6.503  13.315   8.804 -0.1353 -0.2228 -0.0662
  968BOLB   C2D23230   6.623  13.700   9.152 -0.0979  0.0725  0.0972
  968BOLB   C3D23231   6.921  13.628   9.386 -0.2572  0.3123  0.0472
  968BOLB   C4D23232   7.061  13.601   9.846 -0.1620 -0.0398 -0.0494
  969BOLB   NC123233   7.099  12.614  13.087  0.0019  0.4122  0.0903
  969BOLB   PO123234   7.064  12.338  12.755  0.1598 -0.0007  0.1431
  969BOLB   GL123235   6.977  12.346  12.311  0.0073 -0.1892  0.3780
  969BOLB   GL223236   6.633  12.059  12.263 -0.1627 -0.1807  0.2417
  969BOLB   C1A23237   6.786  12.323  11.898 -0.0439  0.2493 -0.1497
  969BOLB   C2A23238   6.859  12.517  11.488 -0.2280 -0.1006  0.0821
  969BOLB   C3A23239   6.778  12.728  11.103 -0.0858 -0.1325  0.1286
  969BOLB   C4A23240   6.691  12.635  10.691 -0.1574 -0.0104 -0.0249
  969BOLB   C1B23241   6.254  12.111  11.932 -0.0826  0.1420  0.1019
  969BOLB   C2B23242   5.834  12.180  11.762  0.2128  0.0027 -0.2213
  969BOLB   C3B23243   5.471  12.362  11.906 -0.1734  0.1183  0.1713
  969BOLB   C4B23244   4.904  12.422  12.022 -0.0154 -0.1605  0.1971
  969BOLB   NC223245   4.193  12.928   9.391  0.1627  0.1038 -0.0470
  969BOLB   PO223246   4.373  13.000   9.740 -0.1208  0.0163  0.2761
  969BOLB   GL323247   4.771  13.095   9.871 -0.1342  0.0570  0.0733
  969BOLB   GL423248   4.777  13.302   9.724 -0.0307 -0.1197  0.0204
  969BOLB   C1C23249   5.166  13.030  10.099 -0.0631  0.4071 -0.0344
  969BOLB   C2C23250   5.524  13.056  10.172 -0.1246 -0.1019  0.5353
  969BOLB   C3C23251   5.996  12.909  10.500 -0.0453  0.1331 -0.0828
  969BOLB   C4C23252   6.353  12.706  10.413  0.0043  0.2688 -0.1993
  969BOLB   C1D23253   4.927  13.497  10.144 -0.1116  0.1364  0.0721
  969BOLB   C2D23254   5.365  13.583  10.346 -0.1179  0.1643 -0.1358
  969BOLB   C3D23255   5.730  13.374  10.524  0.3071 -0.0946 -0.1817
  969BOLB   C4D23256   5.845  13.186  10.878  0.1013 -0.2063  0.1704
  970BOLB   NC123257   6.460   9.729  10.786 -0.3284 -0.2806 -0.0144
  970BOLB   PO123258   6.138  10.087  10.741  0.2726 -0.0864  0.0332
  970BOLB   GL123259   6.227  10.355  10.391  0.1122  0.1989 -0.0743
  970BOLB   GL223260   6.088  10.411  10.026  0.0054 -0.1614 -0.0524
  970BOLB   C1A23261   6.526  10.654  10.280 -0.1989 -0.0837  0.0296
  970BOLB   C2A23262   6.709  11.065  10.268  0.2635  0.0441  0.1543
  970BOLB   C3A23263   6.908  11.353  10.071  0.3369  0.2673  0.1407
  970BOLB   C4A23264   7.221  11.365   9.770 -0.0662  0.0146  0.4914
  970BOLB   C1B23265   6.137  10.807  10.061 -0.2623 -0.1095  0.4589
  970BOLB   C2B23266   6.143  11.078  10.320 -0.1808  0.1129  0.0975
  970BOLB   C3B23267   6.406  11.335  10.658  0.2374 -0.1466 -0.0446
  970BOLB   C4B23268   6.461  11.248  11.025 -0.2260  0.0508 -0.0440
  970BOLB   NC223269   7.228  10.038   8.023 -0.4705  0.0868 -0.2463
  970BOLB   PO223270   7.244   9.777   8.309  0.0195 -0.0191 -0.0987
  970BOLB   GL323271   7.635   9.851   8.669  0.1834 -0.0243  0.0877
  970BOLB   GL423272   7.970   9.892   8.667 -0.1385  0.1449  0.2173
  970BOLB   C1C23273   7.853  10.048   9.066 -0.1899  0.1736 -0.1133
  970BOLB   C2C23274   7.880  10.492   9.145  0.1892 -0.0228 -0.2471
  970BOLB   C3C23275   7.772  10.915   9.312 -0.0323  0.0032  0.2114
  970BOLB   C4C23276   7.395  11.167   9.468 -0.2338  0.0112 -0.2811
  970BOLB   C1D23277   8.245  10.288   8.861  0.0054 -0.1811  0.0695
  970BOLB   C2D23278   8.397  10.731   9.177  0.0894  0.1901  0.2006
  970BOLB   C3D23279   8.259  10.920   9.571  0.2235  0.1305 -0.0991
  970BOLB   C4D23280   8.161  11.254   9.897 -0.1079 -0.1551 -0.0475
  971BOLB   NC123281   9.113  24.445  12.525 -0.2463 -0.0038 -0.0473
  971BOLB   PO123282   8.874  24.243  12.313  0.1118 -0.1353 -0.1917
  971BOLB   GL123283   9.018  24.316  11.912 -0.0565  0.3692  0.1231
  971BOLB   GL223284   9.118  24.575  11.988 -0.2348  0.4714  0.0452
  971BOLB   C1A23285   9.150  23.992  11.597  0.2287  0.1465 -0.2077
  971BOLB   C2A23286   8.951  23.869  11.163 -0.0696 -0.0994 -0.2098
  971BOLB   C3A23287   9.034  23.680  10.913 -0.2633 -0.1248  0.2795
  971BOLB   C4A23288   9.037  23.290  10.621 -0.0988  0.2561  0.5069
  971BOLB   C1B23289   9.303  24.681  11.666  0.0025 -0.2118 -0.3034
  971BOLB   C2B23290   9.306  24.865  11.295 -0.0125 -0.0384 -0.3023
  971BOLB   C3B23291   9.561  24.650  11.129  0.2080 -0.1689 -0.0084
  971BOLB   C4B23292   9.915  24.452  11.209  0.1241  0.3100  0.0775
  971BOLB   NC223293   8.105  23.799   8.122  0.0239 -0.3871  0.0146
  971BOLB   PO223294   8.152  23.723   8.580 -0.0743 -0.1589 -0.4456
  971BOLB   GL323295   8.123  23.529   8.806  0.3477  0.4602  0.3576
  971BOLB   GL423296   8.079  23.185   8.820  0.1579  0.0485 -0.3820
  971BOLB   C1C23297   8.046  23.510   9.275  0.0687 -0.2096  0.2135
  971BOLB   C2C23298   8.217  23.569   9.740  0.1391 -0.0160  0.1196
  971BOLB   C3C23299   8.620  23.352   9.949  0.0497 -0.0791 -0.1120
  971BOLB   C4C23300   8.865  23.103  10.273 -0.0307  0.0609 -0.0310
  971BOLB   C1D23301   8.123  22.853   9.073 -0.0567  0.3685  0.0179
  971BOLB   C2D23302   7.856  22.917   9.459 -0.1512  0.3099 -0.0663
  971BOLB   C3D23303   7.470  22.919   9.639 -0.2595 -0.3025 -0.2730
  971BOLB   C4D23304   7.272  22.664   9.805 -0.0501  0.0756  0.0583
  972BOLB   NC123305   4.433  14.329  15.153  0.0334 -0.0330 -0.1952
  972BOLB   PO123306   4.162  14.530  15.119 -0.0317 -0.0230 -0.3006
  972BOLB   GL123307   4.303  14.528  14.716  0.0941  0.1098  0.1672
  972BOLB   GL223308   4.490  14.316  14.454  0.1727  0.1654 -0.2338
  972BOLB   C1A23309   4.313  14.894  14.303 -0.1663  0.1724 -0.1487
  972BOLB   C2A23310   4.171  15.023  13.794  0.1295  0.2636  0.0944
  972BOLB   C3A23311   4.346  14.839  13.491  0.0585 -0.1266  0.1437
  972BOLB   C4A23312   4.122  14.422  13.248 -0.1025  0.0439  0.1762
  972BOLB   C1B23313   4.352  14.528  13.961 -0.0008  0.1030 -0.1520
  972BOLB   C2B23314   4.010  14.533  13.722 -0.0899  0.1851  0.1637
  972BOLB   C3B23315   3.526  14.534  13.551 -0.0861 -0.0032  0.3047
  972BOLB   C4B23316   3.136  14.524  13.315 -0.0262  0.3360 -0.0772
  972BOLB   NC223317   4.314  11.830  12.636 -0.0627  0.2848 -0.1256
  972BOLB   PO223318   4.425  12.245  12.969 -0.1437  0.1179 -0.0211
  972BOLB   GL323319   4.632  12.457  12.696 -0.1750  0.1782  0.1443
  972BOLB   GL423320   4.543  12.335  12.465  0.1449 -0.0916 -0.0243
  972BOLB   C1C23321   4.458  12.855  12.621  0.2627 -0.0471 -0.2268
  972BOLB   C2C23322   4.195  13.249  12.721 -0.0046 -0.0181  0.1377
  972BOLB   C3C23323   4.095  13.770  12.755 -0.1945 -0.0181 -0.2072
  972BOLB   C4C23324   4.085  14.204  12.873  0.1007  0.1190 -0.0396
  972BOLB   C1D23325   4.347  12.676  12.206 -0.3301  0.2017  0.0643
  972BOLB   C2D23326   4.013  13.104  12.252 -0.2577  0.3087 -0.1703
  972BOLB   C3D23327   4.045  13.523  12.312  0.0846  0.2500 -0.2497
  972BOLB   C4D23328   4.284  13.825  12.223 -0.1132  0.2305 -0.1099
  973BOLB   NC123329   6.610  11.145  12.591 -0.2663 -0.0536 -0.0190
  973BOLB   PO123330   6.137  11.126  12.423  0.0400  0.0984  0.1129
  973BOLB   GL123331   6.282  11.482  12.091  0.0794 -0.2295 -0.1923
  973BOLB   GL223332   6.441  11.619  12.366 -0.2201  0.2450 -0.3914
  973BOLB   C1A23333   6.087  11.659  11.729  0.0284 -0.1492 -0.0958
  973BOLB   C2A23334   5.686  11.695  11.441 -0.0600 -0.2883 -0.2128
  973BOLB   C3A23335   5.516  11.986  11.352 -0.1556  0.2111  0.0133
  973BOLB   C4A23336   5.650  12.470  11.377  0.2407 -0.1533 -0.4393
  973BOLB   C1B23337   6.652  11.761  11.847  0.1616 -0.1474  0.3149
  973BOLB   C2B23338   6.604  12.016  11.538 -0.4774  0.0497 -0.1178
  973BOLB   C3B23339   6.543  12.289  11.166 -0.1879 -0.0610  0.1028
  973BOLB   C4B23340   6.229  12.323  10.884 -0.0031 -0.0245  0.3200
  973BOLB   NC223341   3.674  12.647  10.590 -0.2060 -0.0854 -0.1580
  973BOLB   PO223342   4.025  12.818  10.391 -0.3599  0.0645  0.0193
  973BOLB   GL323343   4.486  12.769  10.406  0.0087  0.0918 -0.0367
  973BOLB   GL423344   4.604  13.135  10.400 -0.0213  0.1545 -0.1994
  973BOLB   C1C23345   4.961  12.790  10.608  0.2727 -0.0077  0.1332
  973BOLB   C2C23346   5.314  13.042  10.686 -0.2144  0.3591  0.1059
  973BOLB   C3C23347   5.410  13.214  11.035 -0.0999 -0.3375  0.4180
  973BOLB   C4C23348   5.604  12.940  11.280  0.2296  0.1837 -0.0260
  973BOLB   C1D23349   4.887  13.320  10.629  0.0170  0.0154  0.0057
  973BOLB   C2D23350   4.962  13.455  11.028 -0.1533  0.1438  0.1129
  973BOLB   C3D23351   4.604  13.397  11.272 -0.2685 -0.0332  0.1526
  973BOLB   C4D23352   4.511  12.973  11.381 -0.3551  0.2259  0.3063
  974BOLB   NC123353   8.215  22.176  13.204 -0.0748  0.0646  0.3289
  974BOLB   PO123354   8.465  21.788  13.203 -0.2447  0.1907  0.2792
  974BOLB   GL123355   8.101  21.708  13.112  0.2662 -0.2958  0.2655
  974BOLB   GL223356   8.011  21.630  12.781 -0.1057  0.1326  0.0041
  974BOLB   C1A23357   7.686  21.468  13.118  0.0079  0.2254 -0.1364
  974BOLB   C2A23358   7.316  21.348  12.981 -0.1171  0.0274 -0.1431
  974BOLB   C3A23359   6.829  21.299  12.924  0.4248  0.2227 -0.1099
  974BOLB   C4A23360   6.771  20.981  12.668  0.1621  0.4741  0.1548
  974BOLB   C1B23361   8.003  21.505  12.246 -0.0872 -0.2137 -0.0938
  974BOLB   C2B23362   7.973  21.400  11.837 -0.2726 -0.0065  0.3645
  974BOLB   C3B23363   7.884  21.416  11.421  0.1822 -0.1917 -0.3676
  974BOLB   C4B23364   7.811  21.640  11.110 -0.4785 -0.0949  0.0240
  974BOLB   NC223365   5.113  21.587  11.221 -0.2669 -0.0862  0.1030
  974BOLB   PO223366   4.883  21.265  10.969 -0.1592  0.1121 -0.2694
  974BOLB   GL323367   5.206  21.078  11.049  0.0290 -0.0885 -0.2105
  974BOLB   GL423368   5.488  21.334  11.027  0.2900  0.2650  0.0247
  974BOLB   C1C23369   5.481  20.938  11.363 -0.1089  0.1690 -0.1770
  974BOLB   C2C23370   5.850  20.681  11.571  0.2448 -0.5435  0.0303
  974BOLB   C3C23371   6.214  20.818  11.831  0.2137 -0.1203  0.3604
  974BOLB   C4C23372   6.594  20.886  12.177  0.0439  0.4485 -0.1370
  974BOLB   C1D23373   5.933  21.099  11.140 -0.1547  0.2061 -0.2240
  974BOLB   C2D23374   6.328  20.862  11.297  0.0954 -0.0981  0.0857
  974BOLB   C3D23375   6.708  20.779  11.573 -0.0544 -0.0085 -0.1925
  974BOLB   C4D23376   6.997  20.814  11.815  0.2120  0.1250 -0.4888
  975BOLB   NC123377   6.165  14.049  13.929  0.1947 -0.2351  0.0135
  975BOLB   PO123378   6.161  14.071  13.417 -0.1719 -0.0709 -0.4664
  975BOLB   GL123379   5.966  13.969  13.044  0.2580 -0.0364  0.1468
  975BOLB   GL223380   6.044  13.717  12.877 -0.0119  0.4218 -0.1598
  975BOLB   C1A23381   5.889  14.098  12.614 -0.2769 -0.1636 -0.1814
  975BOLB   C2A23382   5.663  14.194  12.228 -0.1721  0.1116 -0.1520
  975BOLB   C3A23383   5.771  14.393  11.786 -0.1469 -0.1662  0.0319
  975BOLB   C4A23384   5.945  14.570  11.390  0.1778  0.0046  0.4566
  975BOLB   C1B23385   5.934  13.405  12.593  0.1436 -0.0525 -0.1285
  975BOLB   C2B23386   5.630  13.465  12.221 -0.0174  0.1266  0.3339
  975BOLB   C3B23387   5.491  13.268  11.815  0.2060  0.2021  0.2665
  975BOLB   C4B23388   5.419  13.425  11.489 -0.1445 -0.5455  0.2018
  975BOLB   NC223389   4.441  14.237   9.402 -0.2093 -0.2644 -0.0579
  975BOLB   PO223390   4.156  14.282   9.783 -0.1834 -0.1153 -0.2149
  975BOLB   GL323391   4.503  14.589  10.142  0.0771 -0.0275  0.0153
  975BOLB   GL423392   4.768  14.918  10.054 -0.1739 -0.0354  0.1185
  975BOLB   C1C23393   4.838  14.445  10.368 -0.2602 -0.0232  0.3732
  975BOLB   C2C23394   5.172  14.700  10.613  0.4613 -0.0724  0.2398
  975BOLB   C3C23395   5.552  14.797  10.784 -0.0842 -0.3506  0.0780
  975BOLB   C4C23396   5.920  14.793  11.039 -0.3113 -0.3042  0.1466
  975BOLB   C1D23397   5.124  14.989  10.138 -0.0200  0.1727 -0.1381
  975BOLB   C2D23398   5.584  14.949  10.185 -0.1428  0.2076  0.2132
  975BOLB   C3D23399   5.996  14.794  10.454  0.0388  0.0387 -0.1739
  975BOLB   C4D23400   6.371  14.655  10.709  0.1072 -0.0646 -0.2520
  976BOLB   NC123401   9.444  12.602  12.317 -0.0602 -0.0695 -0.1295
  976BOLB   PO123402   9.489  12.885  11.903 -0.1083 -0.2928  0.0275
  976BOLB   GL123403   9.103  12.877  11.571 -0.1765 -0.1010 -0.0104
  976BOLB   GL223404   8.782  12.953  11.615 -0.2410 -0.2216 -0.2234
  976BOLB   C1A23405   8.979  12.906  11.169 -0.1675 -0.2403  0.0165
  976BOLB   C2A23406   9.244  12.961  10.724  0.0861 -0.0988  0.0150
  976BOLB   C3A23407   9.218  12.879  10.308 -0.0174  0.0607  0.1164
  976BOLB   C4A23408   9.006  12.835   9.798  0.0901 -0.3017 -0.0661
  976BOLB   C1B23409   8.473  13.005  11.371  0.0157  0.1435  0.0779
  976BOLB   C2B23410   8.453  12.783  11.023  0.5244  0.0486 -0.0183
  976BOLB   C3B23411   8.313  12.662  10.546 -0.0169 -0.0755 -0.4466
  976BOLB   C4B23412   8.105  12.727  10.150  0.2354 -0.2008 -0.0464
  976BOLB   NC223413   9.149  12.759   7.050  0.3161 -0.4168 -0.2155
  976BOLB   PO223414   8.845  12.883   7.239  0.1393 -0.2649 -0.1379
  976BOLB   GL323415   8.864  12.630   7.639  0.0398  0.0458  0.1970
  976BOLB   GL423416   8.908  12.318   7.796 -0.0789 -0.0390  0.1861
  976BOLB   C1C23417   8.578  12.560   8.058  0.4807  0.3267 -0.1388
  976BOLB   C2C23418   8.638  12.678   8.564  0.1789  0.0094 -0.3306
  976BOLB   C3C23419   8.651  12.592   8.949 -0.2050 -0.2819 -0.0720
  976BOLB   C4C23420   8.899  12.822   9.296 -0.1313 -0.0544  0.3874
  976BOLB   C1D23421   9.184  12.107   8.072  0.2009 -0.2122 -0.1567
  976BOLB   C2D23422   9.373  12.125   8.515  0.0464 -0.0083 -0.1363
  976BOLB   C3D23423   9.540  12.312   8.987 -0.0493 -0.3136 -0.1371
  976BOLB   C4D23424   9.842  12.627   9.176 -0.1982  0.2952  0.1930
  977BOLB   NC123425   4.607  20.714  14.810  0.3371  0.0513  0.2123
  977BOLB   PO123426   4.672  20.747  14.298  0.3953  0.1359  0.0694
  977BOLB   GL123427   4.729  20.306  14.095  0.1583  0.0404  0.0880
  977BOLB   GL223428   4.507  20.054  14.148  0.2582  0.0563 -0.0061
  977BOLB   C1A23429   5.123  20.222  14.023 -0.2525  0.0021 -0.2914
  977BOLB   C2A23430   5.433  19.897  13.982 -0.0316  0.1817  0.2232
  977BOLB   C3A23431   5.504  19.520  13.593 -0.0559  0.2379 -0.0752
  977BOLB   C4A23432   5.600  19.586  13.095  0.0919  0.0431 -0.2576
  977BOLB   C1B23433   4.680  19.873  13.865  0.1854  0.2404 -0.3137
  977BOLB   C2B23434   5.036  19.800  13.531 -0.0992 -0.1489  0.0753
  977BOLB   C3B23435   5.139  19.823  13.114 -0.3486  0.0871  0.1309
  977BOLB   C4B23436   5.298  20.136  12.768  0.0264 -0.0757 -0.0958
  977BOLB   NC223437   4.341  20.937  11.625  0.2445 -0.3577  0.2466
  977BOLB   PO223438   4.711  20.981  11.866 -0.0525 -0.1997 -0.4227
  977BOLB   GL323439   4.985  20.639  11.871  0.2391 -0.2971 -0.0991
  977BOLB   GL423440   5.110  20.547  11.474  0.4316  0.4703 -0.0729
  977BOLB   C1C23441   5.327  20.434  12.179 -0.0144 -0.0938  0.0096
  977BOLB   C2C23442   5.661  20.436  12.476  0.0127 -0.1604 -0.2880
  977BOLB   C3C23443   5.713  20.403  12.895  0.0552 -0.0595 -0.0200
  977BOLB   C4C23444   5.691  19.931  12.991  0.0483  0.0020 -0.2128
  977BOLB   C1D23445   5.442  20.412  11.622  0.0250 -0.0223  0.0167
  977BOLB   C2D23446   5.795  20.276  11.946 -0.0125  0.0608  0.3312
  977BOLB   C3D23447   6.148  20.164  12.077  0.0913  0.1871  0.1217
  977BOLB   C4D23448   6.402  19.885  12.362 -0.0189  0.0146  0.2652
  978BOLB   NC123449   7.343  10.719  12.015 -0.4110 -0.1584 -0.0913
  978BOLB   PO123450   6.918  10.722  11.917 -0.0370  0.0106  0.1438
  978BOLB   GL123451   7.056  11.038  11.774 -0.1826 -0.2574  0.3659
  978BOLB   GL223452   7.263  10.993  11.498  0.0857  0.0604 -0.1502
  978BOLB   C1A23453   7.029  11.481  11.608  0.0269  0.4199 -0.0857
  978BOLB   C2A23454   7.302  11.576  11.173  0.2324  0.0276  0.3231
  978BOLB   C3A23455   7.438  11.778  10.729  0.0856 -0.0654  0.0176
  978BOLB   C4A23456   7.594  11.802  10.305  0.0566 -0.2567  0.0958
  978BOLB   C1B23457   7.228  10.678  11.111 -0.1264 -0.0884  0.0988
  978BOLB   C2B23458   7.691  10.424  11.074  0.1342 -0.1668 -0.1872
  978BOLB   C3B23459   8.089  10.316  11.191 -0.1631 -0.1300  0.2575
  978BOLB   C4B23460   8.499  10.194  11.228 -0.3301  0.0541  0.0754
  978BOLB   NC223461   6.749  11.398   7.567 -0.1517  0.1321 -0.2511
  978BOLB   PO223462   7.020  11.789   7.710 -0.2365 -0.2505  0.3186
  978BOLB   GL323463   7.161  11.702   8.124 -0.0146 -0.0387 -0.4400
  978BOLB   GL423464   7.540  11.794   8.188 -0.0506 -0.0237  0.3733
  978BOLB   C1C23465   7.191  11.712   8.598  0.1237 -0.3495  0.1056
  978BOLB   C2C23466   7.328  11.642   8.963 -0.0815  0.0930  0.2610
  978BOLB   C3C23467   7.369  11.696   9.419 -0.0709  0.2183 -0.0002
  978BOLB   C4C23468   7.567  11.812   9.832 -0.0839 -0.0065  0.2341
  978BOLB   C1D23469   7.725  11.625   8.646 -0.0670 -0.0420  0.0193
  978BOLB   C2D23470   8.050  11.514   8.802 -0.3853 -0.0753  0.1208
  978BOLB   C3D23471   8.170  11.706   9.185  0.0109 -0.3081  0.0229
  978BOLB   C4D23472   8.291  11.668   9.578  0.0711  0.2299 -0.0546
  979BOLB   NC123473   2.385  17.615  17.385 -0.0153  0.4415 -0.0706
  979BOLB   PO123474   2.307  17.432  17.847 -0.1169 -0.0763 -0.0458
  979BOLB   GL123475   2.761  17.538  18.049 -0.1739  0.1225  0.0389
  979BOLB   GL223476   2.823  17.869  18.135 -0.0007  0.1660  0.1943
  979BOLB   C1A23477   3.242  17.663  17.845  0.0738 -0.0551 -0.1636
  979BOLB   C2A23478   3.619  17.693  17.634 -0.2770 -0.0062 -0.1706
  979BOLB   C3A23479   3.862  17.566  17.288 -0.2308 -0.1478 -0.1330
  979BOLB   C4A23480   3.805  17.505  16.808 -0.0823 -0.0821 -0.1239
  979BOLB   C1B23481   3.213  17.614  18.358  0.1238  0.3129  0.2919
  979BOLB   C2B23482   3.598  17.558  18.221 -0.3918  0.1402  0.1109
  979BOLB   C3B23483   4.012  17.644  18.082 -0.1894  0.0658 -0.1174
  979BOLB   C4B23484   4.310  17.637  18.287  0.0693  0.0263  0.1295
  979BOLB   NC223485   2.652  18.486  15.072  0.1115 -0.0927  0.3092
  979BOLB   PO223486   2.593  18.073  14.928  0.1260 -0.0768 -0.0122
  979BOLB   GL323487   3.008  18.021  15.049  0.1552 -0.1295  0.0202
  979BOLB   GL423488   3.157  18.256  15.020 -0.2589 -0.2194  0.2536
  979BOLB   C1C23489   3.114  17.742  15.350 -0.2774  0.1402 -0.3037
  979BOLB   C2C23490   3.264  17.532  15.755 -0.1147  0.1789  0.2697
  979BOLB   C3C23491   3.420  17.412  16.128 -0.2249  0.1703  0.0740
  979BOLB   C4C23492   3.714  17.291  16.442  0.0947  0.1104  0.1905
  979BOLB   C1D23493   3.469  18.311  14.738  0.2021 -0.2234  0.2537
  979BOLB   C2D23494   3.718  18.084  14.517  0.0566  0.1324  0.3514
  979BOLB   C3D23495   4.085  17.827  14.418  0.2364 -0.1854 -0.0241
  979BOLB   C4D23496   4.435  17.741  14.499  0.2037 -0.2235 -0.3355
  980BOLB   NC123497   7.395  15.864  13.214 -0.1262  0.0335 -0.1169
  980BOLB   PO123498   7.192  15.415  13.009  0.0047 -0.2913  0.1460
  980BOLB   GL123499   6.972  15.193  12.839 -0.1447 -0.0089  0.0257
  980BOLB   GL223500   7.151  15.002  12.707  0.2583 -0.3801 -0.0234
  980BOLB   C1A23501   6.721  15.212  12.438 -0.3662  0.1052  0.1000
  980BOLB   C2A23502   6.523  15.546  12.147 -0.0850 -0.0897 -0.0626
  980BOLB   C3A23503   6.681  15.701  11.812 -0.0233  0.3912 -0.0532
  980BOLB   C4A23504   6.569  15.927  11.379  0.0654  0.1148 -0.4112
  980BOLB   C1B23505   7.201  15.120  12.384  0.1055  0.3086  0.1677
  980BOLB   C2B23506   7.010  15.373  12.015 -0.1771 -0.2276 -0.0276
  980BOLB   C3B23507   7.078  15.863  11.996  0.1935 -0.1669  0.0108
  980BOLB   C4B23508   6.905  16.124  11.695 -0.0313  0.1035  0.2889
  980BOLB   NC223509   4.739  15.987   9.202  0.0787 -0.2392  0.3547
  980BOLB   PO223510   5.158  16.106   9.120  0.1988  0.1240 -0.0204
  980BOLB   GL323511   5.555  16.141   9.416 -0.4251  0.2205 -0.1791
  980BOLB   GL423512   5.412  15.788   9.504 -0.1345  0.3007 -0.0097
  980BOLB   C1C23513   5.825  16.061   9.728  0.0906  0.2484  0.0254
  980BOLB   C2C23514   6.072  16.299   9.968  0.1747 -0.2423 -0.1343
  980BOLB   C3C23515   6.269  16.193  10.442 -0.2963  0.1652 -0.1545
  980BOLB   C4C23516   6.397  16.049  10.894 -0.0808 -0.0792  0.3642
  980BOLB   C1D23517   5.409  15.913   9.963 -0.1303  0.0471  0.1339
  980BOLB   C2D23518   5.742  15.942  10.209  0.2341 -0.0248  0.3093
  980BOLB   C3D23519   5.797  16.041  10.592 -0.1261 -0.1280 -0.2238
  980BOLB   C4D23520   5.903  16.222  10.908 -0.0121 -0.1463  0.0911
  981BOLB   NC123521   6.150  10.570   8.539 -0.0853 -0.0079  0.1257
  981BOLB   PO123522   5.996  11.017   8.674 -0.2746  0.2503 -0.1394
  981BOLB   GL123523   6.146  10.907   9.122  0.0467 -0.2746  0.0239
  981BOLB   GL223524   5.889  10.723   9.256  0.2263  0.2168 -0.0260
  981BOLB   C1A23525   6.310  10.981   9.584  0.3194  0.1331  0.1925
  981BOLB   C2A23526   6.413  11.279   9.943  0.4178 -0.0407  0.0157
  981BOLB   C3A23527   6.519  11.646  10.265  0.0251 -0.0760 -0.4722
  981BOLB   C4A23528   6.279  12.016  10.389 -0.2701  0.1898  0.1048
  981BOLB   C1B23529   6.196  10.507   9.551 -0.2778  0.1941  0.0780
  981BOLB   C2B23530   6.586  10.533   9.783  0.0577  0.0022 -0.1090
  981BOLB   C3B23531   6.810  10.167   9.953 -0.1430  0.5623 -0.0750
  981BOLB   C4B23532   7.168   9.883   9.930  0.1285 -0.0511 -0.0338
  981BOLB   NC223533   4.077  12.069   9.889 -0.2548 -0.3262 -0.4672
  981BOLB   PO223534   4.451  12.146   9.783  0.3074 -0.2847  0.0230
  981BOLB   GL323535   4.679  12.568   9.899 -0.0247 -0.2553  0.1441
  981BOLB   GL423536   4.887  12.623  10.143  0.0420 -0.1366 -0.3161
  981BOLB   C1C23537   5.087  12.743   9.739  0.3818 -0.2855  0.0209
  981BOLB   C2C23538   5.541  12.756   9.657 -0.1393  0.0648  0.1067
  981BOLB   C3C23539   5.941  12.647   9.730 -0.0102 -0.3126  0.0253
  981BOLB   C4C23540   6.138  12.370  10.067  0.0286 -0.0872 -0.0100
  981BOLB   C1D23541   5.149  12.272  10.065  0.2161 -0.0958 -0.1302
  981BOLB   C2D23542   5.412  12.007  10.163  0.0130  0.2053 -0.2336
  981BOLB   C3D23543   5.651  11.854  10.375 -0.1698  0.3189  0.1687
  981BOLB   C4D23544   5.989  11.542  10.290 -0.3030 -0.1452 -0.2068
  982BOLB   NC123545   7.427   8.090  10.825 -0.0068 -0.2266  0.0347
  982BOLB   PO123546   7.759   8.029  10.579 -0.1263  0.0566 -0.0280
  982BOLB   GL123547   8.126   8.244  10.460 -0.1392  0.4422 -0.1945
  982BOLB   GL223548   8.254   8.203  10.038  0.0247 -0.3725  0.0615
  982BOLB   C1A23549   8.239   8.698  10.306 -0.2587 -0.1393  0.0044
  982BOLB   C2A23550   8.479   8.999  10.057 -0.3496 -0.0620  0.0778
  982BOLB   C3A23551   8.950   8.945   9.944  0.2625  0.3330  0.2826
  982BOLB   C4A23552   9.106   8.815   9.649  0.0278  0.2131  0.0316
  982BOLB   C1B23553   8.617   8.413  10.054  0.0779 -0.1048  0.0367
  982BOLB   C2B23554   8.992   8.388   9.942  0.2215  0.1327  0.2608
  982BOLB   C3B23555   9.233   7.918   9.871 -0.0616  0.1836 -0.1882
  982BOLB   C4B23556   9.208   7.433   9.814 -0.0730  0.1756 -0.2869
  982BOLB   NC223557   9.535   7.137   7.866  0.0519 -0.2986  0.1266
  982BOLB   PO223558   9.619   7.565   8.076 -0.0698  0.1371 -0.2532
  982BOLB   GL323559   9.855   7.746   8.508  0.2517  0.1440 -0.2184
  982BOLB   GL423560  10.108   7.908   8.569  0.0544  0.1184 -0.2295
  982BOLB   C1C23561   9.783   7.801   8.931  0.1253 -0.0851  0.0006
  982BOLB   C2C23562   9.547   7.952   9.140  0.0622 -0.0126 -0.1880
  982BOLB   C3C23563   9.172   8.090   9.252  0.1799  0.5070  0.0506
  982BOLB   C4C23564   9.124   8.482   9.450  0.0314  0.1109  0.4324
  982BOLB   C1D23565  10.117   8.141   8.861  0.0622 -0.0695  0.1029
  982BOLB   C2D23566  10.115   8.379   9.326 -0.0094 -0.2806 -0.0403
  982BOLB   C3D23567  10.042   8.546   9.709  0.0803 -0.2362  0.1647
  982BOLB   C4D23568   9.816   8.915  10.061  0.0268 -0.0011  0.4371
  983BOLB   NC123569   6.619  14.999  14.365 -0.1597 -0.1015 -0.3173
  983BOLB   PO123570   6.260  14.969  14.090  0.2508  0.2296  0.2105
  983BOLB   GL123571   6.057  15.004  13.652 -0.0111 -0.0851  0.0457
  983BOLB   GL223572   5.735  14.902  13.600 -0.2952  0.1385  0.0221
  983BOLB   C1A23573   5.994  15.120  13.312 -0.0889  0.2477 -0.1524
  983BOLB   C2A23574   5.916  15.327  12.953  0.1454 -0.3041 -0.1026
  983BOLB   C3A23575   5.548  15.420  12.800 -0.2385 -0.2530  0.0366
  983BOLB   C4A23576   5.249  15.489  12.561  0.3474  0.2920  0.0515
  983BOLB   C1B23577   5.437  15.163  13.316 -0.0869  0.2530 -0.2731
  983BOLB   C2B23578   5.081  15.148  13.003 -0.1315 -0.0953 -0.3510
  983BOLB   C3B23579   4.720  15.192  12.750 -0.1100 -0.3098 -0.0125
  983BOLB   C4B23580   4.419  15.054  12.548 -0.0442 -0.2898  0.1012
  983BOLB   NC223581   3.065  16.257  11.407  0.3857  0.0346  0.3943
  983BOLB   PO223582   2.873  15.890  11.511  0.2557 -0.0842 -0.1354
  983BOLB   GL323583   3.209  15.706  11.615 -0.3618 -0.0499  0.3775
  983BOLB   GL423584   3.327  15.388  11.541  0.0055  0.1992  0.0071
  983BOLB   C1C23585   3.702  15.719  11.648 -0.2597  0.0452 -0.0401
  983BOLB   C2C23586   4.016  15.539  11.945  0.0703 -0.1449  0.2055
  983BOLB   C3C23587   4.509  15.404  12.170 -0.1951 -0.3059 -0.2723
  983BOLB   C4C23588   4.885  15.491  12.278  0.0190 -0.1388 -0.0213
  983BOLB   C1D23589   3.732  15.203  11.535 -0.1877  0.0387 -0.1446
  983BOLB   C2D23590   3.918  14.957  11.849  0.3628  0.1968 -0.1126
  983BOLB   C3D23591   4.102  14.884  12.213  0.0155  0.2429  0.2782
  983BOLB   C4D23592   4.270  14.607  12.593  0.1926 -0.0457 -0.0395
  984BOLB   NC123593   5.174  14.401  14.466 -0.1613 -0.0105 -0.0289
  984BOLB   PO123594   4.935  14.031  14.356  0.2561 -0.0574  0.0023
  984BOLB   GL123595   4.816  14.427  14.111 -0.2135  0.1365  0.1896
  984BOLB   GL223596   4.787  14.767  14.317 -0.1671  0.1762 -0.0370
  984BOLB   C1A23597   4.796  14.573  13.609 -0.1313 -0.1729  0.2489
  984BOLB   C2A23598   4.826  14.868  13.286 -0.0271 -0.0241  0.1801
  984BOLB   C3A23599   4.537  15.256  13.241  0.0003  0.1389 -0.2731
  984BOLB   C4A23600   4.397  15.756  13.073  0.1719  0.1796  0.1587
  984BOLB   C1B23601   4.704  14.881  13.937  0.1762  0.1739 -0.2684
  984BOLB   C2B23602   4.566  15.317  13.772 -0.3576 -0.0879  0.3819
  984BOLB   C3B23603   4.535  15.753  14.054  0.1400 -0.1353 -0.2033
  984BOLB   C4B23604   4.302  16.153  14.096  0.0079  0.1139  0.1983
  984BOLB   NC223605   2.292  16.216  12.215 -0.0845  0.1246  0.1259
  984BOLB   PO223606   2.581  15.943  12.106 -0.2113  0.0238  0.2758
  984BOLB   GL323607   2.773  16.150  12.349  0.0929  0.1792  0.2453
  984BOLB   GL423608   2.610  16.327  12.581  0.1219  0.2311 -0.3687
  984BOLB   C1C23609   3.184  16.215  12.458 -0.2970 -0.0542  0.1235
  984BOLB   C2C23610   3.567  16.227  12.638  0.5407  0.0753 -0.1042
  984BOLB   C3C23611   3.885  16.288  12.820  0.3021 -0.1524  0.0026
  984BOLB   C4C23612   4.249  16.061  12.801  0.0663  0.0337 -0.0696
  984BOLB   C1D23613   2.728  16.083  12.877 -0.0178  0.0032  0.4281
  984BOLB   C2D23614   2.884  15.779  13.204 -0.1224  0.4236  0.0041
  984BOLB   C3D23615   3.321  15.511  13.201 -0.0356  0.2689  0.0509
  984BOLB   C4D23616   3.596  15.402  13.532 -0.0562 -0.1500 -0.1207
  985BOLB   NC123617   6.161  15.702  13.749  0.2139  0.2867 -0.1184
  985BOLB   PO123618   6.406  16.000  14.081  0.1650 -0.0499 -0.1305
  985BOLB   GL123619   6.079  16.166  13.746  0.0304 -0.0555 -0.1749
  985BOLB   GL223620   5.939  16.058  13.518  0.3157  0.0333  0.1420
  985BOLB   C1A23621   5.703  16.568  13.718  0.0009 -0.3055 -0.0856
  985BOLB   C2A23622   5.838  17.064  13.546 -0.2726 -0.0402 -0.2339
  985BOLB   C3A23623   5.750  17.442  13.475 -0.1907 -0.1176 -0.0541
  985BOLB   C4A23624   5.536  17.617  13.136  0.0225 -0.1576 -0.1230
  985BOLB   C1B23625   6.012  16.168  13.128  0.1326 -0.1505  0.4503
  985BOLB   C2B23626   5.692  16.223  12.768 -0.0736 -0.1707  0.0919
  985BOLB   C3B23627   5.587  16.516  12.461 -0.3138 -0.0994 -0.1909
  985BOLB   C4B23628   5.690  16.879  12.224 -0.0448 -0.2224 -0.2586
  985BOLB   NC223629   3.604  16.947  11.085 -0.2720  0.1223  0.0759
  985BOLB   PO223630   3.896  17.250  11.313 -0.1194  0.1545  0.2568
  985BOLB   GL323631   4.069  17.275  11.709 -0.1426  0.1861 -0.1262
  985BOLB   GL423632   3.774  17.411  11.911  0.1245 -0.0795  0.0900
  985BOLB   C1C23633   4.431  17.410  11.756  0.0624 -0.0134  0.0029
  985BOLB   C2C23634   4.747  17.484  12.115 -0.1745 -0.1435 -0.1170
  985BOLB   C3C23635   4.924  17.713  12.458 -0.1078 -0.1149  0.0032
  985BOLB   C4C23636   5.119  17.788  12.948  0.3025 -0.0097 -0.0003
  985BOLB   C1D23637   4.095  17.254  12.273  0.1685  0.1732  0.0726
  985BOLB   C2D23638   4.462  17.020  12.295  0.2129 -0.0319  0.0754
  985BOLB   C3D23639   4.759  16.983  12.008  0.1481 -0.1348 -0.4173
  985BOLB   C4D23640   4.799  16.490  11.827 -0.0488  0.1011 -0.2105
  986BOLB   NC123641   5.476  15.454  15.409 -0.1934 -0.0275 -0.4261
  986BOLB   PO123642   5.279  15.519  14.968 -0.2691  0.0043 -0.0957
  986BOLB   GL123643   4.973  15.786  14.734 -0.1445  0.2212  0.1335
  986BOLB   GL223644   5.072  15.973  14.479 -0.1313  0.0197 -0.1125
  986BOLB   C1A23645   4.621  15.777  14.553 -0.1472 -0.1843 -0.0379
  986BOLB   C2A23646   4.289  15.950  14.532 -0.1945  0.0825 -0.0170
  986BOLB   C3A23647   3.978  16.142  14.714 -0.0637  0.1507 -0.0694
  986BOLB   C4A23648   3.591  16.029  14.873  0.0737 -0.0412  0.4142
  986BOLB   C1B23649   4.891  16.329  14.279 -0.0793  0.2030  0.0692
  986BOLB   C2B23650   4.796  16.627  14.189 -0.4137 -0.0960 -0.0634
  986BOLB   C3B23651   4.485  16.696  13.919  0.0520 -0.0736 -0.0159
  986BOLB   C4B23652   4.373  16.920  13.461 -0.1979  0.0893  0.2784
  986BOLB   NC223653   1.867  16.309  14.151  0.3066 -0.1175  0.0618
  986BOLB   PO223654   1.849  16.528  13.776 -0.0033 -0.0605  0.1140
  986BOLB   GL323655   2.322  16.579  13.911  0.0170 -0.0488 -0.0384
  986BOLB   GL423656   2.374  16.468  14.216  0.2509  0.0398 -0.0004
  986BOLB   C1C23657   2.667  16.509  13.839  0.0892  0.0302  0.1358
  986BOLB   C2C23658   2.983  16.197  13.979  0.0141  0.0245  0.1045
  986BOLB   C3C23659   3.049  15.973  14.320 -0.0722 -0.1692 -0.2112
  986BOLB   C4C23660   3.057  16.060  14.667 -0.1311  0.1310  0.0090
  986BOLB   C1D23661   2.765  16.406  14.414 -0.0485 -0.1111  0.0792
  986BOLB   C2D23662   2.986  16.562  14.740  0.0972 -0.2445 -0.2405
  986BOLB   C3D23663   3.396  16.582  14.956  0.1082 -0.0919 -0.7173
  986BOLB   C4D23664   3.832  16.661  14.691 -0.1166  0.1969  0.2921
  987BOLB   NC123665   8.103  13.743  12.526 -0.0008  0.1796  0.3776
  987BOLB   PO123666   8.301  13.924  12.159 -0.0406  0.1848 -0.0456
  987BOLB   GL123667   8.220  14.063  11.748 -0.0605 -0.0230  0.2379
  987BOLB   GL223668   8.204  14.364  11.785  0.1018  0.0589  0.0406
  987BOLB   C1A23669   8.177  13.914  11.374 -0.2080  0.3297  0.0082
  987BOLB   C2A23670   7.862  13.626  11.088  0.0953 -0.3260 -0.1346
  987BOLB   C3A23671   7.792  13.460  10.762  0.1390 -0.3076 -0.1018
  987BOLB   C4A23672   7.631  13.674  10.396 -0.1881 -0.2281 -0.0510
  987BOLB   C1B23673   8.076  14.461  11.392 -0.0180 -0.0755  0.2140
  987BOLB   C2B23674   7.941  14.495  11.016 -0.1106 -0.1633  0.3096
  987BOLB   C3B23675   8.037  14.474  10.687 -0.0958  0.0043 -0.0156
  987BOLB   C4B23676   8.080  14.699  10.204 -0.0258  0.1106  0.0481
  987BOLB   NC223677   7.080  13.837   8.034  0.1382 -0.1352  0.0882
  987BOLB   PO223678   6.908  13.496   8.212 -0.1179  0.4009 -0.0982
  987BOLB   GL323679   7.401  13.617   8.369 -0.0928  0.0929 -0.1362
  987BOLB   GL423680   7.555  13.907   8.311 -0.0607  0.0143 -0.3074
  987BOLB   C1C23681   7.551  13.665   8.777  0.1075 -0.1637  0.0271
  987BOLB   C2C23682   7.498  13.575   9.111 -0.2440  0.0990  0.0310
  987BOLB   C3C23683   7.512  13.690   9.529  0.2451 -0.0298 -0.1522
  987BOLB   C4C23684   7.558  13.570   9.931 -0.0498  0.2234 -0.2541
  987BOLB   C1D23685   7.417  14.152   8.728  0.1721  0.0989  0.2933
  987BOLB   C2D23686   7.459  14.542   9.010  0.1689 -0.1483 -0.2320
  987BOLB   C3D23687   7.450  14.931   8.857  0.1708  0.0204  0.3675
  987BOLB   C4D23688   7.757  15.258   8.652  0.0042  0.0338  0.0931
  988BOLB   NC123689   9.174  17.369  11.598  0.0154  0.1963  0.1026
  988BOLB   PO123690   9.467  17.020  11.431 -0.0015 -0.1571 -0.0854
  988BOLB   GL123691   9.181  17.036  11.174 -0.3390  0.0954 -0.0112
  988BOLB   GL223692   9.068  17.381  11.065 -0.1370 -0.1115 -0.2131
  988BOLB   C1A23693   8.654  17.111  11.125  0.0840 -0.1325 -0.2972
  988BOLB   C2A23694   8.248  17.202  10.824  0.0262  0.2168  0.2017
  988BOLB   C3A23695   8.016  17.447  10.512 -0.0649  0.1786 -0.0341
  988BOLB   C4A23696   7.895  17.568  10.072  0.1329 -0.1837 -0.0688
  988BOLB   C1B23697   8.835  17.263  10.686 -0.0439  0.1153  0.1744
  988BOLB   C2B23698   8.531  17.198  10.314  0.1360  0.0956 -0.0705
  988BOLB   C3B23699   8.184  17.121  10.054  0.0706 -0.0620 -0.2727
  988BOLB   C4B23700   7.905  16.671   9.922 -0.1831 -0.1732 -0.0551
  988BOLB   NC223701   6.826  17.176   8.075  0.0007  0.3256 -0.0309
  988BOLB   PO223702   6.910  17.642   8.201  0.0395  0.0970  0.1604
  988BOLB   GL323703   6.758  17.501   8.536  0.1028 -0.1510 -0.2108
  988BOLB   GL423704   6.982  17.231   8.679 -0.1163 -0.1112  0.0357
  988BOLB   C1C23705   6.757  17.600   8.983  0.0163 -0.0726  0.0760
  988BOLB   C2C23706   6.962  17.562   9.207 -0.0167 -0.1730 -0.3803
  988BOLB   C3C23707   7.262  17.434   9.514  0.1221  0.0717 -0.6777
  988BOLB   C4C23708   7.620  17.643   9.744 -0.0979  0.2526  0.1900
  988BOLB   C1D23709   7.312  17.334   8.912 -0.1214  0.1413  0.0948
  988BOLB   C2D23710   7.665  17.391   9.222  0.1256 -0.1127  0.0452
  988BOLB   C3D23711   8.115  17.471   9.518 -0.0415  0.0282 -0.0509
  988BOLB   C4D23712   8.387  17.599   9.950  0.0741  0.2303 -0.2948
  989BOLB   NC123713   3.811  20.654  13.935  0.2441  0.1136  0.0588
  989BOLB   PO123714   3.831  20.335  13.622 -0.1425  0.0822 -0.0155
  989BOLB   GL123715   4.141  20.026  13.718 -0.0363 -0.0962 -0.1633
  989BOLB   GL223716   4.172  19.745  13.958  0.1282 -0.0891 -0.1142
  989BOLB   C1A23717   4.441  19.923  13.433  0.2297 -0.3676 -0.2374
  989BOLB   C2A23718   4.719  19.613  13.153  0.0426  0.2156  0.5928
  989BOLB   C3A23719   4.712  19.188  13.148 -0.1589 -0.0130  0.0439
  989BOLB   C4A23720   4.653  18.776  12.953 -0.0491  0.2840  0.0434
  989BOLB   C1B23721   4.034  19.294  13.822  0.1636 -0.1955  0.0895
  989BOLB   C2B23722   4.186  18.920  13.835 -0.1304  0.2333 -0.0209
  989BOLB   C3B23723   4.332  18.533  13.764  0.0023  0.0052 -0.0902
  989BOLB   C4B23724   4.466  18.403  13.294  0.1322  0.0490  0.4874
  989BOLB   NC223725   3.151  18.167  11.366  0.0879 -0.0210  0.1030
  989BOLB   PO223726   3.116  17.911  11.747  0.2169  0.3155  0.2508
  989BOLB   GL323727   3.297  17.608  12.062 -0.1485  0.2204 -0.0251
  989BOLB   GL423728   3.302  17.282  11.969 -0.0140  0.0660  0.1799
  989BOLB   C1C23729   3.615  17.578  12.481 -0.1051 -0.0137  0.0103
  989BOLB   C2C23730   3.984  17.663  12.615  0.0485  0.0546 -0.2320
  989BOLB   C3C23731   4.143  18.014  12.713  0.1994  0.0761  0.1883
  989BOLB   C4C23732   4.422  18.327  12.780  0.3304  0.0289 -0.3198
  989BOLB   C1D23733   3.640  17.007  12.144 -0.0642  0.0587 -0.1415
  989BOLB   C2D23734   4.061  16.807  12.045 -0.1520  0.2811 -0.0229
  989BOLB   C3D23735   4.417  16.796  11.635  0.2821  0.0239 -0.0858
  989BOLB   C4D23736   4.732  16.784  11.363 -0.2618 -0.0104 -0.0595
  990BOLB   NC123737   9.729  15.869  11.619  0.2581 -0.1451  0.1244
  990BOLB   PO123738   9.976  15.544  11.256  0.0491  0.3358  0.0823
  990BOLB   GL123739   9.638  15.787  10.991 -0.0254  0.3958 -0.0458
  990BOLB   GL223740   9.442  15.940  11.227  0.1188  0.1324  0.1107
  990BOLB   C1A23741   9.231  15.625  10.658 -0.4257 -0.1258 -0.0001
  990BOLB   C2A23742   9.073  15.367  10.358 -0.4330 -0.3856 -0.2870
  990BOLB   C3A23743   8.942  15.117  10.120 -0.2272 -0.1330 -0.0208
  990BOLB   C4A23744   8.961  15.156   9.687 -0.1586 -0.3388 -0.0497
  990BOLB   C1B23745   9.421  16.232  10.792 -0.1346  0.1493 -0.1849
  990BOLB   C2B23746   9.136  16.182  10.547 -0.3594 -0.2245 -0.0647
  990BOLB   C3B23747   9.239  16.029  10.160  0.0501 -0.1454  0.3274
  990BOLB   C4B23748   9.250  16.252   9.846  0.1891 -0.0679  0.2076
  990BOLB   NC223749   7.116  15.249   7.898  0.2209 -0.1825  0.0282
  990BOLB   PO223750   7.664  15.332   7.718  0.0127 -0.1467 -0.3767
  990BOLB   GL323751   7.821  15.267   8.011 -0.1697 -0.2216  0.3129
  990BOLB   GL423752   7.784  14.886   8.126 -0.0030  0.0446 -0.3094
  990BOLB   C1C23753   8.168  15.488   8.134 -0.0963 -0.3016  0.2156
  990BOLB   C2C23754   8.358  15.343   8.506 -0.2659 -0.3095 -0.0783
  990BOLB   C3C23755   8.584  15.265   8.924  0.0732  0.0649 -0.0903
  990BOLB   C4C23756   8.829  15.084   9.325  0.1074 -0.0454  0.3000
  990BOLB   C1D23757   8.083  14.979   8.409  0.0276 -0.0939 -0.1886
  990BOLB   C2D23758   8.169  15.008   8.852 -0.0084  0.0671  0.0510
  990BOLB   C3D23759   8.185  14.929   9.289  0.2434 -0.2692  0.0759
  990BOLB   C4D23760   8.070  14.914   9.774 -0.0866 -0.0339 -0.2460
  991BOLB   NC123761   7.528  16.334  13.276 -0.1243 -0.0734  0.3074
  991BOLB   PO123762   7.237  16.318  13.019 -0.2954 -0.3908 -0.1084
  991BOLB   GL123763   6.953  16.445  12.778 -0.2386  0.3223 -0.2589
  991BOLB   GL223764   6.909  16.766  12.798 -0.2457  0.0497 -0.5080
  991BOLB   C1A23765   6.581  16.442  12.593 -0.1297 -0.2291  0.3838
  991BOLB   C2A23766   6.405  16.811  12.340  0.2883  0.0385 -0.2728
  991BOLB   C3A23767   6.072  17.091  12.049 -0.0722  0.0613 -0.2381
  991BOLB   C4A23768   5.795  17.095  11.679 -0.4444 -0.1745 -0.2761
  991BOLB   C1B23769   6.995  17.098  12.423 -0.0830  0.4166  0.2660
  991BOLB   C2B23770   6.879  17.410  12.176 -0.0506  0.0406  0.3673
  991BOLB   C3B23771   6.555  17.588  12.030 -0.0114  0.2130 -0.1955
  991BOLB   C4B23772   6.208  17.498  11.727 -0.0208 -0.1296  0.3018
  991BOLB   NC223773   4.519  17.417   9.198 -0.1567  0.1897 -0.1840
  991BOLB   PO223774   4.608  17.214   9.593  0.0486  0.2832 -0.3803
  991BOLB   GL323775   5.070  17.332   9.836 -0.0010  0.0826  0.0732
  991BOLB   GL423776   5.356  17.083   9.815  0.4042 -0.1023 -0.2121
  991BOLB   C1C23777   5.194  17.167  10.271  0.3312  0.0095  0.3910
  991BOLB   C2C23778   5.421  17.141  10.584  0.1395  0.0869 -0.1569
  991BOLB   C3C23779   5.474  17.180  10.997 -0.4805 -0.2015  0.1990
  991BOLB   C4C23780   5.472  17.104  11.375 -0.2039  0.0720 -0.0358
  991BOLB   C1D23781   5.680  17.373  10.186  0.1225 -0.3829  0.1590
  991BOLB   C2D23782   5.867  17.557  10.518  0.0267  0.3904  0.2851
  991BOLB   C3D23783   5.988  17.617  10.896 -0.1005  0.1345 -0.0554
  991BOLB   C4D23784   5.975  17.454  11.237  0.3833  0.1230 -0.1190
  992BOLB   NC123785   6.885  13.682  12.943 -0.0832  0.1641  0.2521
  992BOLB   PO123786   6.471  13.875  13.103 -0.0729  0.0696  0.0503
  992BOLB   GL123787   6.423  14.100  12.841 -0.0460  0.0374  0.0593
  992BOLB   GL223788   6.462  14.399  12.878 -0.0934 -0.1557  0.2293
  992BOLB   C1A23789   6.414  14.143  12.389  0.0664  0.2604  0.0442
  992BOLB   C2A23790   6.194  14.305  12.014 -0.1204  0.1080 -0.2143
  992BOLB   C3A23791   6.245  14.229  11.481  0.0562  0.1409 -0.2858
  992BOLB   C4A23792   6.418  14.147  11.180 -0.0604 -0.1865  0.0124
  992BOLB   C1B23793   6.120  14.517  12.451  0.2091  0.0608  0.0654
  992BOLB   C2B23794   5.965  14.712  12.062 -0.1914 -0.1097 -0.0528
  992BOLB   C3B23795   5.644  14.877  11.778 -0.0451 -0.0141 -0.0940
  992BOLB   C4B23796   5.468  14.869  11.430 -0.2745 -0.0682 -0.3491
  992BOLB   NC223797   4.632  14.729   9.632  0.2056  0.0099 -0.0072
  992BOLB   PO223798   4.876  14.641   9.375  0.0259 -0.0211  0.2980
  992BOLB   GL323799   5.223  14.604   9.591 -0.0486  0.2259  0.0397
  992BOLB   GL423800   5.388  14.435   9.476 -0.0549 -0.0272 -0.0185
  992BOLB   C1C23801   5.357  14.463   9.969  0.1240  0.3922  0.1375
  992BOLB   C2C23802   5.735  14.348  10.242  0.1667  0.0992  0.1922
  992BOLB   C3C23803   6.139  14.255  10.453  0.0467  0.0831 -0.2575
  992BOLB   C4C23804   6.507  14.068  10.754 -0.0725  0.2076 -0.1260
  992BOLB   C1D23805   5.825  14.245   9.651 -0.1856 -0.3787  0.0201
  992BOLB   C2D23806   6.042  13.980   9.873  0.0871  0.1848  0.0080
  992BOLB   C3D23807   6.335  13.800  10.134 -0.0547 -0.1251  0.0564
  992BOLB   C4D23808   6.649  13.623  10.466 -0.0199  0.2185  0.0654
  993BOLB   NC123809   6.624  14.329  13.363 -0.3371 -0.1311 -0.0195
  993BOLB   PO123810   6.294  14.487  13.735 -0.3459 -0.1638  0.0870
  993BOLB   GL123811   6.092  14.604  13.342 -0.0018  0.0880 -0.1242
  993BOLB   GL223812   5.824  14.470  13.266  0.0887  0.1518  0.0135
  993BOLB   C1A23813   6.095  14.755  12.909  0.0844 -0.4893 -0.2718
  993BOLB   C2A23814   5.893  15.062  12.565  0.0118 -0.1229  0.0026
  993BOLB   C3A23815   5.599  15.268  12.284 -0.1599  0.0947  0.0253
  993BOLB   C4A23816   5.302  15.528  12.068  0.4106  0.0780  0.1119
  993BOLB   C1B23817   5.653  14.867  12.940  0.1956  0.1559 -0.1317
  993BOLB   C2B23818   5.383  14.978  12.655 -0.0547 -0.0198 -0.4921
  993BOLB   C3B23819   5.045  15.067  12.414 -0.0117 -0.0142 -0.0853
  993BOLB   C4B23820   5.075  15.058  12.024  0.3648 -0.0494 -0.1758
  993BOLB   NC223821   4.332  16.529  10.057 -0.0557 -0.0309  0.0323
  993BOLB   PO223822   4.017  16.155  10.202  0.1141 -0.2065 -0.0526
  993BOLB   GL323823   4.080  16.528  10.521  0.0878 -0.1267  0.0822
  993BOLB   GL423824   3.879  16.536  10.878  0.2723  0.0543 -0.1623
  993BOLB   C1C23825   4.312  16.382  11.015 -0.2014 -0.1647 -0.0374
  993BOLB   C2C23826   4.594  16.306  11.381  0.1162 -0.0796 -0.1498
  993BOLB   C3C23827   4.887  16.012  11.692  0.2725  0.3534  0.1407
  993BOLB   C4C23828   5.062  15.858  11.972  0.0940 -0.1215 -0.1072
  993BOLB   C1D23829   4.041  16.515  11.422 -0.1460 -0.3011  0.0924
  993BOLB   C2D23830   4.100  16.357  11.773 -0.5384  0.2106 -0.1046
  993BOLB   C3D23831   4.431  16.514  12.226 -0.0644 -0.2470 -0.1074
  993BOLB   C4D23832   4.843  16.645  12.432  0.1073  0.0004 -0.1484
  994BOLB   NC123833   3.027  19.254  14.689  0.2894  0.0856 -0.3156
  994BOLB   PO123834   3.414  18.977  14.654 -0.1282  0.3896 -0.2379
  994BOLB   GL123835   3.741  18.752  14.451 -0.0588  0.0599  0.1234
  994BOLB   GL223836   3.796  18.626  14.766 -0.1008 -0.2880 -0.2321
  994BOLB   C1A23837   4.128  18.885  14.366 -0.1819 -0.1046  0.1327
  994BOLB   C2A23838   4.516  18.746  14.223  0.1236 -0.1743 -0.0478
  994BOLB   C3A23839   4.832  18.517  13.980 -0.2586  0.0845  0.0504
  994BOLB   C4A23840   4.900  18.246  13.567  0.0675  0.1077 -0.0349
  994BOLB   C1B23841   4.169  18.399  14.585 -0.0430  0.2053 -0.3043
  994BOLB   C2B23842   4.601  18.392  14.599 -0.1421 -0.1226 -0.0165
  994BOLB   C3B23843   5.034  18.472  14.464 -0.1500  0.1901  0.0692
  994BOLB   C4B23844   5.356  18.557  14.380 -0.0335 -0.1657  0.0625
  994BOLB   NC223845   3.062  19.054  12.218  0.0032 -0.0298 -0.1044
  994BOLB   PO223846   3.211  18.756  12.430 -0.0479 -0.0692 -0.1109
  994BOLB   GL323847   3.617  18.866  12.630 -0.1449 -0.0481 -0.0723
  994BOLB   GL423848   3.593  18.845  12.964  0.2459 -0.3049  0.1641
  994BOLB   C1C23849   4.154  18.827  12.531  0.1709  0.1842  0.2595
  994BOLB   C2C23850   4.570  18.683  12.443  0.0660 -0.0856 -0.0011
  994BOLB   C3C23851   4.933  18.457  12.751 -0.3028 -0.0459 -0.0499
  994BOLB   C4C23852   4.959  18.287  13.150 -0.0223  0.0786  0.0696
  994BOLB   C1D23853   3.518  18.707  13.404  0.1429  0.1169  0.1715
  994BOLB   C2D23854   3.818  18.500  13.589 -0.0344  0.2076 -0.3566
  994BOLB   C3D23855   4.052  18.177  13.510 -0.0232 -0.0185 -0.1191
  994BOLB   C4D23856   4.468  18.083  13.689 -0.0624  0.0092  0.0312
  995BOLB   NC123857   6.230  13.510  13.324  0.0118 -0.1257  0.2143
  995BOLB   PO123858   6.575  13.321  13.144 -0.2953  0.0333 -0.0577
  995BOLB   GL123859   6.429  13.401  12.798  0.2273 -0.1008 -0.3963
  995BOLB   GL223860   6.424  13.113  12.585  0.0228 -0.0722 -0.1611
  995BOLB   C1A23861   6.404  13.580  12.352  0.0727 -0.0830  0.2554
  995BOLB   C2A23862   6.019  13.817  12.145 -0.0129  0.2755  0.1018
  995BOLB   C3A23863   5.678  13.854  11.919  0.1753  0.2335  0.4046
  995BOLB   C4A23864   5.318  14.119  11.817  0.3156  0.1734 -0.1081
  995BOLB   C1B23865   6.408  12.697  12.393  0.0782 -0.0840 -0.0364
  995BOLB   C2B23866   6.384  12.734  11.928  0.0873 -0.0573 -0.1122
  995BOLB   C3B23867   6.316  12.505  11.554 -0.2507 -0.0504  0.0924
  995BOLB   C4B23868   6.131  12.155  11.352  0.1180 -0.1243  0.0237
  995BOLB   NC223869   3.226  14.188  10.363 -0.0786  0.4432 -0.0416
  995BOLB   PO223870   3.404  14.387  10.833 -0.2862  0.4022 -0.1677
  995BOLB   GL323871   3.630  14.646  11.076  0.1493  0.0333 -0.0381
  995BOLB   GL423872   3.450  14.791  11.394  0.0307 -0.2398  0.0530
  995BOLB   C1C23873   4.021  14.809  11.186  0.0778 -0.0013 -0.0949
  995BOLB   C2C23874   4.483  15.004  11.289  0.2728 -0.0940 -0.0375
  995BOLB   C3C23875   4.877  14.872  11.589 -0.2865  0.2300  0.1572
  995BOLB   C4C23876   5.205  14.541  11.685  0.0933 -0.1977  0.3283
  995BOLB   C1D23877   3.775  14.556  11.580 -0.5106  0.0800  0.1389
  995BOLB   C2D23878   4.226  14.634  11.620 -0.3501 -0.1432  0.4132
  995BOLB   C3D23879   4.548  14.510  11.822  0.1239 -0.0715 -0.0326
  995BOLB   C4D23880   4.906  14.496  12.105  0.2922 -0.2068 -0.0874
  996BOLB   NC123881   4.221  19.424  15.368 -0.1957 -0.1920  0.0310
  996BOLB   PO123882   3.955  19.080  15.100  0.2131 -0.1188 -0.0004
  996BOLB   GL123883   4.258  18.910  14.883  0.0827  0.3840  0.0825
  996BOLB   GL223884   4.484  18.617  15.043 -0.0807 -0.0461 -0.0078
  996BOLB   C1A23885   4.613  18.933  14.661 -0.3525 -0.5064 -0.1988
  996BOLB   C2A23886   4.978  18.994  14.324 -0.1825 -0.0792  0.2035
  996BOLB   C3A23887   5.365  19.025  14.158  0.0832 -0.0336 -0.0568
  996BOLB   C4A23888   5.660  19.071  13.743  0.1422 -0.1135  0.0060
  996BOLB   C1B23889   4.940  18.589  15.009 -0.3697  0.0239  0.0486
  996BOLB   C2B23890   5.231  18.801  14.747  0.2030 -0.3169  0.0600
  996BOLB   C3B23891   5.679  18.929  14.765 -0.2405 -0.2037 -0.2299
  996BOLB   C4B23892   5.947  18.967  14.345 -0.1963  0.2837  0.0512
  996BOLB   NC223893   4.265  20.019  12.841 -0.0062  0.0869 -0.1330
  996BOLB   PO223894   4.337  20.285  12.478 -0.0491 -0.0009  0.3385
  996BOLB   GL323895   4.524  19.909  12.403 -0.2578  0.1164  0.0566
  996BOLB   GL423896   4.359  19.668  12.362  0.3325 -0.0028  0.0201
  996BOLB   C1C23897   4.854  19.694  12.660 -0.3025 -0.2967  0.2405
  996BOLB   C2C23898   5.179  19.406  12.842 -0.0657  0.1222 -0.3574
  996BOLB   C3C23899   5.597  19.151  12.865  0.1488  0.1191 -0.3772
  996BOLB   C4C23900   5.696  19.031  13.227  0.0742  0.3642  0.0362
  996BOLB   C1D23901   4.644  19.402  12.218 -0.0564 -0.1761 -0.3111
  996BOLB   C2D23902   4.890  19.177  12.071 -0.3299 -0.0889  0.1008
  996BOLB   C3D23903   5.261  19.093  11.804 -0.1869  0.1873  0.0438
  996BOLB   C4D23904   5.662  19.199  11.635 -0.3689  0.0527  0.0934
  997BOLB   NC123905   6.910  17.958  13.757 -0.3530  0.0749 -0.1242
  997BOLB   PO123906   7.143  18.118  13.447  0.0566 -0.2188 -0.0972
  997BOLB   GL123907   6.704  18.153  13.269 -0.0833 -0.1285  0.0920
  997BOLB   GL223908   6.598  17.870  13.402 -0.0665  0.0063  0.0777
  997BOLB   C1A23909   6.416  18.235  12.844 -0.0076  0.0537 -0.2280
  997BOLB   C2A23910   6.089  18.333  12.665 -0.2302  0.2127  0.2098
  997BOLB   C3A23911   5.893  18.656  12.349  0.3012  0.2093 -0.0288
  997BOLB   C4A23912   5.994  19.055  11.966 -0.0902 -0.1281  0.4170
  997BOLB   C1B23913   6.215  18.202  13.334 -0.0555 -0.1412  0.2876
  997BOLB   C2B23914   5.835  18.217  13.077 -0.1404 -0.5164  0.3275
  997BOLB   C3B23915   5.518  18.045  12.856  0.2348  0.1567  0.0261
  997BOLB   C4B23916   5.223  18.116  12.526 -0.0955 -0.0168 -0.3053
  997BOLB   NC223917   4.148  19.869  10.732 -0.0103  0.0341  0.1036
  997BOLB   PO223918   4.509  19.947  10.468 -0.0928  0.0160 -0.2251
  997BOLB   GL323919   4.908  20.002  10.670 -0.3828 -0.0169 -0.2119
  997BOLB   GL423920   5.252  20.152  10.576 -0.1826 -0.0498 -0.1029
  997BOLB   C1C23921   5.128  19.818  10.992  0.2589 -0.0067  0.0569
  997BOLB   C2C23922   5.618  19.648  11.107  0.3216 -0.0245  0.1830
  997BOLB   C3C23923   5.968  19.456  11.323  0.0875 -0.0761  0.0601
  997BOLB   C4C23924   6.121  19.206  11.544 -0.3147 -0.0013 -0.1803
  997BOLB   C1D23925   5.553  19.974  10.605 -0.2675  0.3833  0.0227
  997BOLB   C2D23926   5.873  19.694  10.706  0.2143 -0.0989  0.1426
  997BOLB   C3D23927   6.197  19.347  10.869 -0.3451 -0.0769 -0.1867
  997BOLB   C4D23928   6.578  19.334  10.682 -0.2767  0.0639  0.2126
  998BOLB   NC123929   3.402  18.944  15.449 -0.1306  0.0745  0.0853
  998BOLB   PO123930   3.175  18.604  15.378  0.1419  0.2467  0.0292
  998BOLB   GL123931   3.556  18.564  15.203 -0.1072 -0.0745 -0.3761
  998BOLB   GL223932   3.896  18.695  15.353 -0.1085  0.0448  0.0929
  998BOLB   C1A23933   3.897  18.175  15.005  0.1182  0.2026  0.0387
  998BOLB   C2A23934   3.910  17.714  14.922  0.0185  0.2264  0.0020
  998BOLB   C3A23935   4.104  17.294  14.701  0.1836 -0.1034 -0.3073
  998BOLB   C4A23936   4.171  17.023  14.409  0.1371 -0.2792  0.0112
  998BOLB   C1B23937   4.055  18.304  15.519 -0.3567  0.2602 -0.1950
  998BOLB   C2B23938   4.163  17.879  15.451 -0.0927 -0.2638  0.4243
  998BOLB   C3B23939   4.488  17.586  15.504  0.1133  0.3203 -0.0877
  998BOLB   C4B23940   4.457  17.262  15.911 -0.1431  0.3154  0.2826
  998BOLB   NC223941   2.580  18.066  13.286  0.2274 -0.0057 -0.1452
  998BOLB   PO223942   2.579  18.511  13.439  0.0025  0.1273 -0.3947
  998BOLB   GL323943   2.907  18.244  13.569  0.3130  0.0612  0.0292
  998BOLB   GL423944   3.264  18.320  13.533  0.1960  0.0217  0.0058
  998BOLB   C1C23945   3.068  17.809  13.902  0.1324  0.1038 -0.0847
  998BOLB   C2C23946   3.247  17.351  13.766 -0.2459 -0.1013 -0.2060
  998BOLB   C3C23947   3.459  17.104  14.044  0.1745 -0.1064 -0.1041
  998BOLB   C4C23948   3.733  16.836  14.179 -0.3750 -0.0162 -0.2191
  998BOLB   C1D23949   3.475  18.041  13.279 -0.2214  0.3154  0.2142
  998BOLB   C2D23950   3.897  18.009  13.124  0.1499  0.1009  0.1010
  998BOLB   C3D23951   4.360  17.965  13.149  0.1510  0.3497 -0.2269
  998BOLB   C4D23952   4.633  17.923  12.864 -0.0592  0.2437  0.2188
  999BOLB   NC123953   8.465  18.204  12.626  0.0413  0.0928  0.4343
  999BOLB   PO123954   8.353  17.910  12.220 -0.0683 -0.1495 -0.0445
  999BOLB   GL123955   8.101  18.064  11.982  0.2490 -0.0420 -0.3138
  999BOLB   GL223956   7.757  18.332  12.071  0.0324 -0.2717 -0.0652
  999BOLB   C1A23957   8.097  18.393  11.632 -0.0323 -0.0981 -0.0769
  999BOLB   C2A23958   7.727  18.582  11.460 -0.1282  0.0796 -0.0663
  999BOLB   C3A23959   7.380  18.857  11.269 -0.0595  0.2736 -0.0694
  999BOLB   C4A23960   7.438  19.274  11.041  0.4561 -0.2983  0.2622
  999BOLB   C1B23961   7.620  18.102  11.736 -0.2262 -0.0227  0.0714
  999BOLB   C2B23962   7.279  17.972  11.515 -0.1848 -0.1277  0.1019
  999BOLB   C3B23963   6.870  17.860  11.564  0.0109 -0.1448 -0.2773
  999BOLB   C4B23964   6.671  18.139  11.305  0.2773 -0.2067  0.1223
  999BOLB   NC223965   7.235  20.042   8.110 -0.0119 -0.1418 -0.0369
  999BOLB   PO223966   7.126  20.162   8.584 -0.0734 -0.0414 -0.1959
  999BOLB   GL323967   7.377  19.949   8.903 -0.0376  0.1609  0.0584
  999BOLB   GL423968   7.709  19.839   8.820 -0.1616 -0.1132 -0.3180
  999BOLB   C1C23969   7.607  19.795   9.355 -0.1606  0.2979 -0.1595
  999BOLB   C2C23970   7.451  19.683   9.846  0.0276  0.0813 -0.1084
  999BOLB   C3C23971   7.314  19.688  10.289  0.0076 -0.1242  0.2392
  999BOLB   C4C23972   7.508  19.632  10.746 -0.0553  0.0864  0.1242
  999BOLB   C1D23973   8.084  19.980   9.084  0.1754  0.2319  0.0764
  999BOLB   C2D23974   8.213  20.276   9.504 -0.0969 -0.2302  0.3082
  999BOLB   C3D23975   7.857  20.607   9.661 -0.1582  0.0265  0.0255
  999BOLB   C4D23976   7.708  20.813  10.056 -0.2635 -0.4014  0.1433
 1000BOLB   NC123977   2.942  14.324  14.403 -0.3470 -0.1428  0.4131
 1000BOLB   PO123978   3.080  14.461  14.119 -0.2628  0.1739 -0.0539
 1000BOLB   GL123979   3.538  14.387  14.007  0.0704  0.3946  0.1330
 1000BOLB   GL223980   3.650  14.115  13.967 -0.0028  0.0859 -0.1312
 1000BOLB   C1A23981   3.822  14.775  14.115  0.3208  0.3029  0.1411
 1000BOLB   C2A23982   3.656  15.121  13.912 -0.1169  0.2181  0.2226
 1000BOLB   C3A23983   3.429  15.478  14.076 -0.2140 -0.0388  0.1399
 1000BOLB   C4A23984   3.390  15.843  14.042  0.0704 -0.3601  0.1685
 1000BOLB   C1B23985   4.132  14.050  13.785 -0.0149  0.0127 -0.4292
 1000BOLB   C2B23986   4.461  14.120  13.475 -0.1752 -0.1689  0.0873
 1000BOLB   C3B23987   4.692  13.791  13.470  0.0604 -0.0198 -0.4189
 1000BOLB   C4B23988   5.144  13.683  13.599 -0.1668 -0.0220 -0.2752
 1000BOLB   NC223989   2.119  16.148  12.667 -0.1184  0.1284 -0.0914
 1000BOLB   PO223990   2.123  16.363  12.914  0.1848  0.1411  0.4944
 1000BOLB   GL323991   2.330  16.708  12.935 -0.0669  0.0473  0.0718
 1000BOLB   GL423992   2.545  16.944  12.754  0.2158 -0.1022  0.0958
 1000BOLB   C1C23993   2.763  16.692  13.067 -0.0022  0.0505  0.0253
 1000BOLB   C2C23994   3.078  16.450  12.889 -0.0259  0.1533  0.0909
 1000BOLB   C3C23995   3.323  16.203  13.025  0.0094 -0.1160  0.0040
 1000BOLB   C4C23996   3.404  15.975  13.481 -0.0531 -0.0326  0.1775
 1000BOLB   C1D23997   2.966  16.750  12.492 -0.0037  0.0801 -0.0966
 1000BOLB   C2D23998   3.393  16.704  12.471  0.1450 -0.0413  0.0427
 1000BOLB   C3D23999   3.848  16.719  12.482  0.1846  0.0154 -0.1530
 1000BOLB   C4D24000   4.211  16.589  12.632  0.1909  0.0518  0.0462
 1001BOLB   NC124001   8.510  21.494  12.806 -0.0557  0.3835 -0.1382
 1001BOLB   PO124002   8.829  21.174  12.736 -0.0550 -0.1238 -0.0401
 1001BOLB   GL124003   8.634  21.150  12.322  0.0181  0.1096  0.2230
 1001BOLB   GL224004   8.617  20.727  12.257 -0.0590 -0.0056  0.0808
 1001BOLB   C1A24005   8.471  21.561  12.083  0.0627 -0.0613 -0.0568
 1001BOLB   C2A24006   8.394  21.577  11.647 -0.1901  0.3678 -0.0045
 1001BOLB   C3A24007   8.423  21.651  11.248 -0.3758  0.1903 -0.1674
 1001BOLB   C4A24008   8.266  21.747  10.888  0.1677 -0.3077 -0.1349
 1001BOLB   C1B24009   8.171  20.978  12.195  0.0422  0.0054 -0.2235
 1001BOLB   C2B24010   7.794  20.939  12.052  0.2354  0.0761  0.0162
 1001BOLB   C3B24011   7.354  20.851  12.198 -0.3149  0.2335  0.0729
 1001BOLB   C4B24012   7.101  20.597  12.458 -0.3826 -0.0184  0.0679
 1001BOLB   NC224013   7.163  21.952   8.954  0.0733 -0.4542  0.1589
 1001BOLB   PO224014   7.411  21.570   8.698  0.3355  0.3195  0.0916
 1001BOLB   GL324015   7.613  21.695   8.972  0.1407 -0.0263  0.0917
 1001BOLB   GL424016   7.922  21.469   8.944 -0.0016  0.2262  0.0731
 1001BOLB   C1C24017   7.985  21.937   9.248  0.0584  0.0064 -0.2339
 1001BOLB   C2C24018   8.212  21.921   9.674  0.3855 -0.0975 -0.0686
 1001BOLB   C3C24019   8.237  21.645  10.099  0.1323 -0.1555  0.0005
 1001BOLB   C4C24020   8.080  21.871  10.431 -0.1876  0.0038 -0.0442
 1001BOLB   C1D24021   8.421  21.264   9.151 -0.1224  0.2229 -0.1897
 1001BOLB   C2D24022   8.758  20.907   9.024 -0.0937  0.0291  0.0297
 1001BOLB   C3D24023   9.068  20.639   8.996 -0.3007 -0.0786  0.1749
 1001BOLB   C4D24024   9.188  20.204   9.085 -0.1818 -0.0816 -0.0602
 1002BOLB   NC124025   7.743  12.878  12.517 -0.1134  0.1861 -0.0517
 1002BOLB   PO124026   7.835  13.301  12.377  0.1404 -0.0865  0.1095
 1002BOLB   GL124027   7.518  13.338  12.048 -0.3940 -0.1632 -0.0716
 1002BOLB   GL224028   7.181  13.341  12.065 -0.0152  0.2344 -0.1215
 1002BOLB   C1A24029   7.411  13.184  11.568 -0.1746 -0.1026 -0.1176
 1002BOLB   C2A24030   7.514  13.076  11.026  0.1749 -0.0344 -0.0820
 1002BOLB   C3A24031   7.433  13.189  10.592 -0.2315  0.0923  0.0356
 1002BOLB   C4A24032   7.197  13.232  10.165  0.0279 -0.1276 -0.1169
 1002BOLB   C1B24033   6.954  13.360  11.663 -0.1614  0.0954 -0.1722
 1002BOLB   C2B24034   6.959  13.197  11.149  0.0570  0.2501 -0.2130
 1002BOLB   C3B24035   6.858  13.173  10.745  0.2843 -0.0150 -0.0911
 1002BOLB   C4B24036   6.710  13.062  10.387 -0.2766  0.0508  0.0922
 1002BOLB   NC224037   5.305  14.085   8.226 -0.1124 -0.2260 -0.2700
 1002BOLB   PO224038   5.418  14.201   8.567 -0.1035  0.0320  0.0067
 1002BOLB   GL324039   5.784  14.239   8.766 -0.2095 -0.0563 -0.0297
 1002BOLB   GL424040   6.029  14.141   8.633 -0.3944  0.0036  0.1583
 1002BOLB   C1C24041   5.904  14.057   9.132 -0.1042 -0.0159  0.0852
 1002BOLB   C2C24042   6.219  13.870   9.432  0.0319 -0.1074 -0.0579
 1002BOLB   C3C24043   6.433  13.560   9.729  0.1096  0.1415  0.3934
 1002BOLB   C4C24044   6.735  13.259   9.848 -0.1186 -0.1211  0.2949
 1002BOLB   C1D24045   6.223  13.870   8.850  0.1845 -0.1303 -0.1542
 1002BOLB   C2D24046   6.671  13.877   8.692 -0.1184  0.0232 -0.1836
 1002BOLB   C3D24047   7.052  13.785   8.796  0.3076 -0.1040 -0.0746
 1002BOLB   C4D24048   7.185  13.286   8.862  0.2797 -0.1867  0.4033
 1003BOLB   NC124049  10.296  27.566  10.056 -0.0612  0.0266 -0.2033
 1003BOLB   PO124050  10.141  27.409  10.499 -0.1825  0.1400 -0.3017
 1003BOLB   GL124051  10.196  26.882  10.592 -0.2904 -0.0084 -0.1128
 1003BOLB   GL224052  10.229  26.636  10.457  0.2246  0.0916  0.1161
 1003BOLB   C1A24053  10.437  26.716  10.887 -0.0530  0.0314 -0.4643
 1003BOLB   C2A24054  10.749  26.763  11.301  0.0350  0.1729  0.2078
 1003BOLB   C3A24055  11.191  26.926  11.613 -0.4214 -0.0846  0.5419
 1003BOLB   C4A24056  11.451  26.689  11.936  0.0336 -0.0944  0.1223
 1003BOLB   C1B24057  10.691  26.514  10.579 -0.0629 -0.0045 -0.2307
 1003BOLB   C2B24058  11.067  26.712  10.769  0.1655  0.2514  0.3000
 1003BOLB   C3B24059  11.325  26.720  11.114 -0.1772 -0.1486 -0.1732
 1003BOLB   C4B24060  11.691  26.604  11.388  0.0371 -0.0797  0.4264
 1003BOLB   NC224061  11.506  27.751  10.302 -0.0885  0.2137  0.0052
 1003BOLB   PO224062  12.013  27.565  10.186 -0.0130 -0.0776  0.0521
 1003BOLB   GL324063  11.961  27.750  10.522  0.0339  0.0378 -0.2282
 1003BOLB   GL424064  12.245  27.794  10.673 -0.2023  0.2910 -0.1261
 1003BOLB   C1C24065  11.930  27.712  10.963  0.3907  0.0215  0.0972
 1003BOLB   C2C24066  11.980  27.438  11.205  0.0908 -0.1998  0.3659
 1003BOLB   C3C24067  11.935  27.022  11.492 -0.1502 -0.4341  0.1827
 1003BOLB   C4C24068  11.770  26.947  11.816 -0.1289 -0.0584  0.1779
 1003BOLB   C1D24069  12.396  27.444  10.944  0.0315  0.1200 -0.1169
 1003BOLB   C2D24070  12.497  27.197  11.354  0.1405  0.2809  0.0565
 1003BOLB   C3D24071  12.713  26.921  11.546 -0.2853  0.0101 -0.0401
 1003BOLB   C4D24072  12.731  26.600  11.820  0.0224 -0.0859  0.2304
 1004BOLB   NC124073   7.825  17.377  12.937 -0.0458 -0.1272  0.0944
 1004BOLB   PO124074   7.562  17.172  13.308  0.0535  0.3398 -0.0248
 1004BOLB   GL124075   7.323  17.282  12.897  0.0223 -0.1998  0.2009
 1004BOLB   GL224076   7.458  17.151  12.702  0.1420  0.0240  0.0574
 1004BOLB   C1A24077   7.071  17.610  12.593 -0.1365  0.0379 -0.0620
 1004BOLB   C2A24078   6.943  17.883  12.212  0.2046 -0.1487  0.4471
 1004BOLB   C3A24079   7.081  18.171  11.955 -0.2631  0.3825  0.1534
 1004BOLB   C4A24080   7.155  18.448  11.605  0.1877  0.1804  0.1790
 1004BOLB   C1B24081   7.340  16.776  12.442 -0.2739  0.2130 -0.0200
 1004BOLB   C2B24082   6.963  16.557  12.298 -0.1067  0.5961 -0.0159
 1004BOLB   C3B24083   6.757  16.595  11.948 -0.0988  0.1483  0.0734
 1004BOLB   C4B24084   6.352  16.630  11.687  0.0793  0.0068  0.2407
 1004BOLB   NC224085   5.426  19.194   9.583  0.3103 -0.2741 -0.0599
 1004BOLB   PO224086   5.260  19.230  10.012  0.0667  0.1405  0.3171
 1004BOLB   GL324087   5.586  19.036  10.252  0.0878  0.0138  0.1734
 1004BOLB   GL424088   5.807  18.667  10.172 -0.1532  0.0173 -0.0851
 1004BOLB   C1C24089   6.073  19.121  10.452 -0.1638 -0.1209  0.0785
 1004BOLB   C2C24090   6.399  18.881  10.798  0.4056  0.1258  0.2843
 1004BOLB   C3C24091   6.614  18.516  10.938  0.1244  0.1755 -0.2167
 1004BOLB   C4C24092   6.869  18.634  11.206 -0.0315 -0.2351 -0.0585
 1004BOLB   C1D24093   6.125  18.588  10.472  0.1115 -0.1559 -0.1450
 1004BOLB   C2D24094   6.497  18.177  10.594 -0.2180  0.0635 -0.1963
 1004BOLB   C3D24095   6.860  17.879  10.459 -0.1044 -0.0610  0.2422
 1004BOLB   C4D24096   7.192  17.753  10.579 -0.0126 -0.0125 -0.2987
 1005BOLB   NC124097   9.256  15.216  12.380 -0.2904 -0.0306 -0.0190
 1005BOLB   PO124098   8.984  15.333  12.022  0.0876  0.0696  0.0964
 1005BOLB   GL124099   8.846  15.518  11.620 -0.2395  0.0242 -0.2952
 1005BOLB   GL224100   8.544  15.749  11.761  0.1573 -0.3488 -0.1628
 1005BOLB   C1A24101   8.534  15.524  11.264 -0.0810  0.1139 -0.1186
 1005BOLB   C2A24102   8.140  15.532  11.119  0.1658 -0.1246 -0.1637
 1005BOLB   C3A24103   7.836  15.595  10.724  0.0532  0.2864  0.0076
 1005BOLB   C4A24104   7.579  15.703  10.370  0.1130  0.0329  0.0284
 1005BOLB   C1B24105   8.184  15.456  11.617  0.1903  0.0544 -0.2301
 1005BOLB   C2B24106   7.738  15.492  11.411 -0.1865  0.1985 -0.2678
 1005BOLB   C3B24107   7.401  15.557  11.088 -0.1223 -0.3645 -0.2385
 1005BOLB   C4B24108   7.291  15.388  10.761  0.2138  0.1733 -0.1206
 1005BOLB   NC224109   6.312  16.786   8.139 -0.1708 -0.0361 -0.2898
 1005BOLB   PO224110   6.446  16.414   8.239  0.0902 -0.3016  0.2813
 1005BOLB   GL324111   6.685  16.394   8.569  0.0457  0.0315  0.0516
 1005BOLB   GL424112   6.599  16.190   8.760  0.3493  0.0182 -0.3864
 1005BOLB   C1C24113   6.828  16.638   8.973  0.0503  0.1166 -0.0112
 1005BOLB   C2C24114   6.856  16.518   9.351  0.0393  0.0172  0.0885
 1005BOLB   C3C24115   7.048  16.206   9.690  0.5192  0.1866  0.0856
 1005BOLB   C4C24116   7.193  15.964  10.101  0.3161 -0.1766 -0.1102
 1005BOLB   C1D24117   6.605  16.038   9.165  0.0973  0.2781 -0.1389
 1005BOLB   C2D24118   6.789  15.800   9.422  0.0076  0.1660  0.5032
 1005BOLB   C3D24119   6.955  15.657   9.759  0.0163  0.3313  0.0078
 1005BOLB   C4D24120   7.287  15.464   9.968 -0.2147  0.0882  0.0097
 1006BOLB   NC124121   6.131  16.468  14.446  0.0939  0.1154 -0.2384
 1006BOLB   PO124122   5.965  16.129  14.243  0.1417 -0.0700 -0.1362
 1006BOLB   GL124123   5.704  15.846  14.036 -0.2093 -0.3496  0.1592
 1006BOLB   GL224124   5.435  15.749  14.097 -0.3169 -0.0782  0.0444
 1006BOLB   C1A24125   5.433  16.060  13.669  0.3729  0.1975 -0.3599
 1006BOLB   C2A24126   5.129  16.195  13.382  0.0960  0.1938  0.0839
 1006BOLB   C3A24127   4.737  16.151  13.215 -0.0656  0.1315 -0.1684
 1006BOLB   C4A24128   4.473  16.430  13.094  0.0082  0.1118  0.0538
 1006BOLB   C1B24129   5.001  15.931  13.996 -0.0256  0.1607  0.1576
 1006BOLB   C2B24130   4.765  16.268  13.811  0.0363 -0.2109  0.1739
 1006BOLB   C3B24131   4.825  16.573  13.488 -0.0844  0.3243  0.0589
 1006BOLB   C4B24132   4.907  16.895  13.147 -0.0291 -0.3291  0.2187
 1006BOLB   NC224133   1.893  16.954  12.791  0.3629 -0.0800 -0.0572
 1006BOLB   PO224134   2.148  17.133  13.144 -0.0823  0.2253  0.2515
 1006BOLB   GL324135   2.543  17.103  13.250 -0.0178 -0.2331  0.4110
 1006BOLB   GL424136   2.503  16.816  13.455 -0.3743 -0.4997 -0.0002
 1006BOLB   C1C24137   2.974  17.101  13.315  0.2684 -0.1871 -0.0366
 1006BOLB   C2C24138   3.470  17.174  13.186  0.4009  0.0963  0.2499
 1006BOLB   C3C24139   3.820  17.063  13.257 -0.2492 -0.1087 -0.2409
 1006BOLB   C4C24140   4.158  16.798  13.071 -0.0157 -0.3482 -0.0290
 1006BOLB   C1D24141   2.870  16.995  13.751 -0.0670 -0.2701 -0.2527
 1006BOLB   C2D24142   3.125  16.741  13.952  0.1692  0.2527 -0.3775
 1006BOLB   C3D24143   3.347  16.447  14.208 -0.0860 -0.2753 -0.0528
 1006BOLB   C4D24144   3.581  16.265  14.445  0.3590  0.1491 -0.1232
 1007BOLB   NC124145   5.609  10.284  10.667 -0.0148  0.1667 -0.0613
 1007BOLB   PO124146   5.334  10.586  10.837  0.0665 -0.1022  0.2313
 1007BOLB   GL124147   5.648  10.866  10.774  0.0448 -0.1682 -0.1847
 1007BOLB   GL224148   5.828  10.795  10.548 -0.0794 -0.2052  0.0409
 1007BOLB   C1A24149   5.928  11.202  10.922  0.0297 -0.1683  0.3929
 1007BOLB   C2A24150   5.868  11.635  10.778  0.1963 -0.0496 -0.2462
 1007BOLB   C3A24151   5.704  12.018  10.892  0.0128 -0.0313 -0.0673
 1007BOLB   C4A24152   5.323  12.217  10.629 -0.2399 -0.0922  0.4404
 1007BOLB   C1B24153   6.292  10.810  10.705 -0.1128  0.2294 -0.0061
 1007BOLB   C2B24154   6.649  10.895  10.726 -0.1150  0.1693 -0.3345
 1007BOLB   C3B24155   7.170  10.806  10.577  0.0680  0.1493 -0.3443
 1007BOLB   C4B24156   7.589  10.822  10.632 -0.1501  0.0420  0.1792
 1007BOLB   NC224157   5.124  11.265   9.283 -0.0319 -0.0774 -0.0256
 1007BOLB   PO224158   5.356  11.500   8.901 -0.4450  0.4140  0.0154
 1007BOLB   GL324159   5.753  11.683   8.986 -0.2287 -0.0407  0.3145
 1007BOLB   GL424160   6.009  11.481   8.968 -0.3824  0.0544 -0.2664
 1007BOLB   C1C24161   5.856  11.909   9.408  0.3623  0.2896  0.3274
 1007BOLB   C2C24162   5.603  12.101   9.712  0.3376 -0.2410  0.0903
 1007BOLB   C3C24163   5.637  12.428  10.104  0.1459  0.1714 -0.0892
 1007BOLB   C4C24164   5.481  12.546  10.462 -0.0847 -0.0389  0.0675
 1007BOLB   C1D24165   6.400  11.371   9.010 -0.0715  0.0937  0.3135
 1007BOLB   C2D24166   6.623  10.983   9.030 -0.1586  0.1338  0.1725
 1007BOLB   C3D24167   6.578  10.618   9.193  0.0165 -0.1369  0.2619
 1007BOLB   C4D24168   6.567  10.310   9.374 -0.1174  0.3885  0.2467
 1008BOLB   NC124169   8.556  19.551  12.506  0.1197 -0.3335  0.0194
 1008BOLB   PO124170   8.339  19.880  12.696 -0.0232 -0.0641  0.0630
 1008BOLB   GL124171   8.223  20.151  12.378 -0.2503 -0.0664  0.2378
 1008BOLB   GL224172   8.349  19.882  12.183 -0.1031 -0.1295 -0.2840
 1008BOLB   C1A24173   8.068  20.474  12.199  0.2488 -0.1856  0.1350
 1008BOLB   C2A24174   7.595  20.286  12.246  0.0812  0.1952 -0.0582
 1008BOLB   C3A24175   7.187  20.163  12.241 -0.0640 -0.0030 -0.0944
 1008BOLB   C4A24176   6.924  20.384  12.017 -0.0760  0.1084  0.0397
 1008BOLB   C1B24177   7.938  19.893  12.020  0.0618  0.1052 -0.1320
 1008BOLB   C2B24178   7.724  20.104  11.794 -0.5122  0.0458 -0.1972
 1008BOLB   C3B24179   7.520  20.500  11.790  0.2051 -0.1619  0.1544
 1008BOLB   C4B24180   7.385  20.708  11.416 -0.3203 -0.0726  0.0435
 1008BOLB   NC224181   4.283  19.575  11.395  0.0985 -0.2227 -0.0781
 1008BOLB   PO224182   4.592  19.896  11.480 -0.4010  0.0772  0.4073
 1008BOLB   GL324183   4.948  20.077  11.432  0.3446  0.2695  0.0583
 1008BOLB   GL424184   4.895  20.273  11.173 -0.2100 -0.4479  0.2352
 1008BOLB   C1C24185   5.379  19.961  11.432  0.2590  0.1747 -0.5365
 1008BOLB   C2C24186   5.879  20.165  11.509 -0.1057 -0.0481  0.0896
 1008BOLB   C3C24187   6.310  20.284  11.671  0.0739  0.1402  0.0607
 1008BOLB   C4C24188   6.615  20.415  11.926  0.1699  0.3447 -0.2052
 1008BOLB   C1D24189   5.294  20.268  11.064  0.0211 -0.0303  0.1404
 1008BOLB   C2D24190   5.742  20.115  11.054  0.1723 -0.1610 -0.2868
 1008BOLB   C3D24191   5.986  20.175  10.743  0.2365  0.2509 -0.2411
 1008BOLB   C4D24192   6.494  20.243  10.673  0.0713 -0.1167 -0.1932
 1009BOLB   NC124193   8.310   8.900  11.717  0.0836  0.1822 -0.1622
 1009BOLB   PO124194   8.095   8.671  11.309  0.2579  0.0172  0.2277
 1009BOLB   GL124195   8.057   9.023  10.988 -0.1437 -0.1942 -0.0259
 1009BOLB   GL224196   7.941   8.890  10.605 -0.0047 -0.0621 -0.0305
 1009BOLB   C1A24197   8.375   9.090  10.659 -0.2305  0.0432 -0.3757
 1009BOLB   C2A24198   8.691   8.773  10.422  0.2227 -0.0316 -0.1095
 1009BOLB   C3A24199   9.006   8.688  10.374  0.0994  0.2264  0.2433
 1009BOLB   C4A24200   9.361   8.677  10.116 -0.1411  0.0432  0.2861
 1009BOLB   C1B24201   7.710   9.285  10.711 -0.1171  0.0972  0.3095
 1009BOLB   C2B24202   7.376   9.614  10.632 -0.0310  0.0556 -0.3045
 1009BOLB   C3B24203   7.406   9.926  10.474 -0.0480 -0.1582 -0.2456
 1009BOLB   C4B24204   7.515  10.327  10.464  0.0500  0.1780  0.1190
 1009BOLB   NC224205  10.146   7.612   8.172 -0.1901  0.0186 -0.0487
 1009BOLB   PO224206  10.108   7.349   8.513  0.0705 -0.1360  0.0559
 1009BOLB   GL324207  10.106   7.479   8.893 -0.1610  0.2725 -0.0102
 1009BOLB   GL424208  10.432   7.648   8.916 -0.1115 -0.0026 -0.0296
 1009BOLB   C1C24209  10.120   7.514   9.289  0.0915 -0.1170  0.1458
 1009BOLB   C2C24210   9.934   7.942   9.509 -0.1181 -0.2025  0.2308
 1009BOLB   C3C24211   9.623   8.169   9.565  0.0125  0.1719 -0.0001
 1009BOLB   C4C24212   9.477   8.552   9.768 -0.3341 -0.4033 -0.0510
 1009BOLB   C1D24213  10.450   7.945   9.234 -0.1534  0.0077  0.0668
 1009BOLB   C2D24214  10.795   7.989   9.420  0.1617  0.1603 -0.1848
 1009BOLB   C3D24215  11.031   8.252   9.685  0.1234 -0.0776 -0.0644
 1009BOLB   C4D24216  11.077   8.436  10.188  0.0203 -0.3829  0.4496
 1010BOLB   NC124217   6.275  10.052  11.252  0.4303 -0.1769 -0.0575
 1010BOLB   PO124218   6.462  10.523  11.205  0.2550  0.0412 -0.3049
 1010BOLB   GL124219   6.739  10.816  11.401 -0.0249 -0.2675 -0.0618
 1010BOLB   GL224220   6.569  10.968  11.699  0.1668 -0.0239 -0.2946
 1010BOLB   C1A24221   6.874  11.134  11.253  0.2340  0.0620  0.2537
 1010BOLB   C2A24222   7.143  11.120  10.944  0.3642 -0.3958  0.1048
 1010BOLB   C3A24223   7.449  11.318  10.516 -0.2454  0.1312  0.0834
 1010BOLB   C4A24224   7.590  11.351  10.121 -0.1394 -0.1348  0.0187
 1010BOLB   C1B24225   6.508  11.402  11.498  0.0368 -0.1715  0.0782
 1010BOLB   C2B24226   6.780  11.614  11.233  0.1124  0.1742  0.0657
 1010BOLB   C3B24227   6.818  11.636  10.837 -0.0572 -0.0616 -0.0654
 1010BOLB   C4B24228   6.952  11.421  10.509 -0.0622  0.0239 -0.1979
 1010BOLB   NC224229   7.469  10.797   8.028 -0.0279 -0.0394  0.2320
 1010BOLB   PO224230   7.207  10.543   8.104 -0.1748  0.1593  0.0728
 1010BOLB   GL324231   7.324  10.476   8.538  0.0242 -0.1513  0.0832
 1010BOLB   GL424232   7.171  10.212   8.600 -0.1815 -0.0124 -0.1112
 1010BOLB   C1C24233   7.538  10.743   8.864  0.2849  0.1796 -0.0274
 1010BOLB   C2C24234   7.566  11.207   8.961  0.3269  0.0201 -0.3229
 1010BOLB   C3C24235   7.772  11.367   9.200 -0.2149 -0.0905 -0.1850
 1010BOLB   C4C24236   7.770  11.446   9.617 -0.3397  0.0654  0.2438
 1010BOLB   C1D24237   7.372  10.234   9.037 -0.1036  0.1580 -0.2320
 1010BOLB   C2D24238   7.375  10.533   9.345 -0.5170 -0.1088  0.1336
 1010BOLB   C3D24239   6.947  10.713   9.529 -0.1856  0.2578 -0.3741
 1010BOLB   C4D24240   6.817  11.015   9.773  0.3103  0.2059  0.2942
 1011BOLB   NC124241   8.219  16.531  13.099  0.1014 -0.2537  0.2023
 1011BOLB   PO124242   8.186  16.228  12.711 -0.2508 -0.2638 -0.0779
 1011BOLB   GL124243   7.821  16.129  12.398  0.1456  0.3124 -0.1858
 1011BOLB   GL224244   7.910  16.271  12.102  0.1994  0.0932 -0.0158
 1011BOLB   C1A24245   7.420  16.357  12.151  0.2216 -0.1704  0.0051
 1011BOLB   C2A24246   7.216  16.571  11.764  0.1520 -0.5209  0.0114
 1011BOLB   C3A24247   7.118  16.552  11.327  0.1122  0.0112 -0.1589
 1011BOLB   C4A24248   6.838  16.500  10.913 -0.0883  0.1280  0.0627
 1011BOLB   C1B24249   7.752  16.364  11.789 -0.0934 -0.0738  0.0124
 1011BOLB   C2B24250   7.593  16.434  11.398  0.2347  0.1136 -0.0999
 1011BOLB   C3B24251   7.609  16.513  10.994 -0.0420  0.0178  0.2368
 1011BOLB   C4B24252   7.804  16.536  10.599  0.2359  0.1827  0.1235
 1011BOLB   NC224253   5.165  16.493   8.851  0.2631 -0.0571  0.1118
 1011BOLB   PO224254   4.905  16.589   9.210  0.2097  0.0813 -0.2130
 1011BOLB   GL324255   5.333  16.585   9.417 -0.3400 -0.2694  0.0134
 1011BOLB   GL424256   5.566  16.588   9.238 -0.0075 -0.0645  0.0488
 1011BOLB   C1C24257   5.686  16.800   9.665 -0.0955 -0.0258  0.0841
 1011BOLB   C2C24258   6.118  16.812   9.855  0.6251  0.1765  0.0523
 1011BOLB   C3C24259   6.351  16.742  10.182  0.3001  0.0643 -0.1174
 1011BOLB   C4C24260   6.684  16.733  10.551  0.3453 -0.1621 -0.0374
 1011BOLB   C1D24261   5.937  16.632   9.280 -0.0536  0.1290 -0.3074
 1011BOLB   C2D24262   6.352  16.668   9.423  0.1189 -0.1640 -0.0035
 1011BOLB   C3D24263   6.525  16.484   9.774 -0.0778  0.0162  0.0518
 1011BOLB   C4D24264   6.797  16.366  10.105 -0.0453  0.0814  0.0342
 1012BOLB   NC124265   8.758  18.721  12.040  0.3640  0.0955  0.2113
 1012BOLB   PO124266   8.351  19.075  12.104  0.0066  0.0773 -0.2489
 1012BOLB   GL124267   8.124  18.898  11.760  0.1703  0.0292 -0.2318
 1012BOLB   GL224268   7.840  18.818  11.962 -0.4316 -0.2847  0.0102
 1012BOLB   C1A24269   7.809  19.149  11.517  0.7000 -0.5612 -0.0910
 1012BOLB   C2A24270   7.341  19.380  11.641 -0.1188 -0.1391  0.1601
 1012BOLB   C3A24271   6.970  19.609  11.388  0.0250 -0.1190 -0.1162
 1012BOLB   C4A24272   7.008  19.570  10.918  0.0081  0.3594 -0.3398
 1012BOLB   C1B24273   7.434  18.862  11.806  0.3482  0.1151 -0.0601
 1012BOLB   C2B24274   7.052  18.899  11.713 -0.1535 -0.0978 -0.2054
 1012BOLB   C3B24275   6.982  19.123  11.484  0.1004  0.1226 -0.0351
 1012BOLB   C4B24276   6.888  19.132  11.075 -0.2379 -0.1462 -0.3905
 1012BOLB   NC224277   5.830  19.434   8.753  0.1684 -0.1623  0.3345
 1012BOLB   PO224278   6.276  19.680   8.542 -0.1785  0.1606 -0.1155
 1012BOLB   GL324279   6.750  19.645   8.703 -0.0618  0.1071 -0.0298
 1012BOLB   GL424280   7.045  19.659   8.721  0.1137 -0.0167  0.0135
 1012BOLB   C1C24281   6.800  19.661   9.167  0.1783 -0.0795  0.0993
 1012BOLB   C2C24282   6.839  19.816   9.543 -0.0421 -0.2806 -0.2800
 1012BOLB   C3C24283   6.885  19.699   9.987 -0.1156 -0.3261 -0.1225
 1012BOLB   C4C24284   6.892  19.695  10.514 -0.0322  0.1983  0.0880
 1012BOLB   C1D24285   7.271  19.494   9.098 -0.3789  0.3085 -0.0897
 1012BOLB   C2D24286   7.154  19.463   9.503 -0.0840 -0.2253 -0.1079
 1012BOLB   C3D24287   6.964  19.249   9.842 -0.2885  0.1611 -0.3465
 1012BOLB   C4D24288   6.760  19.188  10.219  0.0484  0.1015 -0.0931
 1013BOLB   NC124289   8.747  13.918  11.976  0.0753 -0.2115  0.1223
 1013BOLB   PO124290   8.727  13.552  11.861 -0.1693 -0.1347 -0.1710
 1013BOLB   GL124291   8.382  13.461  11.689 -0.4139  0.0548  0.2248
 1013BOLB   GL224292   8.215  13.596  11.713  0.2275 -0.3404  0.2657
 1013BOLB   C1A24293   8.265  13.401  11.196  0.0171 -0.1398 -0.0885
 1013BOLB   C2A24294   8.277  13.550  10.817  0.0482 -0.0263 -0.0743
 1013BOLB   C3A24295   8.117  13.696  10.420  0.0576 -0.3224  0.2242
 1013BOLB   C4A24296   8.028  13.864  10.014  0.0392  0.4075 -0.0080
 1013BOLB   C1B24297   7.776  13.540  11.595  0.1003  0.0823 -0.1154
 1013BOLB   C2B24298   7.404  13.600  11.208  0.3816  0.0873  0.2820
 1013BOLB   C3B24299   7.223  13.582  10.794  0.0482  0.0718 -0.3828
 1013BOLB   C4B24300   7.104  13.638  10.345  0.1298 -0.0385 -0.0835
 1013BOLB   NC224301   7.243  13.626   7.285 -0.0551 -0.2928 -0.1080
 1013BOLB   PO224302   7.623  13.368   7.456 -0.0786 -0.0821  0.1249
 1013BOLB   GL324303   7.852  13.407   7.919  0.3324  0.0534  0.1756
 1013BOLB   GL424304   7.724  13.167   8.140 -0.1890 -0.0343 -0.1006
 1013BOLB   C1C24305   8.048  13.488   8.416  0.1103  0.3003 -0.0213
 1013BOLB   C2C24306   8.244  13.560   8.712 -0.0361 -0.1317 -0.4076
 1013BOLB   C3C24307   8.197  13.718   9.112 -0.0249 -0.2320 -0.1135
 1013BOLB   C4C24308   8.096  13.891   9.555  0.2233  0.2015 -0.0596
 1013BOLB   C1D24309   7.601  13.164   8.625 -0.0077 -0.0486 -0.1391
 1013BOLB   C2D24310   7.578  13.062   9.028 -0.4857 -0.0859 -0.2532
 1013BOLB   C3D24311   7.775  12.924   9.429  0.0345  0.0992 -0.4442
 1013BOLB   C4D24312   8.051  12.961   9.728  0.0178  0.3030  0.0882
 1014BOLB   NC124313   8.793  20.185  12.394  0.1801  0.0687 -0.3236
 1014BOLB   PO124314   8.887  19.792  12.261  0.2126 -0.0099 -0.2396
 1014BOLB   GL124315   8.612  19.549  11.949 -0.0714 -0.1275 -0.2491
 1014BOLB   GL224316   8.645  19.251  11.757  0.1719  0.1578 -0.0180
 1014BOLB   C1A24317   8.235  19.659  11.662  0.0015  0.2559  0.0722
 1014BOLB   C2A24318   8.026  19.985  11.398 -0.2192 -0.2443  0.1070
 1014BOLB   C3A24319   7.554  20.001  11.273  0.1028 -0.2383  0.0784
 1014BOLB   C4A24320   7.173  19.992  11.169 -0.4022 -0.2141  0.0923
 1014BOLB   C1B24321   8.375  19.094  11.302 -0.1914 -0.0671  0.0128
 1014BOLB   C2B24322   8.006  19.125  11.048  0.0857  0.0376 -0.0533
 1014BOLB   C3B24323   7.736  19.138  10.670 -0.1839 -0.0925  0.2749
 1014BOLB   C4B24324   7.231  19.279  10.535 -0.0030 -0.1029  0.4168
 1014BOLB   NC224325   4.659  20.425  10.442  0.1373  0.1138  0.2619
 1014BOLB   PO224326   5.137  20.494  10.209  0.1369  0.0663 -0.0394
 1014BOLB   GL324327   5.522  20.608  10.509 -0.1754  0.1807 -0.1539
 1014BOLB   GL424328   5.752  20.370  10.354  0.1102 -0.0242 -0.0336
 1014BOLB   C1C24329   5.566  20.666  10.939 -0.1379 -0.1992 -0.1936
 1014BOLB   C2C24330   5.974  20.582  11.118  0.1192 -0.0318  0.0732
 1014BOLB   C3C24331   6.343  20.312  11.196 -0.0719 -0.1267 -0.0090
 1014BOLB   C4C24332   6.731  20.024  11.064  0.0666 -0.0938  0.0779
 1014BOLB   C1D24333   6.111  20.022  10.274 -0.0292  0.0072 -0.0879
 1014BOLB   C2D24334   6.413  19.763  10.490  0.0682  0.0049 -0.0746
 1014BOLB   C3D24335   6.295  19.821  11.002  0.0612 -0.0696 -0.1090
 1014BOLB   C4D24336   6.235  19.845  11.377  0.2033 -0.1232 -0.0363
 1015BOLB   NC124337   3.986  14.974  15.289  0.0855 -0.1343  0.0016
 1015BOLB   PO124338   4.168  15.335  15.484 -0.0925 -0.2729  0.0370
 1015BOLB   GL124339   4.069  15.790  15.642 -0.1026 -0.1359 -0.2384
 1015BOLB   GL224340   4.287  16.057  15.599  0.2650  0.2578 -0.1366
 1015BOLB   C1A24341   3.735  16.053  15.328  0.3453 -0.0141  0.0727
 1015BOLB   C2A24342   3.809  16.391  15.148 -0.2541 -0.3134  0.2234
 1015BOLB   C3A24343   3.874  16.787  15.173  0.2623 -0.1473  0.1516
 1015BOLB   C4A24344   3.633  17.117  15.036  0.2423 -0.1301  0.0334
 1015BOLB   C1B24345   4.320  16.540  15.563 -0.0256  0.0164  0.1532
 1015BOLB   C2B24346   4.227  17.017  15.553  0.2023  0.3526 -0.2389
 1015BOLB   C3B24347   4.075  17.486  15.738 -0.0560  0.1963 -0.1497
 1015BOLB   C4B24348   3.742  17.677  15.906 -0.3869  0.0548  0.0708
 1015BOLB   NC224349   1.570  16.939  13.769 -0.0962 -0.1148  0.0542
 1015BOLB   PO224350   1.474  16.996  14.324  0.0020 -0.4230  0.0567
 1015BOLB   GL324351   1.902  16.894  14.283  0.2160  0.1786  0.3306
 1015BOLB   GL424352   2.078  17.147  14.413 -0.0124  0.2096  0.1917
 1015BOLB   C1C24353   2.129  16.680  14.618 -0.2063 -0.3160 -0.2643
 1015BOLB   C2C24354   2.598  16.820  14.686 -0.4001 -0.3236 -0.2637
 1015BOLB   C3C24355   2.773  17.178  14.666  0.0860 -0.0515 -0.0128
 1015BOLB   C4C24356   3.244  17.147  14.851 -0.0147  0.4129  0.2349
 1015BOLB   C1D24357   2.491  16.963  14.243 -0.1596 -0.5221 -0.1265
 1015BOLB   C2D24358   2.946  16.958  14.309  0.2818  0.0624 -0.0795
 1015BOLB   C3D24359   3.360  16.852  14.514 -0.1649 -0.3372 -0.0216
 1015BOLB   C4D24360   3.586  17.142  14.516  0.1362  0.2429  0.1545
 1016BOLB   NC124361   5.100  15.008  15.074  0.1612  0.1069  0.1372
 1016BOLB   PO124362   5.210  14.986  14.586  0.1416 -0.2920  0.1096
 1016BOLB   GL124363   5.136  15.141  14.171  0.1555  0.1743 -0.1952
 1016BOLB   GL224364   5.041  15.497  14.297 -0.0273  0.1455 -0.0703
 1016BOLB   C1A24365   5.129  15.079  13.751 -0.1212 -0.1291 -0.2757
 1016BOLB   C2A24366   4.969  15.278  13.520 -0.0463  0.1596 -0.3349
 1016BOLB   C3A24367   4.979  15.633  13.134 -0.1287  0.3709  0.1413
 1016BOLB   C4A24368   4.875  15.826  12.871 -0.2373  0.1954  0.1249
 1016BOLB   C1B24369   4.668  15.284  14.200 -0.1437 -0.0305 -0.1803
 1016BOLB   C2B24370   4.259  15.427  14.479 -0.0813  0.0869 -0.2845
 1016BOLB   C3B24371   3.901  15.635  14.800  0.2131  0.0562 -0.0882
 1016BOLB   C4B24372   3.692  15.643  15.100  0.1020  0.4151 -0.1765
 1016BOLB   NC224373   2.522  17.079  11.744  0.1637  0.1222 -0.2689
 1016BOLB   PO224374   2.970  16.924  11.786  0.0126  0.4009  0.0731
 1016BOLB   GL324375   3.184  16.674  12.048 -0.1492  0.1270  0.1690
 1016BOLB   GL424376   3.304  16.535  11.752 -0.1342 -0.0180 -0.0809
 1016BOLB   C1C24377   3.641  16.484  12.067 -0.1478 -0.1559 -0.0196
 1016BOLB   C2C24378   3.983  16.215  12.282  0.2784 -0.2006 -0.2333
 1016BOLB   C3C24379   4.267  16.059  12.297  0.1882  0.3160  0.2318
 1016BOLB   C4C24380   4.637  15.782  12.581  0.1608  0.2322 -0.0845
 1016BOLB   C1D24381   3.346  16.121  11.964 -0.2294  0.0368 -0.1961
 1016BOLB   C2D24382   3.624  15.895  12.260  0.0362 -0.2608 -0.2561
 1016BOLB   C3D24383   3.941  15.720  12.475 -0.2953  0.1093 -0.2913
 1016BOLB   C4D24384   4.162  15.452  12.801  0.0778 -0.1659 -0.2447
 1017BOLB   NC124385   8.192  15.759  13.080 -0.2009 -0.1518 -0.1181
 1017BOLB   PO124386   7.845  15.969  12.980  0.0108 -0.1837 -0.0666
 1017BOLB   GL124387   7.491  15.797  12.706  0.1061 -0.0831 -0.1445
 1017BOLB   GL224388   7.340  16.118  12.561 -0.0075  0.3611 -0.1735
 1017BOLB   C1A24389   7.461  15.695  12.275 -0.0499  0.0340 -0.0676
 1017BOLB   C2A24390   7.571  15.895  11.876  0.0682  0.1159  0.0048
 1017BOLB   C3A24391   7.377  15.930  11.455  0.1651  0.1574  0.0958
 1017BOLB   C4A24392   7.099  16.049  11.190  0.0510  0.2787 -0.2547
 1017BOLB   C1B24393   6.876  16.040  12.458 -0.2059  0.0972  0.1735
 1017BOLB   C2B24394   6.629  16.089  12.185  0.3778  0.1596 -0.0365
 1017BOLB   C3B24395   6.414  16.124  11.841 -0.2452  0.3498  0.2263
 1017BOLB   C4B24396   6.149  16.184  11.548 -0.2469 -0.2269  0.1742
 1017BOLB   NC224397   6.143  16.360   8.697 -0.0682 -0.3485 -0.0595
 1017BOLB   PO224398   6.167  15.876   8.779 -0.0362 -0.2374 -0.0621
 1017BOLB   GL324399   6.096  16.103   9.104  0.0181  0.1754 -0.0524
 1017BOLB   GL424400   5.927  15.763   9.263  0.3291 -0.0500 -0.3529
 1017BOLB   C1C24401   6.350  16.053   9.569 -0.2166  0.0080 -0.0060
 1017BOLB   C2C24402   6.560  15.946   9.908  0.0880 -0.3773 -0.3718
 1017BOLB   C3C24403   6.716  15.903  10.392 -0.2717 -0.1569  0.0218
 1017BOLB   C4C24404   6.893  15.859  10.880 -0.5080  0.2440 -0.1037
 1017BOLB   C1D24405   5.953  15.268   9.302 -0.2539  0.0798 -0.4182
 1017BOLB   C2D24406   6.165  15.079   9.708 -0.0348  0.2081 -0.2109
 1017BOLB   C3D24407   6.273  15.153  10.101 -0.1972 -0.2376 -0.1706
 1017BOLB   C4D24408   6.374  15.149  10.488  0.1618  0.1068  0.1200
 1018BOLB   NC124409   2.221  15.595  14.344 -0.0303 -0.2635  0.1428
 1018BOLB   PO124410   2.254  15.949  14.088 -0.0453  0.0875  0.0174
 1018BOLB   GL124411   2.584  15.980  13.825 -0.0692  0.1097 -0.1733
 1018BOLB   GL224412   2.569  16.137  13.540 -0.1458  0.2736  0.0544
 1018BOLB   C1A24413   2.954  15.782  13.683 -0.0382  0.3234  0.0628
 1018BOLB   C2A24414   3.046  15.393  13.594 -0.0104  0.1403  0.0746
 1018BOLB   C3A24415   3.079  15.113  13.247  0.4253  0.2263  0.0940
 1018BOLB   C4A24416   3.360  14.957  13.183 -0.2579  0.1807 -0.0330
 1018BOLB   C1B24417   2.917  16.331  13.366 -0.4502  0.0217 -0.0331
 1018BOLB   C2B24418   3.262  16.616  13.413  0.2269  0.0910  0.1074
 1018BOLB   C3B24419   3.548  16.883  13.645 -0.0544  0.4497  0.3402
 1018BOLB   C4B24420   3.928  16.775  13.651 -0.0233 -0.2215 -0.2124
 1018BOLB   NC224421   2.737  15.388  11.437  0.2368 -0.0413  0.0222
 1018BOLB   PO224422   3.004  14.968  11.525 -0.1210  0.2020  0.1814
 1018BOLB   GL324423   3.284  15.041  11.861 -0.0214 -0.1217  0.0238
 1018BOLB   GL424424   3.116  15.051  12.182  0.0061  0.0623 -0.1383
 1018BOLB   C1C24425   3.576  15.260  12.053  0.1511  0.1567  0.0934
 1018BOLB   C2C24426   3.893  15.242  12.352 -0.1469 -0.2251 -0.0333
 1018BOLB   C3C24427   3.927  14.998  12.704  0.2952 -0.1308 -0.0859
 1018BOLB   C4C24428   3.709  14.799  12.943 -0.1036  0.0750 -0.1266
 1018BOLB   C1D24429   3.337  15.235  12.502 -0.1991 -0.1242 -0.2238
 1018BOLB   C2D24430   3.561  15.377  12.736  0.1768 -0.0104  0.5496
 1018BOLB   C3D24431   3.796  15.292  13.112  0.0360 -0.1655  0.0534
 1018BOLB   C4D24432   3.798  14.953  13.399 -0.0222 -0.5729  0.0091
 1019BOLB   NC124433   7.141  25.173  11.523 -0.1764 -0.4510 -0.1482
 1019BOLB   PO124434   7.277  24.758  11.407  0.0905  0.1188  0.0754
 1019BOLB   GL124435   7.594  24.514  11.214 -0.0399  0.0017  0.0160
 1019BOLB   GL224436   7.750  24.314  11.484  0.0662  0.1025  0.0618
 1019BOLB   C1A24437   7.910  24.444  10.926  0.4355 -0.0663  0.0672
 1019BOLB   C2A24438   8.243  24.254  10.893  0.0458  0.0326  0.0499
 1019BOLB   C3A24439   8.681  24.164  10.849 -0.0643 -0.4086  0.1600
 1019BOLB   C4A24440   8.978  24.161  10.577 -0.3484  0.2005  0.2325
 1019BOLB   C1B24441   7.453  24.062  11.141  0.1019  0.1752  0.1415
 1019BOLB   C2B24442   7.565  23.686  10.861  0.1541  0.2707  0.0669
 1019BOLB   C3B24443   7.873  23.480  10.943 -0.0995 -0.2255  0.0597
 1019BOLB   C4B24444   8.174  23.261  10.984  0.1961  0.1181  0.1329
 1019BOLB   NC224445   7.686  25.251  10.100 -0.3424 -0.2729  0.1799
 1019BOLB   PO224446   7.522  25.127   9.768 -0.3313 -0.0323  0.3044
 1019BOLB   GL324447   7.764  24.734   9.869  0.2638 -0.0870  0.2482
 1019BOLB   GL424448   7.644  24.367   9.896 -0.0619 -0.0645  0.2929
 1019BOLB   C1C24449   8.077  24.488   9.568  0.1142  0.0202  0.2741
 1019BOLB   C2C24450   8.439  24.366   9.559 -0.0419  0.0560  0.0135
 1019BOLB   C3C24451   8.760  24.180   9.653 -0.0681 -0.0375  0.1755
 1019BOLB   C4C24452   9.059  24.144  10.116 -0.0266 -0.0612  0.3609
 1019BOLB   C1D24453   8.095  24.448  10.076 -0.0071  0.1653 -0.1758
 1019BOLB   C2D24454   8.239  24.254  10.345 -0.1749  0.2148  0.0709
 1019BOLB   C3D24455   8.577  23.928  10.413 -0.1403  0.2634  0.1415
 1019BOLB   C4D24456   8.862  23.710  10.272 -0.1792 -0.2476 -0.0253
 1020BOLB   NC124457   3.667  12.327  13.323 -0.0456 -0.1356  0.3920
 1020BOLB   PO124458   3.574  12.747  13.352 -0.0613  0.2141  0.0133
 1020BOLB   GL124459   3.663  13.042  13.063  0.0733 -0.0818 -0.1236
 1020BOLB   GL224460   3.841  12.933  12.793  0.2120 -0.0471 -0.1534
 1020BOLB   C1A24461   3.861  13.395  13.208 -0.2432 -0.0801  0.0462
 1020BOLB   C2A24462   4.194  13.802  13.259 -0.0752  0.1337  0.1409
 1020BOLB   C3A24463   4.585  13.958  13.010  0.1273  0.0663  0.2458
 1020BOLB   C4A24464   4.613  14.072  12.566 -0.0695  0.1360  0.2296
 1020BOLB   C1B24465   3.723  13.341  12.651 -0.1692 -0.0144 -0.1615
 1020BOLB   C2B24466   3.585  13.729  12.623  0.1248 -0.0435 -0.3688
 1020BOLB   C3B24467   3.349  14.170  12.465 -0.1529 -0.0009 -0.0862
 1020BOLB   C4B24468   3.189  14.457  12.243 -0.2310  0.1613 -0.2954
 1020BOLB   NC224469   2.382  13.582  12.029  0.1464 -0.1166 -0.4062
 1020BOLB   PO224470   2.867  13.628  12.088  0.1725  0.1747  0.2539
 1020BOLB   GL324471   3.214  13.898  12.013  0.0896 -0.1382 -0.2714
 1020BOLB   GL424472   3.369  13.631  12.033  0.0754  0.0168 -0.3201
 1020BOLB   C1C24473   3.437  14.118  11.779 -0.1120 -0.0029  0.1723
 1020BOLB   C2C24474   3.671  14.403  12.044  0.0566 -0.0268 -0.2921
 1020BOLB   C3C24475   4.042  14.430  12.039  0.0983  0.0683 -0.1802
 1020BOLB   C4C24476   4.368  14.277  12.236 -0.0191 -0.0246  0.0467
 1020BOLB   C1D24477   3.827  13.879  12.079  0.0513  0.3288  0.2120
 1020BOLB   C2D24478   3.931  14.122  12.409  0.0045  0.0139 -0.2363
 1020BOLB   C3D24479   3.757  14.510  12.524 -0.2613  0.5128  0.1226
 1020BOLB   C4D24480   3.520  14.799  12.375 -0.0523  0.0286 -0.1110
 1021BOLB   NC124481   4.974  22.628  11.900 -0.0156  0.0681 -0.0775
 1021BOLB   PO124482   5.354  22.785  11.902  0.3149  0.2822 -0.1823
 1021BOLB   GL124483   5.778  22.676  11.874 -0.0012 -0.0880  0.1083
 1021BOLB   GL224484   5.774  22.614  12.192 -0.2793 -0.2576  0.3854
 1021BOLB   C1A24485   6.228  22.657  11.823 -0.0988  0.0641  0.1726
 1021BOLB   C2A24486   6.453  22.356  11.774  0.0464 -0.1853  0.1332
 1021BOLB   C3A24487   6.741  22.085  12.034  0.2521  0.0705 -0.0488
 1021BOLB   C4A24488   6.913  21.794  12.253  0.4945  0.1167 -0.1965
 1021BOLB   C1B24489   6.009  22.295  12.132  0.0156 -0.3530 -0.0006
 1021BOLB   C2B24490   6.292  21.945  12.254  0.3174 -0.2539  0.4063
 1021BOLB   C3B24491   6.275  21.477  12.101  0.0630  0.1061  0.0473
 1021BOLB   C4B24492   5.975  21.145  12.199  0.0692  0.1343  0.0593
 1021BOLB   NC224493   5.043  22.505  12.910  0.2025 -0.0526  0.0904
 1021BOLB   PO224494   5.136  22.479  12.384 -0.1418  0.0809  0.0625
 1021BOLB   GL324495   5.334  22.201  12.649  0.0290 -0.2006  0.4862
 1021BOLB   GL424496   5.600  22.258  12.410 -0.0743 -0.2758 -0.0127
 1021BOLB   C1C24497   5.630  21.824  12.492 -0.0956  0.1525 -0.0400
 1021BOLB   C2C24498   5.971  21.590  12.465  0.3420 -0.0381 -0.0971
 1021BOLB   C3C24499   6.277  21.320  12.568 -0.1053 -0.0081  0.0384
 1021BOLB   C4C24500   6.666  21.489  12.498 -0.4940 -0.1200  0.1314
 1021BOLB   C1D24501   6.084  22.283  12.604  0.3595 -0.1290  0.1325
 1021BOLB   C2D24502   6.414  22.484  12.846  0.3208  0.0015 -0.0093
 1021BOLB   C3D24503   6.878  22.555  12.864  0.0861  0.1354  0.0859
 1021BOLB   C4D24504   7.350  22.634  12.900  0.1324  0.0736 -0.0888
 1022BOLB   NC124505   8.047  14.912  13.189 -0.1107  0.2350  0.1033
 1022BOLB   PO124506   7.712  14.950  12.768  0.2034 -0.2103 -0.1241
 1022BOLB   GL124507   7.729  14.843  12.310  0.0155 -0.0455  0.0472
 1022BOLB   GL224508   8.003  14.726  12.107 -0.3809 -0.1830 -0.2978
 1022BOLB   C1A24509   7.500  14.783  12.022  0.0135 -0.0577 -0.0055
 1022BOLB   C2A24510   7.320  14.980  11.658  0.2916  0.3687 -0.0928
 1022BOLB   C3A24511   7.169  14.974  11.113 -0.0451  0.0723 -0.1964
 1022BOLB   C4A24512   7.184  14.932  10.657  0.0504 -0.2093 -0.1772
 1022BOLB   C1B24513   7.825  15.009  11.690 -0.2085 -0.0226  0.0910
 1022BOLB   C2B24514   7.701  14.884  11.261  0.1039  0.1210  0.1742
 1022BOLB   C3B24515   7.692  15.098  10.830  0.0891  0.1045 -0.0282
 1022BOLB   C4B24516   7.571  15.201  10.347  0.1320 -0.0959 -0.3031
 1022BOLB   NC224517   6.275  15.501   8.487  0.0778  0.1641 -0.0972
 1022BOLB   PO224518   5.977  15.070   8.458 -0.0059 -0.2060  0.2407
 1022BOLB   GL324519   6.167  15.113   8.921 -0.0829 -0.2706 -0.1783
 1022BOLB   GL424520   6.349  15.443   8.977  0.1817 -0.0584 -0.2486
 1022BOLB   C1C24521   6.462  15.060   9.243 -0.1732  0.0701  0.2418
 1022BOLB   C2C24522   6.796  15.172   9.499  0.1824 -0.2234 -0.3099
 1022BOLB   C3C24523   7.024  15.086   9.815 -0.0584 -0.0602 -0.0723
 1022BOLB   C4C24524   7.116  15.082  10.209  0.2597  0.0367 -0.0029
 1022BOLB   C1D24525   6.358  15.596   9.350 -0.1138  0.0315 -0.1619
 1022BOLB   C2D24526   6.483  15.461   9.720  0.1133 -0.2031  0.2559
 1022BOLB   C3D24527   6.748  15.445  10.115 -0.0355  0.0042  0.1672
 1022BOLB   C4D24528   6.819  15.396  10.570 -0.2934 -0.0641  0.0073
 1023BOLB   NC124529   4.774  12.925  14.086 -0.0714 -0.0569  0.0921
 1023BOLB   PO124530   4.650  12.838  13.710 -0.0028  0.2235  0.0844
 1023BOLB   GL124531   4.643  13.148  13.382  0.0006  0.0447  0.3465
 1023BOLB   GL224532   4.451  13.351  13.402  0.1219  0.1533  0.0207
 1023BOLB   C1A24533   5.028  13.486  13.200  0.2575  0.2998 -0.2795
 1023BOLB   C2A24534   5.093  13.920  12.973 -0.2374  0.0238 -0.1343
 1023BOLB   C3A24535   5.122  14.212  12.664 -0.0700  0.1148 -0.2668
 1023BOLB   C4A24536   5.071  14.043  12.276 -0.2890  0.2471 -0.3487
 1023BOLB   C1B24537   4.502  13.502  12.970 -0.3620  0.0955  0.2741
 1023BOLB   C2B24538   4.571  13.573  12.574 -0.0545 -0.0554  0.2784
 1023BOLB   C3B24539   4.720  13.588  12.138 -0.2521 -0.2014 -0.2168
 1023BOLB   C4B24540   4.536  13.593  11.794 -0.1176  0.3854  0.1254
 1023BOLB   NC224541   2.737  13.182  11.220 -0.1328  0.2742  0.0173
 1023BOLB   PO224542   3.111  13.155  11.168  0.4552 -0.4162 -0.1792
 1023BOLB   GL324543   3.440  13.486  11.264 -0.1352  0.1790 -0.1603
 1023BOLB   GL424544   3.408  13.720  11.530  0.1134 -0.1580 -0.0537
 1023BOLB   C1C24545   3.699  13.949  11.249 -0.0659  0.3812  0.2057
 1023BOLB   C2C24546   3.981  14.109  11.643 -0.0071 -0.1656 -0.1463
 1023BOLB   C3C24547   4.308  14.062  11.814 -0.0859  0.0593 -0.1320
 1023BOLB   C4C24548   4.718  14.036  11.966 -0.1508  0.0805 -0.0427
 1023BOLB   C1D24549   3.720  13.563  11.703 -0.0777  0.0628 -0.0830
 1023BOLB   C2D24550   4.072  13.360  11.634 -0.2811 -0.0471  0.0013
 1023BOLB   C3D24551   4.432  13.150  11.856  0.0204 -0.0396 -0.0969
 1023BOLB   C4D24552   4.520  13.192  12.238  0.0325  0.2024 -0.1655
 1024BOLB   NC124553   7.874  19.382  13.336 -0.3390 -0.2619 -0.4739
 1024BOLB   PO124554   7.892  18.998  12.861 -0.1426  0.0547 -0.2800
 1024BOLB   GL124555   7.554  19.152  12.636 -0.6369 -0.3896 -0.1637
 1024BOLB   GL224556   7.554  19.078  12.298  0.0854  0.1656 -0.0526
 1024BOLB   C1A24557   7.222  19.324  12.647  0.1261 -0.0452  0.1804
 1024BOLB   C2A24558   6.808  19.264  12.666  0.3263  0.2820  0.5755
 1024BOLB   C3A24559   6.417  19.385  12.619  0.1824  0.2110 -0.0734
 1024BOLB   C4A24560   6.143  19.475  12.238  0.0198  0.0974  0.2504
 1024BOLB   C1B24561   7.265  19.309  12.112  0.1561 -0.1484 -0.1321
 1024BOLB   C2B24562   6.756  19.310  11.885  0.2094 -0.1002 -0.1417
 1024BOLB   C3B24563   6.575  19.504  11.631  0.0145 -0.2241  0.0238
 1024BOLB   C4B24564   6.529  19.461  11.206 -0.2573 -0.1694  0.0732
 1024BOLB   NC224565   4.065  20.071  12.114  0.0166 -0.0047  0.0438
 1024BOLB   PO224566   4.201  20.196  11.727  0.1089  0.1646 -0.0563
 1024BOLB   GL324567   4.665  20.181  11.923  0.1238 -0.0622 -0.0042
 1024BOLB   GL424568   4.769  20.347  12.289  0.1404 -0.3780 -0.1383
 1024BOLB   C1C24569   5.125  20.150  11.835  0.0586 -0.0705 -0.3496
 1024BOLB   C2C24570   5.414  19.956  11.925  0.2014 -0.4528  0.0496
 1024BOLB   C3C24571   5.647  19.769  11.792 -0.0016  0.0383  0.0167
 1024BOLB   C4C24572   6.084  19.692  11.812  0.0678  0.0691  0.1256
 1024BOLB   C1D24573   5.053  20.020  12.312 -0.0165 -0.0403 -0.1630
 1024BOLB   C2D24574   5.558  19.932  12.416 -0.1234 -0.1873 -0.2095
 1024BOLB   C3D24575   5.689  19.656  12.418 -0.0134 -0.0403  0.2886
 1024BOLB   C4D24576   5.683  19.428  12.130 -0.2547 -0.2040 -0.0779
 1025BOLB   NC124577   5.399  15.983  14.897  0.1176 -0.1655 -0.0683
 1025BOLB   PO124578   5.531  15.783  14.590  0.1295 -0.1363 -0.0434
 1025BOLB   GL124579   5.447  16.208  14.277 -0.0059  0.0779 -0.2206
 1025BOLB   GL224580   5.574  16.429  14.255 -0.1213 -0.3249 -0.1659
 1025BOLB   C1A24581   5.240  16.415  13.913  0.0372 -0.4067 -0.7098
 1025BOLB   C2A24582   5.276  16.742  13.520  0.0720  0.2800  0.0683
 1025BOLB   C3A24583   5.367  17.023  13.287  0.3638  0.1664 -0.0162
 1025BOLB   C4A24584   5.238  17.258  12.997 -0.2352  0.0794 -0.0528
 1025BOLB   C1B24585   5.190  16.564  14.535  0.2334  0.1055  0.0859
 1025BOLB   C2B24586   4.895  16.854  14.604 -0.0489  0.2011 -0.2049
 1025BOLB   C3B24587   4.569  16.841  14.639  0.0594  0.0277  0.0472
 1025BOLB   C4B24588   4.261  16.739  14.841 -0.0758 -0.0702  0.0497
 1025BOLB   NC224589   3.809  17.896  11.039 -0.0641  0.1044 -0.0517
 1025BOLB   PO224590   4.267  17.881  10.920  0.1483 -0.2952 -0.1009
 1025BOLB   GL324591   4.568  17.874  11.184 -0.1167 -0.1753 -0.0721
 1025BOLB   GL424592   4.782  18.125  11.190  0.0643  0.2117  0.1916
 1025BOLB   C1C24593   4.624  17.844  11.659 -0.0187 -0.0228  0.3301
 1025BOLB   C2C24594   5.043  17.823  11.937  0.0361  0.0012  0.0324
 1025BOLB   C3C24595   5.350  17.713  12.226  0.2311  0.0303 -0.0307
 1025BOLB   C4C24596   5.421  17.430  12.618 -0.0096 -0.2263  0.0039
 1025BOLB   C1D24597   5.196  18.063  11.215 -0.1161  0.2150 -0.1407
 1025BOLB   C2D24598   5.434  17.750  11.602 -0.1539  0.3207  0.1373
 1025BOLB   C3D24599   5.384  17.363  11.842  0.1414  0.4116 -0.4573
 1025BOLB   C4D24600   5.178  17.268  12.186  0.0553  0.1225 -0.1863
 1026BOLB   NC124601   7.700  24.890  12.377 -0.1023 -0.0707  0.1382
 1026BOLB   PO124602   8.026  25.079  12.067 -0.1382 -0.0151 -0.2462
 1026BOLB   GL124603   8.344  24.768  11.924 -0.0335 -0.1407  0.0012
 1026BOLB   GL224604   8.482  24.999  11.712  0.0124 -0.1890 -0.1185
 1026BOLB   C1A24605   8.581  24.423  11.757  0.2588 -0.0031 -0.1747
 1026BOLB   C2A24606   8.612  23.968  11.654 -0.2162  0.0990  0.2868
 1026BOLB   C3A24607   8.669  23.455  11.470 -0.2989  0.1890  0.2688
 1026BOLB   C4A24608   8.747  23.251  11.023  0.0091  0.1615 -0.1333
 1026BOLB   C1B24609   8.850  24.803  11.504  0.2436 -0.0578 -0.1122
 1026BOLB   C2B24610   8.856  24.746  11.066 -0.0777  0.3738  0.0982
 1026BOLB   C3B24611   8.720  24.673  10.725  0.2620  0.2205 -0.0969
 1026BOLB   C4B24612   8.292  24.668  10.576  0.2523  0.2267 -0.1047
 1026BOLB   NC224613   7.153  23.808   9.756  0.1175 -0.0770 -0.1735
 1026BOLB   PO224614   6.735  23.952  10.007  0.0008  0.2930  0.1039
 1026BOLB   GL324615   6.990  23.800  10.239 -0.2133 -0.0216 -0.1913
 1026BOLB   GL424616   6.831  23.584  10.409  0.1410  0.1890  0.3461
 1026BOLB   C1C24617   7.408  23.718  10.363  0.1238 -0.3389 -0.2632
 1026BOLB   C2C24618   7.756  23.401  10.408  0.2125 -0.2036 -0.1729
 1026BOLB   C3C24619   8.001  23.091  10.550 -0.3959  0.1220  0.2068
 1026BOLB   C4C24620   8.522  23.137  10.668 -0.1373  0.1613  0.4108
 1026BOLB   C1D24621   6.823  23.145  10.493 -0.0791  0.4324  0.0496
 1026BOLB   C2D24622   6.914  22.703  10.493  0.0451 -0.2326  0.0361
 1026BOLB   C3D24623   6.859  22.396  10.903  0.0506  0.1408 -0.3046
 1026BOLB   C4D24624   7.099  22.324  11.083  0.1770  0.1290  0.0720
 1027BOLB   NC124625   9.677   6.774  12.056 -0.1774 -0.1028 -0.2426
 1027BOLB   PO124626  10.012   6.714  12.372 -0.0354 -0.0485  0.3064
 1027BOLB   GL124627  10.260   6.793  12.057 -0.1711  0.0928 -0.1802
 1027BOLB   GL224628  10.122   6.993  11.809 -0.1496 -0.0870 -0.0727
 1027BOLB   C1A24629  10.684   6.991  11.809 -0.1076  0.0608  0.0009
 1027BOLB   C2A24630  11.067   7.078  11.622  0.0333  0.1997 -0.4534
 1027BOLB   C3A24631  11.327   6.909  11.367 -0.1076  0.3169 -0.1188
 1027BOLB   C4A24632  11.423   6.441  11.194  0.1513 -0.3917  0.2973
 1027BOLB   C1B24633   9.975   7.188  11.434 -0.2159  0.1379  0.0911
 1027BOLB   C2B24634  10.083   7.562  11.151  0.1064  0.0241  0.2050
 1027BOLB   C3B24635  10.052   7.803  10.805  0.1865  0.1906  0.0638
 1027BOLB   C4B24636  10.122   7.643  10.381 -0.1930 -0.2329  0.0161
 1027BOLB   NC224637  12.647   4.155  11.173  0.0437 -0.0568  0.2260
 1027BOLB   PO224638  12.311   4.370  10.982  0.1905  0.3077 -0.0694
 1027BOLB   GL324639  12.169   4.632  11.055 -0.1463 -0.0009  0.3014
 1027BOLB   GL424640  12.141   4.699  11.402 -0.0893  0.1380  0.0438
 1027BOLB   C1C24641  11.969   5.044  11.057  0.0531 -0.0325  0.3986
 1027BOLB   C2C24642  11.700   5.449  11.045  0.0783  0.0764  0.0805
 1027BOLB   C3C24643  11.307   5.697  11.116 -0.0352 -0.3631  0.0802
 1027BOLB   C4C24644  11.208   6.065  11.020 -0.0792  0.1380 -0.1268
 1027BOLB   C1D24645  12.430   5.004  11.324  0.1435 -0.0519 -0.0381
 1027BOLB   C2D24646  12.906   5.002  11.341  0.0384 -0.2157 -0.2994
 1027BOLB   C3D24647  13.237   4.866  11.167  0.0648 -0.0279 -0.0419
 1027BOLB   C4D24648  13.609   5.028  11.078  0.0947 -0.0275 -0.1603
 1028BOLB   NC124649  22.607  25.018  16.108  0.4270  0.0213 -0.0400
 1028BOLB   PO124650  22.606  25.516  16.042  0.0011  0.3930 -0.1492
 1028BOLB   GL124651  22.611  26.003  15.790 -0.0891  0.1045  0.3078
 1028BOLB   GL224652  22.295  26.091  15.778  0.0249 -0.2580  0.2807
 1028BOLB   C1A24653  22.651  26.466  15.850 -0.1466  0.0537 -0.3126
 1028BOLB   C2A24654  22.337  26.782  15.792  0.2221 -0.1477 -0.2422
 1028BOLB   C3A24655  21.923  26.953  16.091 -0.0806  0.0276  0.0891
 1028BOLB   C4A24656  21.756  27.075  16.539  0.3273  0.0267 -0.1494
 1028BOLB   C1B24657  21.939  26.382  15.739  0.0523  0.3941 -0.0113
 1028BOLB   C2B24658  21.559  26.570  15.587  0.0686 -0.1818 -0.1380
 1028BOLB   C3B24659  21.175  26.538  15.752  0.1530 -0.0990  0.3317
 1028BOLB   C4B24660  20.881  26.354  15.844  0.0828  0.0082  0.0444
 1028BOLB   NC224661  22.837  27.128  17.619 -0.0185  0.2426 -0.2824
 1028BOLB   PO224662  22.645  27.257  18.004  0.0987 -0.1978 -0.1744
 1028BOLB   GL324663  22.315  27.220  18.201 -0.0960  0.2040  0.1775
 1028BOLB   GL424664  22.181  27.272  18.468 -0.0280 -0.1350 -0.3874
 1028BOLB   C1C24665  21.918  27.324  17.978  0.0954 -0.3631 -0.0634
 1028BOLB   C2C24666  21.753  27.342  17.572  0.2349  0.1231 -0.1716
 1028BOLB   C3C24667  21.467  27.457  17.242 -0.2346 -0.0796 -0.1117
 1028BOLB   C4C24668  21.453  27.230  16.866  0.2074  0.0699  0.0848
 1028BOLB   C1D24669  21.924  27.585  18.562  0.0123 -0.1633  0.3852
 1028BOLB   C2D24670  21.570  27.768  18.262 -0.0786  0.0362  0.0676
 1028BOLB   C3D24671  21.097  27.732  18.364 -0.0460 -0.0008  0.0169
 1028BOLB   C4D24672  20.625  27.809  18.258 -0.0714  0.0285  0.2624
 1029BOLB   NC124673  10.175  26.876  14.240  0.2506 -0.0611 -0.2469
 1029BOLB   PO124674  10.207  26.430  14.238 -0.0579  0.1698 -0.0559
 1029BOLB   GL124675  10.496  26.558  13.917  0.0039  0.2036 -0.0275
 1029BOLB   GL224676  10.912  26.516  14.006  0.0986  0.1228  0.2585
 1029BOLB   C1A24677  10.659  26.771  13.664  0.1265  0.0315 -0.1471
 1029BOLB   C2A24678  10.933  26.957  13.359  0.1296 -0.0116  0.1195
 1029BOLB   C3A24679  11.387  27.030  13.228 -0.1923  0.2280  0.4574
 1029BOLB   C4A24680  11.712  27.251  13.120 -0.1048  0.1565  0.1089
 1029BOLB   C1B24681  10.952  26.945  13.957  0.1757 -0.1775  0.1812
 1029BOLB   C2B24682  11.141  27.265  13.767  0.0748  0.4363 -0.2363
 1029BOLB   C3B24683  11.011  27.678  13.676 -0.0330 -0.4044 -0.0941
 1029BOLB   C4B24684  10.755  27.955  13.637  0.2938  0.3280 -0.1730
 1029BOLB   NC224685  11.903  29.125  12.095 -0.1078  0.2239  0.3126
 1029BOLB   PO224686  12.231  29.072  11.753 -0.0255  0.0514  0.0174
 1029BOLB   GL324687  12.212  28.718  11.992  0.0764 -0.4009  0.0147
 1029BOLB   GL424688  12.404  28.592  11.927  0.1762 -0.0534  0.1442
 1029BOLB   C1C24689  11.866  28.510  12.323 -0.1556  0.0968 -0.1355
 1029BOLB   C2C24690  11.872  28.168  12.590  0.3090 -0.0438  0.0847
 1029BOLB   C3C24691  12.138  27.915  12.906  0.2015  0.3388  0.0797
 1029BOLB   C4C24692  11.903  27.599  13.122 -0.0773  0.0003 -0.3088
 1029BOLB   C1D24693  12.241  28.103  12.015 -0.2848 -0.2670  0.2749
 1029BOLB   C2D24694  12.378  27.653  12.053  0.0263  0.2867 -0.1681
 1029BOLB   C3D24695  12.426  27.234  12.317  0.0121 -0.1331 -0.2610
 1029BOLB   C4D24696  12.427  26.855  12.525 -0.2466  0.2265  0.3899
 1030BOLB   NC124697  19.918  23.800  13.607 -0.0998 -0.1673 -0.2128
 1030BOLB   PO124698  20.136  23.557  13.387  0.3401  0.2807  0.1538
 1030BOLB   GL124699  20.274  23.938  13.213 -0.0740  0.0146 -0.0078
 1030BOLB   GL224700  20.594  24.005  13.139 -0.2126  0.0280 -0.1214
 1030BOLB   C1A24701  20.230  24.358  12.982 -0.1136 -0.2437  0.0605
 1030BOLB   C2A24702  20.317  24.863  12.993  0.1743  0.0075  0.2895
 1030BOLB   C3A24703  20.230  25.246  12.830  0.0958  0.1750 -0.0487
 1030BOLB   C4A24704  20.310  25.785  12.832  0.3594 -0.0665  0.0707
 1030BOLB   C1B24705  20.658  24.071  12.651 -0.2028 -0.2186  0.1195
 1030BOLB   C2B24706  20.574  24.263  12.345 -0.0972 -0.0278  0.2425
 1030BOLB   C3B24707  20.499  24.697  12.147  0.1148 -0.0357 -0.1854
 1030BOLB   C4B24708  20.748  25.036  12.070 -0.1461  0.0382  0.0566
 1030BOLB   NC224709  21.076  27.782  12.353  0.0898  0.1148  0.2641
 1030BOLB   PO224710  21.401  27.834  12.721 -0.1719 -0.2740  0.2367
 1030BOLB   GL324711  21.152  27.395  12.717 -0.0579 -0.0880  0.1635
 1030BOLB   GL424712  20.833  27.282  12.438  0.1268  0.1722 -0.1453
 1030BOLB   C1C24713  20.984  27.174  13.085 -0.1642 -0.4997 -0.1227
 1030BOLB   C2C24714  20.779  26.828  13.250  0.0085  0.1028  0.2885
 1030BOLB   C3C24715  20.561  26.461  13.399 -0.0150 -0.1437 -0.2237
 1030BOLB   C4C24716  20.462  26.129  13.110 -0.1205  0.1503 -0.1564
 1030BOLB   C1D24717  20.673  27.011  12.659  0.0897 -0.1098 -0.2698
 1030BOLB   C2D24718  20.453  26.637  12.828  0.0799  0.5766  0.0712
 1030BOLB   C3D24719  20.144  26.567  13.060 -0.1760  0.0127  0.0606
 1030BOLB   C4D24720  19.635  26.408  13.105 -0.1794 -0.1202 -0.0880
 1031BOLB   NC124721  14.045  25.652  15.572  0.0123  0.1827  0.0338
 1031BOLB   PO124722  13.616  25.726  15.737  0.2220  0.2005 -0.0440
 1031BOLB   GL124723  13.854  26.083  15.693  0.1372 -0.2645 -0.3054
 1031BOLB   GL224724  13.535  26.240  15.621 -0.0475  0.3765 -0.0741
 1031BOLB   C1A24725  13.956  26.446  15.348 -0.0256 -0.1504 -0.0885
 1031BOLB   C2A24726  14.182  26.784  15.343  0.4378 -0.4111  0.2338
 1031BOLB   C3A24727  14.515  27.068  15.322  0.0812  0.3309 -0.1849
 1031BOLB   C4A24728  14.662  27.418  15.164  0.1002  0.1819  0.4129
 1031BOLB   C1B24729  13.328  26.594  15.323  0.1342 -0.1362  0.0088
 1031BOLB   C2B24730  13.012  26.670  14.969 -0.1249  0.0622 -0.0609
 1031BOLB   C3B24731  13.013  26.620  14.580  0.0494 -0.1374 -0.3693
 1031BOLB   C4B24732  12.884  26.773  14.192 -0.0931  0.1586  0.0890
 1031BOLB   NC224733  15.204  29.952  14.411 -0.3561 -0.0549 -0.0966
 1031BOLB   PO224734  15.359  29.557  14.671  0.1839 -0.3102  0.0590
 1031BOLB   GL324735  15.424  29.182  14.744 -0.2311  0.2779 -0.2410
 1031BOLB   GL424736  15.648  29.192  14.422  0.1280  0.3331 -0.0416
 1031BOLB   C1C24737  15.373  28.842  14.976 -0.0456  0.1365 -0.0753
 1031BOLB   C2C24738  15.410  28.382  15.047  0.0504 -0.1918  0.2320
 1031BOLB   C3C24739  15.389  27.985  15.235 -0.3120 -0.0820 -0.0692
 1031BOLB   C4C24740  14.991  27.684  15.318 -0.0218 -0.0787 -0.0746
 1031BOLB   C1D24741  15.862  28.862  14.502  0.2074  0.5498 -0.0781
 1031BOLB   C2D24742  15.777  28.421  14.633  0.0561 -0.1559 -0.1165
 1031BOLB   C3D24743  15.706  28.004  14.790 -0.1915  0.0260  0.0564
 1031BOLB   C4D24744  15.728  27.662  14.907  0.1866 -0.0124 -0.2581
 1032BOLB   NC124745  15.267  25.021  15.853  0.1213  0.1491 -0.0277
 1032BOLB   PO124746  15.322  25.588  15.724 -0.1312 -0.0404 -0.2155
 1032BOLB   GL124747  15.289  25.932  15.465  0.0084  0.1423  0.1493
 1032BOLB   GL224748  15.354  26.148  15.734 -0.0943 -0.3735 -0.0611
 1032BOLB   C1A24749  15.386  26.392  15.168 -0.4019  0.2391 -0.0383
 1032BOLB   C2A24750  15.472  26.778  15.031 -0.4726  0.3305  0.1264
 1032BOLB   C3A24751  15.764  27.090  14.879  0.0889  0.0893  0.3927
 1032BOLB   C4A24752  15.828  27.436  14.487 -0.2053 -0.5244  0.1943
 1032BOLB   C1B24753  15.550  26.510  15.969 -0.1419  0.0163 -0.1726
 1032BOLB   C2B24754  15.778  26.858  15.956 -0.6029 -0.0849 -0.3223
 1032BOLB   C3B24755  15.869  27.200  15.855  0.0243  0.2860  0.0431
 1032BOLB   C4B24756  15.997  27.599  15.892 -0.3227 -0.2719 -0.0502
 1032BOLB   NC224757  15.598  28.609  12.117  0.1575  0.0260 -0.1030
 1032BOLB   PO224758  15.299  28.415  12.310 -0.1070 -0.0752  0.0243
 1032BOLB   GL324759  15.286  28.249  12.740  0.1965  0.1982 -0.3395
 1032BOLB   GL424760  15.567  28.168  12.834 -0.1873 -0.1692  0.1707
 1032BOLB   C1C24761  15.010  28.134  13.191 -0.1190  0.0699 -0.0728
 1032BOLB   C2C24762  15.329  28.030  13.586  0.0836  0.1741 -0.0369
 1032BOLB   C3C24763  15.389  27.731  13.910  0.1768  0.0245 -0.2070
 1032BOLB   C4C24764  15.634  27.430  14.063 -0.1005  0.3430  0.1447
 1032BOLB   C1D24765  15.382  27.836  13.110  0.0842  0.1609 -0.1034
 1032BOLB   C2D24766  15.484  27.575  13.343  0.1364 -0.0605 -0.0226
 1032BOLB   C3D24767  15.534  27.261  13.633  0.3502 -0.0810  0.1511
 1032BOLB   C4D24768  15.363  27.006  14.117 -0.0326 -0.3245  0.5330
 1033BOLB   NC124769  10.062  27.434  12.881  0.1483  0.0518  0.2248
 1033BOLB   PO124770  10.045  27.177  12.477 -0.0288  0.0505 -0.4289
 1033BOLB   GL124771  10.402  27.131  12.656  0.2858  0.1273  0.4023
 1033BOLB   GL224772  10.464  26.808  12.659 -0.0409 -0.0270 -0.0874
 1033BOLB   C1A24773  10.782  27.078  12.898 -0.0991  0.1013  0.0415
 1033BOLB   C2A24774  11.080  27.102  12.745  0.0240  0.2236  0.1397
 1033BOLB   C3A24775  11.426  27.121  12.742 -0.0704 -0.3327 -0.0950
 1033BOLB   C4A24776  11.790  27.348  12.663 -0.0467 -0.0092  0.1152
 1033BOLB   C1B24777  10.768  26.614  13.040 -0.2090 -0.0129 -0.0130
 1033BOLB   C2B24778  11.206  26.603  12.922 -0.0942  0.2959  0.0403
 1033BOLB   C3B24779  11.351  26.328  12.583 -0.0072  0.0568  0.3186
 1033BOLB   C4B24780  11.458  26.286  12.218 -0.1050 -0.0640 -0.1821
 1033BOLB   NC224781  11.419  29.361  12.717 -0.0322  0.1866 -0.2280
 1033BOLB   PO224782  11.688  29.475  12.358 -0.1177 -0.3081 -0.5148
 1033BOLB   GL324783  11.908  29.187  12.653  0.1376  0.1622 -0.0922
 1033BOLB   GL424784  11.876  29.234  12.981  0.3378  0.2581 -0.1249
 1033BOLB   C1C24785  12.257  28.904  12.631  0.1738  0.0058 -0.1143
 1033BOLB   C2C24786  12.541  28.485  12.517 -0.1384 -0.3433 -0.0545
 1033BOLB   C3C24787  12.334  28.119  12.504  0.3216 -0.4841  0.1782
 1033BOLB   C4C24788  12.164  27.664  12.511 -0.1931 -0.0825 -0.2019
 1033BOLB   C1D24789  11.805  28.949  13.244  0.2842 -0.3876 -0.2602
 1033BOLB   C2D24790  11.976  28.574  13.425 -0.2628 -0.1836  0.0315
 1033BOLB   C3D24791  11.854  28.106  13.328  0.3151 -0.1903  0.0808
 1033BOLB   C4D24792  11.673  27.994  13.032  0.0793 -0.0442  0.4116
 1034BOLB   NC124793  10.810  26.533  14.876 -0.1287 -0.1873 -0.0437
 1034BOLB   PO124794  11.109  26.104  14.688  0.3779  0.1494 -0.4041
 1034BOLB   GL124795  11.262  26.503  14.521  0.0460 -0.2259  0.0155
 1034BOLB   GL224796  11.226  26.783  14.648 -0.1583 -0.0153 -0.5280
 1034BOLB   C1A24797  11.669  26.648  14.491  0.3050  0.0588  0.2852
 1034BOLB   C2A24798  11.856  26.966  14.320 -0.3014  0.0140 -0.0282
 1034BOLB   C3A24799  11.897  27.350  14.233  0.1842  0.0966 -0.1457
 1034BOLB   C4A24800  12.102  27.726  14.311 -0.2670  0.1134 -0.3006
 1034BOLB   C1B24801  11.344  26.929  14.239 -0.1225 -0.0246 -0.0029
 1034BOLB   C2B24802  11.577  27.159  13.941  0.0987  0.1600  0.2069
 1034BOLB   C3B24803  11.912  27.341  13.721  0.0999  0.2807  0.0461
 1034BOLB   C4B24804  12.141  27.333  13.452  0.2635  0.3482  0.0512
 1034BOLB   NC224805  13.405  30.255  14.029  0.0924 -0.1507  0.0135
 1034BOLB   PO224806  13.118  30.129  14.348  0.0916 -0.0526  0.0521
 1034BOLB   GL324807  12.942  29.696  14.278 -0.2731 -0.0155  0.1146
 1034BOLB   GL424808  12.936  29.481  14.620  0.1832  0.0444  0.1357
 1034BOLB   C1C24809  12.780  29.173  14.239  0.0109  0.0492  0.0976
 1034BOLB   C2C24810  12.606  28.790  14.393  0.1539 -0.1120 -0.2161
 1034BOLB   C3C24811  12.442  28.360  14.501  0.2061  0.0807  0.2482
 1034BOLB   C4C24812  12.116  28.135  14.372  0.0710 -0.1484  0.1208
 1034BOLB   C1D24813  12.948  29.278  14.970  0.2680 -0.0114  0.2840
 1034BOLB   C2D24814  12.843  28.775  15.052 -0.1018 -0.2194 -0.0111
 1034BOLB   C3D24815  12.698  28.413  14.961  0.2289  0.0178  0.1963
 1034BOLB   C4D24816  12.819  28.087  14.805  0.3918  0.1333  0.0947
 1035BOLB   NC124817  16.242  24.789  15.124 -0.0447  0.0869 -0.0496
 1035BOLB   PO124818  16.526  24.841  14.904  0.0670 -0.2639 -0.1574
 1035BOLB   GL124819  16.703  25.292  14.732  0.2492  0.1040  0.1982
 1035BOLB   GL224820  16.544  25.626  14.862  0.3277 -0.2066  0.1306
 1035BOLB   C1A24821  17.075  25.659  14.664  0.1247  0.1231  0.2108
 1035BOLB   C2A24822  17.390  25.848  14.524 -0.0646  0.0087  0.3876
 1035BOLB   C3A24823  17.741  25.709  14.263  0.2827  0.0317  0.1357
 1035BOLB   C4A24824  17.958  25.878  13.966 -0.1539 -0.1174 -0.1731
 1035BOLB   C1B24825  16.399  25.878  14.507 -0.2531  0.0379 -0.0911
 1035BOLB   C2B24826  16.211  26.240  14.451  0.2349  0.0720 -0.2569
 1035BOLB   C3B24827  16.046  26.567  14.185  0.1942  0.1408 -0.1363
 1035BOLB   C4B24828  15.770  26.815  13.879  0.0664 -0.0203 -0.3686
 1035BOLB   NC224829  19.002  28.285  13.232 -0.1779 -0.0388  0.2422
 1035BOLB   PO224830  18.677  28.326  12.843 -0.2928 -0.0416 -0.0535
 1035BOLB   GL324831  18.624  27.892  13.105 -0.0248 -0.3090 -0.4997
 1035BOLB   GL424832  18.809  27.853  13.414  0.4165  0.3718  0.0493
 1035BOLB   C1C24833  18.413  27.555  13.293 -0.0646  0.2280  0.0190
 1035BOLB   C2C24834  18.327  27.122  13.470  0.2955 -0.3614 -0.1843
 1035BOLB   C3C24835  18.120  26.730  13.635 -0.4069  0.2206  0.1512
 1035BOLB   C4C24836  18.154  26.249  13.631  0.0574 -0.3537 -0.0293
 1035BOLB   C1D24837  19.036  27.611  13.621  0.0569 -0.1779 -0.1304
 1035BOLB   C2D24838  19.170  27.367  14.018 -0.1187 -0.1719  0.1292
 1035BOLB   C3D24839  19.336  27.407  14.329 -0.2834  0.1812  0.0033
 1035BOLB   C4D24840  19.635  27.686  14.516 -0.2198 -0.1882  0.0567
 1036BOLB   NC124841  10.816  29.131  14.366 -0.0037  0.1986 -0.1037
 1036BOLB   PO124842  10.494  28.924  14.132 -0.3083  0.1812 -0.3193
 1036BOLB   GL124843  10.725  28.685  14.234 -0.2457  0.1789  0.1051
 1036BOLB   GL224844  10.629  28.362  14.282 -0.5401  0.1210  0.1056
 1036BOLB   C1A24845  11.042  28.527  14.583 -0.1245 -0.1606  0.1329
 1036BOLB   C2A24846  11.278  28.170  14.545 -0.3104 -0.2844  0.0583
 1036BOLB   C3A24847  11.616  28.164  14.216  0.1978  0.1106  0.0759
 1036BOLB   C4A24848  11.816  28.329  13.928 -0.0514  0.2979  0.1322
 1036BOLB   C1B24849  10.775  28.426  13.797 -0.4906 -0.0982 -0.0029
 1036BOLB   C2B24850  11.020  28.412  13.526  0.0023  0.2316 -0.3115
 1036BOLB   C3B24851  11.294  28.006  13.390  0.0728 -0.2249 -0.0295
 1036BOLB   C4B24852  11.426  27.612  13.400  0.1918 -0.0443 -0.5772
 1036BOLB   NC224853  10.431  27.944  11.562  0.1746 -0.0644 -0.0068
 1036BOLB   PO224854  10.637  28.339  11.549  0.0667 -0.0164 -0.0901
 1036BOLB   GL324855  11.005  28.411  11.838  0.2988  0.4192  0.2543
 1036BOLB   GL424856  11.216  28.191  11.880  0.3468 -0.2782 -0.3909
 1036BOLB   C1C24857  11.237  28.591  12.255  0.0863 -0.0526 -0.0414
 1036BOLB   C2C24858  11.471  28.497  12.667 -0.1834 -0.0147 -0.2817
 1036BOLB   C3C24859  11.512  28.462  13.141  0.2014 -0.0333  0.0842
 1036BOLB   C4C24860  11.507  28.371  13.632  0.0267 -0.4695  0.1279
 1036BOLB   C1D24861  11.046  27.926  12.092 -0.1175  0.1302  0.2707
 1036BOLB   C2D24862  10.711  27.615  12.205 -0.0360  0.1739  0.0560
 1036BOLB   C3D24863  10.692  27.562  12.693  0.1141 -0.0649  0.2751
 1036BOLB   C4D24864  10.854  27.772  12.993  0.2547  0.1001  0.1706
 1037BOLB   NC124865  18.686  24.723  15.441  0.0050 -0.0908  0.0443
 1037BOLB   PO124866  18.630  25.032  15.800 -0.2578 -0.0406 -0.0563
 1037BOLB   GL124867  18.499  25.457  15.805  0.2431 -0.4387 -0.0392
 1037BOLB   GL224868  18.885  25.451  15.714 -0.2343  0.2620 -0.1421
 1037BOLB   C1A24869  18.174  25.877  15.771 -0.1351  0.2240 -0.0228
 1037BOLB   C2A24870  18.269  26.260  16.080 -0.1053 -0.0085 -0.0489
 1037BOLB   C3A24871  18.279  26.716  15.992 -0.1535 -0.1400 -0.0814
 1037BOLB   C4A24872  18.335  27.089  16.077  0.1052 -0.0832 -0.0272
 1037BOLB   C1B24873  18.711  25.885  15.656 -0.0986 -0.0112 -0.1030
 1037BOLB   C2B24874  18.635  26.300  15.762  0.1748  0.1519 -0.0728
 1037BOLB   C3B24875  18.733  26.683  15.680 -0.0674  0.2322 -0.2258
 1037BOLB   C4B24876  18.937  27.011  15.612  0.0852  0.1877 -0.1784
 1037BOLB   NC224877  17.983  29.588  14.800 -0.4929 -0.0022 -0.1246
 1037BOLB   PO224878  17.758  29.293  14.914  0.1103 -0.0543 -0.1755
 1037BOLB   GL324879  17.746  28.904  15.055  0.1228 -0.0578  0.0687
 1037BOLB   GL424880  17.872  28.642  14.913 -0.3483 -0.1267  0.1706
 1037BOLB   C1C24881  17.619  28.526  15.401 -0.0321 -0.2878 -0.0752
 1037BOLB   C2C24882  17.868  28.237  15.724 -0.0518 -0.0101  0.0740
 1037BOLB   C3C24883  17.942  27.783  15.618  0.2802  0.1279 -0.1418
 1037BOLB   C4C24884  18.016  27.425  16.000  0.1601  0.0471 -0.1277
 1037BOLB   C1D24885  17.591  28.286  14.855 -0.1974 -0.1419  0.0766
 1037BOLB   C2D24886  17.273  28.163  14.820 -0.1753 -0.0734 -0.1594
 1037BOLB   C3D24887  17.124  27.694  14.723  0.0128  0.0971 -0.0349
 1037BOLB   C4D24888  16.946  27.586  14.447 -0.1571  0.0551 -0.0336
 1038BOLB   NC124889  18.219  23.954  13.835  0.0001 -0.0844 -0.1793
 1038BOLB   PO124890  18.253  23.774  13.517 -0.3474 -0.0199 -0.1625
 1038BOLB   GL124891  18.297  24.117  13.251 -0.0408  0.0214 -0.0008
 1038BOLB   GL224892  18.621  24.057  13.356 -0.0662  0.0413 -0.0208
 1038BOLB   C1A24893  18.302  24.558  13.200  0.0389  0.0620  0.1707
 1038BOLB   C2A24894  18.267  24.916  13.040  0.2571  0.1759  0.2745
 1038BOLB   C3A24895  18.170  25.414  13.026  0.1347  0.4447  0.0020
 1038BOLB   C4A24896  18.039  25.691  12.790  0.1611  0.0695  0.1269
 1038BOLB   C1B24897  18.911  24.404  13.284  0.0945 -0.1428  0.1452
 1038BOLB   C2B24898  18.753  24.836  13.146  0.4014 -0.0074  0.0012
 1038BOLB   C3B24899  18.664  25.272  12.987 -0.2431  0.0666 -0.0392
 1038BOLB   C4B24900  18.526  25.746  12.925 -0.1650  0.1380 -0.1650
 1038BOLB   NC224901  17.754  28.067  12.607 -0.1049  0.1473 -0.0602
 1038BOLB   PO224902  18.005  28.001  12.142  0.2431  0.0986 -0.0592
 1038BOLB   GL324903  17.853  27.632  12.288  0.0847 -0.2341  0.0429
 1038BOLB   GL424904  17.558  27.663  12.235 -0.1144 -0.1115 -0.0035
 1038BOLB   C1C24905  17.880  27.202  12.316  0.3379 -0.2285 -0.1722
 1038BOLB   C2C24906  17.799  26.833  12.525 -0.1417 -0.0519 -0.2086
 1038BOLB   C3C24907  17.798  26.476  12.754  0.0996 -0.3718 -0.1794
 1038BOLB   C4C24908  17.758  26.071  12.916 -0.1404  0.0128 -0.4857
 1038BOLB   C1D24909  17.593  27.409  12.624  0.1571 -0.0574 -0.0020
 1038BOLB   C2D24910  17.531  27.023  12.906  0.1148  0.2077 -0.0149
 1038BOLB   C3D24911  17.112  26.844  12.956  0.3244  0.1415  0.0279
 1038BOLB   C4D24912  16.800  26.631  13.188  0.2635 -0.1759 -0.1067
 1039BOLB   NC124913  12.865  25.606  15.290 -0.1930  0.0812 -0.1296
 1039BOLB   PO124914  13.108  25.709  14.921  0.1460  0.2165  0.0695
 1039BOLB   GL124915  13.223  26.180  14.955 -0.2688 -0.4297  0.1145
 1039BOLB   GL224916  13.603  26.102  15.085  0.0267 -0.2175  0.0281
 1039BOLB   C1A24917  13.453  26.569  14.821 -0.2228  0.0379  0.2038
 1039BOLB   C2A24918  13.838  26.832  14.991 -0.4101  0.1822  0.1760
 1039BOLB   C3A24919  14.137  27.219  15.101  0.2867  0.1783  0.0827
 1039BOLB   C4A24920  14.196  27.611  15.264  0.1369 -0.3492 -0.3550
 1039BOLB   C1B24921  13.790  26.209  14.663 -0.2057 -0.0977  0.0626
 1039BOLB   C2B24922  13.889  26.600  14.485 -0.0234  0.1595 -0.0691
 1039BOLB   C3B24923  14.123  26.997  14.599 -0.1858  0.2770  0.0974
 1039BOLB   C4B24924  14.315  27.478  14.728 -0.1701  0.0964 -0.0264
 1039BOLB   NC224925  15.435  29.845  15.799  0.1178  0.0818 -0.0640
 1039BOLB   PO224926  14.941  29.985  15.707  0.2293 -0.1577 -0.1644
 1039BOLB   GL324927  14.930  29.551  15.457  0.3048 -0.1761 -0.0651
 1039BOLB   GL424928  15.162  29.448  15.701 -0.4916 -0.1110 -0.0508
 1039BOLB   C1C24929  14.932  29.143  15.184 -0.1570  0.1127  0.0662
 1039BOLB   C2C24930  14.946  28.709  15.202  0.0644  0.0583  0.1055
 1039BOLB   C3C24931  14.656  28.406  15.164 -0.1339 -0.0505 -0.2495
 1039BOLB   C4C24932  14.548  27.936  15.072 -0.0178 -0.0346  0.1486
 1039BOLB   C1D24933  15.044  29.061  15.642 -0.1959 -0.1400  0.2278
 1039BOLB   C2D24934  15.234  28.722  15.875  0.1082  0.1419 -0.0477
 1039BOLB   C3D24935  15.352  28.441  16.155  0.0533  0.1462  0.2072
 1039BOLB   C4D24936  15.190  28.065  16.353 -0.3185 -0.5431  0.0478
 1040BOLB   NC124937  17.758  24.831  15.773  0.0744  0.0047 -0.0815
 1040BOLB   PO124938  17.745  25.119  15.365 -0.3009 -0.4480  0.2637
 1040BOLB   GL124939  17.827  25.400  15.036 -0.1748 -0.0104  0.0910
 1040BOLB   GL224940  17.895  25.147  14.760 -0.4038 -0.0464 -0.0836
 1040BOLB   C1A24941  17.932  25.840  15.100  0.0297  0.3469  0.1958
 1040BOLB   C2A24942  17.918  26.339  15.189  0.1524 -0.0449 -0.0135
 1040BOLB   C3A24943  17.874  26.738  15.034  0.1722 -0.0678 -0.0546
 1040BOLB   C4A24944  18.269  27.000  14.907  0.2448  0.1903  0.2448
 1040BOLB   C1B24945  18.296  25.429  14.870  0.0277  0.1393  0.0448
 1040BOLB   C2B24946  18.455  25.912  14.912 -0.2819  0.0898  0.0591
 1040BOLB   C3B24947  18.250  26.393  14.774  0.0596  0.0555 -0.0923
 1040BOLB   C4B24948  18.339  26.656  14.424 -0.1247  0.2727 -0.2460
 1040BOLB   NC224949  19.018  29.410  13.397 -0.0221 -0.3752 -0.3559
 1040BOLB   PO224950  18.992  28.959  13.527  0.0276  0.3721  0.2517
 1040BOLB   GL324951  18.927  28.554  13.712 -0.0253 -0.0925 -0.0782
 1040BOLB   GL424952  19.171  28.486  13.734 -0.1770 -0.3429 -0.1235
 1040BOLB   C1C24953  18.802  28.136  13.877 -0.0304  0.0771 -0.0138
 1040BOLB   C2C24954  18.822  27.739  14.066 -0.0463 -0.0924  0.1359
 1040BOLB   C3C24955  18.768  27.458  14.343 -0.3289 -0.0800  0.0047
 1040BOLB   C4C24956  18.497  27.146  14.459 -0.0648  0.1606  0.2082
 1040BOLB   C1D24957  19.276  28.112  13.912  0.0768  0.0364  0.1240
 1040BOLB   C2D24958  19.201  27.906  14.263  0.2462  0.0287  0.1546
 1040BOLB   C3D24959  19.099  27.647  14.681  0.2154  0.0135 -0.0833
 1040BOLB   C4D24960  19.000  27.201  14.691  0.0611 -0.2246 -0.0193
 1041BOLB   NC124961  13.920  24.829  14.322  0.0990 -0.0835  0.3072
 1041BOLB   PO124962  14.201  24.709  13.930 -0.0598 -0.2009  0.1071
 1041BOLB   GL124963  14.211  24.861  13.552  0.1718 -0.1674  0.1370
 1041BOLB   GL224964  13.879  24.737  13.414 -0.2611  0.2007  0.1963
 1041BOLB   C1A24965  14.314  25.303  13.289  0.1271  0.1986 -0.3774
 1041BOLB   C2A24966  14.479  25.520  13.040  0.1467 -0.1594 -0.3053
 1041BOLB   C3A24967  14.727  25.847  12.780  0.0961  0.0171 -0.2253
 1041BOLB   C4A24968  14.839  25.693  12.375 -0.0504 -0.0809 -0.0246
 1041BOLB   C1B24969  13.712  24.852  13.056  0.1556 -0.0706  0.0848
 1041BOLB   C2B24970  13.664  25.013  12.661  0.1346 -0.0369 -0.1387
 1041BOLB   C3B24971  13.881  25.175  12.329  0.1472  0.3020  0.1539
 1041BOLB   C4B24972  13.963  25.550  12.140 -0.0765  0.1006  0.0714
 1041BOLB   NC224973  14.687  27.008  10.605  0.0548  0.2898  0.0029
 1041BOLB   PO224974  15.022  27.165  10.538  0.1081 -0.0794 -0.0960
 1041BOLB   GL324975  15.010  26.780  10.843  0.1095  0.2782  0.3152
 1041BOLB   GL424976  15.042  26.637  10.652 -0.0205  0.2185  0.1724
 1041BOLB   C1C24977  15.255  26.572  11.119  0.2030  0.1042  0.2203
 1041BOLB   C2C24978  15.292  26.285  11.488  0.2351  0.0541  0.1467
 1041BOLB   C3C24979  15.092  25.897  11.589  0.0105 -0.0580 -0.1097
 1041BOLB   C4C24980  14.994  25.686  11.997 -0.1799 -0.2461  0.2349
 1041BOLB   C1D24981  15.076  26.172  10.919 -0.2984  0.1724  0.2398
 1041BOLB   C2D24982  15.249  25.819  11.104 -0.3184 -0.1473  0.0850
 1041BOLB   C3D24983  15.064  25.452  11.345  0.1583  0.2337 -0.2160
 1041BOLB   C4D24984  14.767  25.383  11.688 -0.4174 -0.2362  0.7099
 1042BOLB   NC124985  15.863  25.589  17.039 -0.0256 -0.3315 -0.4567
 1042BOLB   PO124986  16.020  25.941  17.037  0.1610  0.0864 -0.2357
 1042BOLB   GL124987  16.155  26.327  16.967  0.2081  0.2056 -0.2123
 1042BOLB   GL224988  16.246  26.280  16.657  0.0987  0.0731  0.0537
 1042BOLB   C1A24989  16.396  26.748  16.794  0.0151 -0.0596 -0.0981
 1042BOLB   C2A24990  16.425  27.157  16.711 -0.1914 -0.0346 -0.0428
 1042BOLB   C3A24991  16.334  27.561  16.649 -0.0934 -0.0912 -0.0044
 1042BOLB   C4A24992  16.468  27.937  16.373  0.1625  0.0251  0.0417
 1042BOLB   C1B24993  16.011  26.593  16.518 -0.1683 -0.2163 -0.0430
 1042BOLB   C2B24994  15.944  27.101  16.458  0.0615  0.1677 -0.1131
 1042BOLB   C3B24995  15.903  27.480  16.352 -0.0855 -0.0386 -0.0464
 1042BOLB   C4B24996  15.974  27.903  16.373 -0.0610  0.0219 -0.0417
 1042BOLB   NC224997  17.199  29.947  15.123  0.2716 -0.3261  0.0325
 1042BOLB   PO224998  16.983  29.605  14.999  0.0834 -0.2213  0.1645
 1042BOLB   GL324999  16.795  29.213  15.047  0.1476  0.2657  0.5499
 1042BOLB   GL425000  16.698  29.069  14.697  0.0152 -0.0317 -0.0854
 1042BOLB   C1C25001  16.640  28.758  15.126 -0.0216  0.2011 -0.1053
 1042BOLB   C2C25002  16.472  28.460  15.325  0.0884 -0.0404  0.0808
 1042BOLB   C3C25003  16.277  28.167  15.573 -0.0223 -0.0812 -0.1710
 1042BOLB   C4C25004  16.258  28.137  16.026  0.1887 -0.0728  0.2538
 1042BOLB   C1D25005  16.335  28.882  14.752 -0.0577 -0.3148  0.2358
 1042BOLB   C2D25006  16.301  28.431  14.804  0.2840 -0.4549 -0.1642
 1042BOLB   C3D25007  16.265  28.071  15.048  0.1385 -0.1439  0.1903
 1042BOLB   C4D25008  16.192  27.752  15.312  0.2142 -0.1564 -0.3085
 1043BOLB   NC125009  17.018  24.902  14.842 -0.1123 -0.2195  0.2090
 1043BOLB   PO125010  16.966  25.181  15.171 -0.4384  0.1732  0.1160
 1043BOLB   GL125011  17.324  25.345  15.008  0.0661  0.0242 -0.1358
 1043BOLB   GL225012  17.272  25.576  15.278 -0.1689  0.0084  0.0431
 1043BOLB   C1A25013  17.465  25.307  14.542 -0.1768  0.1282 -0.2147
 1043BOLB   C2A25014  17.548  25.315  14.075 -0.0765 -0.0184  0.1513
 1043BOLB   C3A25015  17.646  25.548  13.730  0.3445 -0.0006  0.2357
 1043BOLB   C4A25016  17.717  25.950  13.508 -0.3233 -0.1677  0.0442
 1043BOLB   C1B25017  17.449  25.997  15.009  0.1826 -0.0778  0.0931
 1043BOLB   C2B25018  17.114  26.210  14.849  0.0953 -0.0242 -0.0326
 1043BOLB   C3B25019  17.088  26.660  14.641 -0.0982  0.0685  0.1706
 1043BOLB   C4B25020  17.416  26.820  14.326  0.0751 -0.0172  0.3645
 1043BOLB   NC225021  18.330  28.330  13.177  0.1220  0.2570  0.2737
 1043BOLB   PO225022  18.202  28.362  12.699  0.2254  0.1081  0.0593
 1043BOLB   GL325023  18.237  27.965  12.827 -0.0800 -0.1553 -0.1287
 1043BOLB   GL425024  17.991  27.850  13.051 -0.2423 -0.3708  0.0137
 1043BOLB   C1C25025  18.124  27.520  12.719 -0.0167 -0.1563 -0.2435
 1043BOLB   C2C25026  18.219  27.123  12.912  0.1869 -0.1110 -0.0447
 1043BOLB   C3C25027  17.997  26.719  13.121  0.1773 -0.1772 -0.0607
 1043BOLB   C4C25028  17.826  26.355  13.276 -0.0277 -0.0494  0.0487
 1043BOLB   C1D25029  17.855  27.426  13.155 -0.1166  0.1039 -0.0054
 1043BOLB   C2D25030  17.680  27.151  13.382 -0.1616  0.0929 -0.5771
 1043BOLB   C3D25031  17.574  26.803  13.722 -0.5005 -0.0466  0.1157
 1043BOLB   C4D25032  17.553  26.387  13.735 -0.1911 -0.0619  0.0756
 1044BOLB   NC125033  15.066  25.529  15.224 -0.1826 -0.0411  0.3130
 1044BOLB   PO125034  14.933  25.118  15.068  0.0515 -0.0367 -0.2685
 1044BOLB   GL125035  15.169  25.425  14.760  0.2822  0.0961 -0.2564
 1044BOLB   GL225036  14.970  25.714  14.696 -0.0244 -0.1610 -0.2728
 1044BOLB   C1A25037  15.439  25.654  14.475 -0.2616  0.0502 -0.1874
 1044BOLB   C2A25038  15.512  25.747  14.088 -0.0307  0.1129  0.0490
 1044BOLB   C3A25039  15.837  25.789  13.709  0.1429  0.0475 -0.1723
 1044BOLB   C4A25040  15.827  26.067  13.275  0.2916  0.0687  0.0545
 1044BOLB   C1B25041  15.199  26.150  14.604 -0.0586 -0.0269  0.0040
 1044BOLB   C2B25042  15.294  26.355  14.189 -0.1716 -0.1068  0.0402
 1044BOLB   C3B25043  15.084  26.613  13.948 -0.0850  0.0484 -0.1199
 1044BOLB   C4B25044  15.122  26.897  13.584 -0.3628  0.2915 -0.1675
 1044BOLB   NC225045  15.971  28.626  13.094  0.4388  0.1500  0.0525
 1044BOLB   PO225046  16.050  28.483  12.677 -0.1249  0.0139 -0.2658
 1044BOLB   GL325047  16.039  28.177  12.885  0.1913 -0.0193 -0.1265
 1044BOLB   GL425048  16.351  28.097  13.003  0.2240 -0.2359  0.0577
 1044BOLB   C1C25049  15.996  27.829  13.271 -0.1209 -0.2462  0.1814
 1044BOLB   C2C25050  15.996  27.299  13.248  0.0627 -0.0197 -0.1371
 1044BOLB   C3C25051  15.894  26.856  13.098 -0.1109 -0.1325  0.0514
 1044BOLB   C4C25052  15.784  26.492  13.140 -0.2974 -0.2238 -0.1234
 1044BOLB   C1D25053  16.442  27.628  12.919 -0.1153 -0.2690  0.0156
 1044BOLB   C2D25054  16.328  27.245  12.823  0.0433  0.2058  0.0704
 1044BOLB   C3D25055  16.627  27.019  12.751 -0.0518  0.1645  0.0706
 1044BOLB   C4D25056  16.903  26.774  12.398  0.2919  0.1643 -0.0694
 1045BOLB   NC125057  14.862  25.337  16.648  0.2143 -0.2783 -0.0293
 1045BOLB   PO125058  14.385  25.485  16.441 -0.1101  0.2337 -0.1078
 1045BOLB   GL125059  14.434  25.991  16.191  0.0762 -0.1725 -0.0493
 1045BOLB   GL225060  14.313  26.070  15.901 -0.0484 -0.1213 -0.0580
 1045BOLB   C1A25061  14.567  26.474  15.951 -0.1692 -0.0896 -0.1727
 1045BOLB   C2A25062  14.725  26.875  15.754 -0.4873  0.0182 -0.0808
 1045BOLB   C3A25063  15.002  27.069  15.329  0.0320  0.3461  0.2165
 1045BOLB   C4A25064  15.190  27.236  14.990 -0.0129  0.3469  0.0335
 1045BOLB   C1B25065  14.120  26.525  15.794  0.1353 -0.0467  0.0819
 1045BOLB   C2B25066  14.207  26.893  15.808  0.0622  0.0327  0.0709
 1045BOLB   C3B25067  14.148  27.327  15.685 -0.0283 -0.0311  0.1212
 1045BOLB   C4B25068  14.098  27.852  15.675  0.1554  0.0130 -0.0982
 1045BOLB   NC225069  14.635  29.497  13.684 -0.1168 -0.0641 -0.1637
 1045BOLB   PO225070  15.035  29.556  13.809  0.3937  0.1797  0.0918
 1045BOLB   GL325071  15.050  29.350  14.308  0.0242 -0.1086 -0.1287
 1045BOLB   GL425072  14.889  29.472  14.528  0.4932  0.2483  0.1714
 1045BOLB   C1C25073  15.005  28.935  14.545  0.0083 -0.2406 -0.2472
 1045BOLB   C2C25074  15.012  28.490  14.785 -0.0697 -0.2505  0.1658
 1045BOLB   C3C25075  15.117  27.994  14.849 -0.1302  0.1564 -0.1834
 1045BOLB   C4C25076  15.289  27.603  14.936  0.1462 -0.1196 -0.0740
 1045BOLB   C1D25077  14.581  29.182  14.774  0.0414  0.2740 -0.0073
 1045BOLB   C2D25078  14.565  28.810  14.775  0.0573  0.0896 -0.0233
 1045BOLB   C3D25079  14.445  28.378  14.717  0.2135 -0.3121 -0.0620
 1045BOLB   C4D25080  14.309  27.951  14.641 -0.0834  0.1164  0.0807
 1046BOLB   NC125081  19.471  24.974  16.202 -0.0903 -0.1133  0.0743
 1046BOLB   PO125082  19.082  25.062  16.040  0.0851 -0.1991  0.1417
 1046BOLB   GL125083  19.138  25.490  16.120 -0.3826 -0.1896  0.2084
 1046BOLB   GL225084  19.558  25.463  16.175 -0.2230 -0.0344  0.1119
 1046BOLB   C1A25085  19.118  25.920  15.984  0.0208 -0.2425 -0.3427
 1046BOLB   C2A25086  19.077  26.233  16.103 -0.0652 -0.1349  0.1273
 1046BOLB   C3A25087  19.301  26.586  16.364  0.0194  0.1414  0.0099
 1046BOLB   C4A25088  19.100  26.928  16.627  0.0200 -0.0831  0.0681
 1046BOLB   C1B25089  19.580  25.693  15.840 -0.1455  0.0930 -0.1750
 1046BOLB   C2B25090  19.707  25.915  15.547  0.0393  0.1058 -0.0545
 1046BOLB   C3B25091  20.052  26.061  15.375 -0.1198 -0.1236 -0.0841
 1046BOLB   C4B25092  20.133  26.570  15.278 -0.1472  0.3760 -0.0943
 1046BOLB   NC225093  19.519  29.660  17.265  0.0407  0.1604 -0.3460
 1046BOLB   PO225094  19.159  29.320  17.250 -0.2084 -0.1943  0.0169
 1046BOLB   GL325095  18.985  29.023  17.052  0.1564  0.0566  0.4390
 1046BOLB   GL425096  19.240  28.821  17.313  0.0308  0.3170  0.4268
 1046BOLB   C1C25097  18.998  28.547  16.860  0.0728 -0.0997 -0.1363
 1046BOLB   C2C25098  19.296  28.150  16.663 -0.0315 -0.1675 -0.2093
 1046BOLB   C3C25099  19.187  27.709  16.718 -0.1015  0.3196 -0.0091
 1046BOLB   C4C25100  18.955  27.391  16.577  0.2303 -0.2120  0.3356
 1046BOLB   C1D25101  18.910  28.587  17.341 -0.0412 -0.3284 -0.0976
 1046BOLB   C2D25102  18.865  28.234  17.336  0.3619  0.2795  0.1004
 1046BOLB   C3D25103  18.680  27.764  17.266  0.2618 -0.0729 -0.2262
 1046BOLB   C4D25104  18.294  27.690  17.338 -0.1636 -0.0148 -0.1546
 1047BOLB   NC125105  19.842  23.774  14.443 -0.1560 -0.0323  0.1137
 1047BOLB   PO125106  19.954  24.188  14.198 -0.0685 -0.4095 -0.3430
 1047BOLB   GL125107  19.831  24.281  13.719  0.0375  0.1382  0.1780
 1047BOLB   GL225108  19.895  24.586  13.890 -0.3355  0.0720 -0.1457
 1047BOLB   C1A25109  19.865  24.498  13.304  0.1261  0.1067  0.3917
 1047BOLB   C2A25110  19.768  24.935  13.149 -0.0175 -0.0171 -0.0431
 1047BOLB   C3A25111  19.582  25.200  12.865  0.0481 -0.2303 -0.1406
 1047BOLB   C4A25112  19.315  25.470  12.589  0.5709 -0.3028  0.2265
 1047BOLB   C1B25113  20.118  24.831  13.615 -0.1031  0.0780  0.0943
 1047BOLB   C2B25114  20.424  25.114  13.455  0.0179 -0.1867  0.1512
 1047BOLB   C3B25115  20.578  25.447  13.780  0.1595  0.2017  0.1975
 1047BOLB   C4B25116  20.986  25.748  13.961 -0.0348 -0.2008 -0.1413
 1047BOLB   NC225117  18.557  26.883  10.760 -0.1782  0.2186  0.0265
 1047BOLB   PO225118  18.876  26.687  10.533  0.0179 -0.2549  0.0160
 1047BOLB   GL325119  18.913  26.439  10.840 -0.0748 -0.0646  0.0780
 1047BOLB   GL425120  19.230  26.317  10.965  0.0991 -0.0612  0.1928
 1047BOLB   C1C25121  18.811  26.100  11.197 -0.2284 -0.1398  0.1768
 1047BOLB   C2C25122  18.889  25.825  11.464 -0.1546 -0.2931 -0.0267
 1047BOLB   C3C25123  18.910  25.587  11.788 -0.0010 -0.0639  0.1072
 1047BOLB   C4C25124  19.205  25.579  12.186  0.1081  0.0562 -0.1898
 1047BOLB   C1D25125  19.242  26.355  11.471  0.2327 -0.1081  0.2418
 1047BOLB   C2D25126  19.256  26.006  11.781 -0.4113  0.0609 -0.3772
 1047BOLB   C3D25127  19.589  25.708  11.859 -0.0011  0.0226  0.1927
 1047BOLB   C4D25128  19.855  25.398  11.818 -0.0718 -0.1693  0.0752
 1048BOLB   NC125129  19.935  24.280  15.992 -0.1758  0.0153  0.1248
 1048BOLB   PO125130  19.925  24.761  15.951 -0.4272 -0.1661  0.2974
 1048BOLB   GL125131  19.843  25.180  15.901 -0.1019  0.2507  0.0277
 1048BOLB   GL225132  19.884  25.346  15.656  0.0090  0.1751 -0.4653
 1048BOLB   C1A25133  20.030  25.612  16.098  0.1276 -0.0473  0.1999
 1048BOLB   C2A25134  20.060  25.926  15.900  0.0310  0.0956  0.2159
 1048BOLB   C3A25135  20.092  26.399  15.928 -0.0622 -0.2103  0.1794
 1048BOLB   C4A25136  19.944  26.853  15.706 -0.1725  0.1093 -0.1431
 1048BOLB   C1B25137  19.725  25.469  15.243  0.1610 -0.1478  0.2202
 1048BOLB   C2B25138  19.558  25.854  15.046 -0.0759  0.0506  0.3079
 1048BOLB   C3B25139  19.256  26.232  15.004 -0.1997 -0.0310 -0.1870
 1048BOLB   C4B25140  18.999  26.540  15.244  0.3413 -0.0618 -0.0953
 1048BOLB   NC225141  20.216  29.149  15.237 -0.0795  0.3029  0.2536
 1048BOLB   PO225142  20.015  28.898  15.065  0.2302 -0.0530 -0.2004
 1048BOLB   GL325143  19.585  28.664  14.998  0.0089  0.3299  0.1377
 1048BOLB   GL425144  19.411  28.483  14.761 -0.1564 -0.0325 -0.2273
 1048BOLB   C1C25145  19.677  28.112  14.972  0.0140 -0.0816 -0.2672
 1048BOLB   C2C25146  19.516  27.725  14.981 -0.3091 -0.1101  0.2531
 1048BOLB   C3C25147  19.545  27.474  15.367 -0.1682 -0.1525 -0.3442
 1048BOLB   C4C25148  19.624  27.113  15.522 -0.2932  0.2236  0.1662
 1048BOLB   C1D25149  19.121  28.100  14.887 -0.0705 -0.1814 -0.1117
 1048BOLB   C2D25150  18.748  27.876  14.994 -0.2245 -0.0263  0.3759
 1048BOLB   C3D25151  18.588  27.447  15.006 -0.0103  0.1312  0.0366
 1048BOLB   C4D25152  18.698  26.991  15.138 -0.0361  0.1780  0.3506
 1049BOLB   NC125153  18.263  24.761  16.027 -0.0227 -0.1210  0.0938
 1049BOLB   PO125154  18.193  24.958  15.559 -0.2466 -0.3195  0.0108
 1049BOLB   GL125155  18.325  25.270  15.355 -0.2910 -0.5450 -0.1057
 1049BOLB   GL225156  18.606  25.180  15.331  0.2576  0.0056 -0.0965
 1049BOLB   C1A25157  18.328  25.662  15.325 -0.0020 -0.1070 -0.1333
 1049BOLB   C2A25158  18.320  26.107  15.370 -0.2545 -0.2159  0.2352
 1049BOLB   C3A25159  18.480  26.431  15.257 -0.1736 -0.1436  0.2793
 1049BOLB   C4A25160  18.237  26.814  15.418  0.0237 -0.3634  0.0006
 1049BOLB   C1B25161  18.772  25.547  15.215 -0.2327 -0.4166  0.2966
 1049BOLB   C2B25162  18.832  26.068  15.190  0.0528 -0.2298 -0.1271
 1049BOLB   C3B25163  18.788  26.277  14.818 -0.1231  0.3598 -0.0990
 1049BOLB   C4B25164  18.741  26.674  14.739  0.0609 -0.0783 -0.0399
 1049BOLB   NC225165  19.319  29.147  15.138 -0.0714  0.0762  0.0856
 1049BOLB   PO225166  18.800  29.168  15.270 -0.1604 -0.2431 -0.0626
 1049BOLB   GL325167  18.594  28.791  15.405  0.1926 -0.0592  0.3081
 1049BOLB   GL425168  18.780  28.571  15.479 -0.0516  0.2256  0.2251
 1049BOLB   C1C25169  18.313  28.453  15.660 -0.0329 -0.2907  0.0776
 1049BOLB   C2C25170  18.352  28.071  15.797  0.3884  0.2900  0.2323
 1049BOLB   C3C25171  18.411  27.657  15.858  0.0590 -0.0827 -0.1165
 1049BOLB   C4C25172  18.207  27.254  15.650 -0.0284 -0.1095  0.1996
 1049BOLB   C1D25173  18.731  28.521  15.906 -0.0378 -0.1633 -0.1554
 1049BOLB   C2D25174  18.575  28.691  16.299  0.1119 -0.0118 -0.2442
 1049BOLB   C3D25175  18.524  28.698  16.804  0.1728 -0.1604  0.0503
 1049BOLB   C4D25176  18.523  28.379  16.964  0.1878  0.2442 -0.1201
 1050BOLB   NC125177  16.299  24.337  14.469 -0.5001 -0.0501 -0.3003
 1050BOLB   PO125178  16.049  24.657  14.688  0.0838  0.0152 -0.1224
 1050BOLB   GL125179  16.229  24.911  14.501  0.1882  0.3018  0.1852
 1050BOLB   GL225180  16.562  24.835  14.366 -0.0504  0.0810  0.1471
 1050BOLB   C1A25181  16.304  25.286  14.377  0.1089 -0.3440 -0.0805
 1050BOLB   C2A25182  16.501  25.599  14.109 -0.1519  0.2010  0.3916
 1050BOLB   C3A25183  16.654  25.862  13.799 -0.1372 -0.0764 -0.0406
 1050BOLB   C4A25184  16.812  26.183  13.456  0.0647  0.0632 -0.1314
 1050BOLB   C1B25185  16.570  25.083  14.026 -0.0777 -0.1288  0.2412
 1050BOLB   C2B25186  16.640  25.312  13.683  0.0579  0.3246  0.1034
 1050BOLB   C3B25187  16.758  25.544  13.419 -0.1031 -0.2169 -0.0208
 1050BOLB   C4B25188  16.662  25.717  12.981  0.1161  0.2549  0.0974
 1050BOLB   NC225189  17.744  29.186  13.140  0.2863 -0.2589  0.1176
 1050BOLB   PO225190  17.552  28.704  13.129 -0.0266 -0.2296  0.2339
 1050BOLB   GL325191  17.365  28.508  13.357  0.3604 -0.0688 -0.0912
 1050BOLB   GL425192  17.354  28.253  13.093  0.3016 -0.2416 -0.3033
 1050BOLB   C1C25193  17.223  28.006  13.576 -0.0744  0.2227 -0.1105
 1050BOLB   C2C25194  17.077  27.576  13.530 -0.2685  0.0806  0.0721
 1050BOLB   C3C25195  17.140  27.087  13.456  0.1699 -0.1035 -0.5263
 1050BOLB   C4C25196  17.074  26.523  13.584  0.1222 -0.2528 -0.1494
 1050BOLB   C1D25197  17.494  27.819  13.168  0.0628 -0.5399 -0.1660
 1050BOLB   C2D25198  17.372  27.449  13.092  0.1400 -0.0343  0.0681
 1050BOLB   C3D25199  17.080  27.284  12.748  0.1061  0.0254  0.0017
 1050BOLB   C4D25200  16.753  27.420  12.457 -0.0368  0.0760  0.0156
 1051BOLB   NC125201  11.395  25.677  14.067  0.2080  0.1366  0.1155
 1051BOLB   PO125202  11.058  25.821  13.730 -0.1360  0.2702  0.4019
 1051BOLB   GL125203  11.003  25.585  13.235  0.5510 -0.0675  0.1097
 1051BOLB   GL225204  10.728  25.318  13.157  0.3612 -0.1789  0.1624
 1051BOLB   C1A25205  11.274  25.602  12.979 -0.1928  0.2649  0.3182
 1051BOLB   C2A25206  11.576  25.708  12.748  0.4295  0.3216  0.0133
 1051BOLB   C3A25207  11.792  25.961  12.499  0.1500 -0.2353 -0.1399
 1051BOLB   C4A25208  11.966  26.187  12.127 -0.4046 -0.1356 -0.3231
 1051BOLB   C1B25209  10.788  25.580  12.797 -0.3012  0.1587  0.1826
 1051BOLB   C2B25210  11.042  25.813  12.537  0.0889  0.0222 -0.1061
 1051BOLB   C3B25211  10.915  26.031  12.158 -0.1536  0.3419  0.0262
 1051BOLB   C4B25212  10.729  25.888  11.773 -0.3322  0.0330 -0.2481
 1051BOLB   NC225213  12.407  27.107   9.939  0.1074 -0.0183  0.0797
 1051BOLB   PO225214  12.893  27.211  10.070  0.3477  0.7125 -0.2199
 1051BOLB   GL325215  12.812  26.910  10.378  0.0300  0.1036 -0.0489
 1051BOLB   GL425216  13.060  26.747  10.516  0.0011  0.0699  0.2779
 1051BOLB   C1C25217  12.423  26.764  10.674 -0.0113  0.0063 -0.1053
 1051BOLB   C2C25218  12.386  26.722  11.178  0.1053 -0.2544 -0.0949
 1051BOLB   C3C25219  12.162  26.638  11.573 -0.2920  0.1010  0.1703
 1051BOLB   C4C25220  11.889  26.449  11.909  0.0192 -0.1564  0.2726
 1051BOLB   C1D25221  12.791  26.356  10.522 -0.3738 -0.0054  0.1873
 1051BOLB   C2D25222  12.551  26.258  10.795  0.0419  0.0630  0.2067
 1051BOLB   C3D25223  12.499  26.129  11.185 -0.3358 -0.2279 -0.3211
 1051BOLB   C4D25224  12.396  26.177  11.546 -0.3474  0.3992 -0.1401
 1052BOLB   NC125225  20.784  24.614  16.463  0.1457 -0.0858 -0.0831
 1052BOLB   PO125226  20.699  25.005  16.508 -0.1103 -0.2133  0.1266
 1052BOLB   GL125227  20.462  25.277  16.520 -0.0586  0.0840 -0.3029
 1052BOLB   GL225228  20.519  25.542  16.177  0.0100 -0.3305 -0.0736
 1052BOLB   C1A25229  20.306  25.806  16.535 -0.1960 -0.1828  0.0138
 1052BOLB   C2A25230  20.092  26.133  16.434 -0.0343 -0.0464 -0.0713
 1052BOLB   C3A25231  19.782  26.429  16.338  0.0478 -0.0199  0.0815
 1052BOLB   C4A25232  19.690  26.828  16.163 -0.1835  0.1505  0.2242
 1052BOLB   C1B25233  20.534  25.845  15.849  0.2565  0.0234  0.1363
 1052BOLB   C2B25234  20.507  26.186  15.591  0.2155 -0.0654 -0.0301
 1052BOLB   C3B25235  20.479  26.605  15.700  0.1279 -0.3014  0.0838
 1052BOLB   C4B25236  20.851  26.942  15.667  0.1145 -0.1864 -0.1803
 1052BOLB   NC225237  21.425  28.666  15.795 -0.1587  0.2533 -0.2231
 1052BOLB   PO225238  21.527  28.485  16.212 -0.3540 -0.0329 -0.0610
 1052BOLB   GL325239  21.101  28.244  16.152  0.0220 -0.1780  0.0124
 1052BOLB   GL425240  20.748  28.323  16.382 -0.0145 -0.0101 -0.0576
 1052BOLB   C1C25241  20.821  27.785  16.238 -0.3740 -0.1778 -0.0798
 1052BOLB   C2C25242  20.380  27.657  16.340  0.1117 -0.0693 -0.1528
 1052BOLB   C3C25243  19.995  27.371  16.268 -0.0069 -0.0938  0.2286
 1052BOLB   C4C25244  19.784  27.154  16.133  0.1581  0.0681 -0.3374
 1052BOLB   C1D25245  20.364  28.104  16.485 -0.0172 -0.0556 -0.3335
 1052BOLB   C2D25246  19.942  27.848  16.434 -0.1839  0.2036  0.1707
 1052BOLB   C3D25247  19.563  27.706  16.338  0.1012  0.0094 -0.4598
 1052BOLB   C4D25248  19.277  28.001  16.259  0.0120  0.2256  0.2298
 1053BOLB   NC125249  22.503  25.770  16.829 -0.2172 -0.3026  0.0514
 1053BOLB   PO125250  22.128  25.625  16.656 -0.1556  0.0776 -0.0178
 1053BOLB   GL125251  21.829  25.851  16.521  0.0151  0.2290 -0.1470
 1053BOLB   GL225252  21.673  26.056  16.793  0.0302  0.0893 -0.0630
 1053BOLB   C1A25253  21.483  25.699  16.240  0.2901 -0.1328  0.1946
 1053BOLB   C2A25254  21.004  25.707  16.159  0.0870 -0.1911 -0.0275
 1053BOLB   C3A25255  20.690  26.092  16.268 -0.2038 -0.0396 -0.2769
 1053BOLB   C4A25256  20.411  26.471  16.283  0.2117  0.1154 -0.1108
 1053BOLB   C1B25257  21.391  26.284  16.512  0.3199 -0.1004  0.1155
 1053BOLB   C2B25258  21.100  26.546  16.337  0.1017  0.2481 -0.3262
 1053BOLB   C3B25259  20.843  26.815  16.112  0.1472  0.2176 -0.0668
 1053BOLB   C4B25260  20.928  27.311  16.149  0.0537 -0.0297  0.0973
 1053BOLB   NC225261  20.962  28.667  14.719 -0.0323  0.2644  0.1484
 1053BOLB   PO225262  20.853  28.523  15.191  0.2356  0.1767 -0.5656
 1053BOLB   GL325263  20.671  28.223  15.519 -0.0091 -0.0494 -0.3330
 1053BOLB   GL425264  20.356  28.013  15.472 -0.6062 -0.2678 -0.1106
 1053BOLB   C1C25265  20.741  27.935  15.759  0.1592 -0.2702  0.0962
 1053BOLB   C2C25266  20.577  27.466  15.779 -0.0264 -0.0613  0.1059
 1053BOLB   C3C25267  20.329  27.156  15.978 -0.3029 -0.2085  0.0287
 1053BOLB   C4C25268  20.198  26.829  16.178  0.0621 -0.0974  0.0646
 1053BOLB   C1D25269  20.558  27.642  15.292 -0.1243 -0.1942  0.1487
 1053BOLB   C2D25270  20.445  27.326  15.064 -0.1434  0.1885  0.1894
 1053BOLB   C3D25271  20.148  27.082  15.094  0.1362  0.2525 -0.0586
 1053BOLB   C4D25272  19.807  26.977  15.042 -0.0760 -0.5608 -0.0432
 1054BOLB   NC125273   9.986  28.934  13.708 -0.1178 -0.1007 -0.2265
 1054BOLB   PO125274  10.179  28.699  13.318 -0.2088 -0.1921 -0.0184
 1054BOLB   GL125275  10.582  28.571  13.261 -0.2344  0.1171 -0.0248
 1054BOLB   GL225276  10.693  28.238  13.217 -0.2637  0.0480 -0.0292
 1054BOLB   C1A25277  10.946  28.739  13.119 -0.0713 -0.1380  0.4502
 1054BOLB   C2A25278  11.177  28.924  13.359 -0.2250  0.1605 -0.3324
 1054BOLB   C3A25279  11.363  29.101  13.750 -0.4403 -0.0666  0.1141
 1054BOLB   C4A25280  11.473  29.435  14.044 -0.1559  0.2137  0.0367
 1054BOLB   C1B25281  11.035  28.247  12.993 -0.2003  0.2236 -0.2183
 1054BOLB   C2B25282  11.169  28.017  12.582  0.0362  0.1994  0.2363
 1054BOLB   C3B25283  11.134  27.586  12.499 -0.0293  0.0826 -0.3918
 1054BOLB   C4B25284  10.917  27.148  12.270 -0.0408 -0.1043 -0.1971
 1054BOLB   NC225285  12.053  29.817  15.829 -0.0555  0.0133 -0.2868
 1054BOLB   PO225286  12.215  29.511  16.268 -0.4262  0.1640  0.3304
 1054BOLB   GL325287  12.282  29.208  15.948 -0.1465  0.2501  0.4289
 1054BOLB   GL425288  12.531  29.441  15.652 -0.1302  0.0246  0.2717
 1054BOLB   C1C25289  12.002  28.968  15.677 -0.2491  0.0613 -0.0585
 1054BOLB   C2C25290  11.862  28.783  15.196 -0.0659  0.1071 -0.2507
 1054BOLB   C3C25291  11.665  28.978  14.785 -0.4916 -0.2431 -0.0216
 1054BOLB   C4C25292  11.674  29.325  14.502 -0.0502  0.0920 -0.1476
 1054BOLB   C1D25293  12.593  29.219  15.287  0.1006  0.2531  0.0248
 1054BOLB   C2D25294  12.427  28.696  15.300  0.0782 -0.1208  0.1531
 1054BOLB   C3D25295  12.382  28.217  15.349 -0.2140 -0.0973 -0.0873
 1054BOLB   C4D25296  12.169  27.792  15.329 -0.0702  0.1224 -0.3463
 1055BOLB   NC125297  18.493  24.532  14.563 -0.2704 -0.0123 -0.2459
 1055BOLB   PO125298  18.115  24.607  14.684 -0.0466 -0.0991 -0.0033
 1055BOLB   GL125299  18.250  25.047  14.469 -0.2229  0.0434 -0.1715
 1055BOLB   GL225300  18.503  25.050  14.506 -0.2594  0.0601  0.0267
 1055BOLB   C1A25301  18.160  25.460  14.367  0.0600  0.3954 -0.1391
 1055BOLB   C2A25302  18.127  25.812  14.539  0.0557 -0.1041 -0.1367
 1055BOLB   C3A25303  17.831  26.149  14.699  0.4693  0.3875 -0.0372
 1055BOLB   C4A25304  17.629  26.470  14.722  0.1828 -0.0641 -0.0389
 1055BOLB   C1B25305  18.647  25.476  14.439  0.0392  0.1168 -0.0827
 1055BOLB   C2B25306  18.658  25.974  14.386  0.0030  0.2171  0.0464
 1055BOLB   C3B25307  18.317  26.231  14.288 -0.0694  0.1972 -0.1044
 1055BOLB   C4B25308  17.967  26.421  14.107  0.2131 -0.2561  0.0322
 1055BOLB   NC225309  18.146  28.795  13.166 -0.1024  0.0373 -0.4200
 1055BOLB   PO225310  17.946  28.550  13.457  0.3271  0.0392  0.1139
 1055BOLB   GL325311  17.976  28.094  13.483  0.3843  0.1856 -0.1157
 1055BOLB   GL425312  18.281  27.959  13.495 -0.0218 -0.0694 -0.1494
 1055BOLB   C1C25313  17.745  27.750  13.619  0.0291 -0.1671  0.2136
 1055BOLB   C2C25314  17.922  27.362  13.910 -0.1670  0.1340 -0.0380
 1055BOLB   C3C25315  18.069  27.033  14.276 -0.1180  0.1488  0.1301
 1055BOLB   C4C25316  17.846  26.779  14.551 -0.0121 -0.4600  0.2060
 1055BOLB   C1D25317  18.303  27.592  13.763 -0.1261  0.2324 -0.3654
 1055BOLB   C2D25318  18.491  27.328  13.977 -0.0499 -0.1304  0.2571
 1055BOLB   C3D25319  18.488  26.937  13.955 -0.1170  0.1682 -0.2225
 1055BOLB   C4D25320  18.512  26.527  13.907  0.1509 -0.1672  0.1948
 1056BOLB   NC125321   9.628  26.094  12.881  0.2636 -0.1125 -0.3036
 1056BOLB   PO125322   9.686  25.682  12.698 -0.1148  0.2418  0.2727
 1056BOLB   GL125323  10.074  25.398  12.511 -0.1289 -0.1145 -0.0194
 1056BOLB   GL225324  10.432  25.323  12.642  0.0267  0.2887  0.3357
 1056BOLB   C1A25325  10.396  25.239  12.140 -0.1737 -0.1133 -0.2276
 1056BOLB   C2A25326  10.627  25.215  11.836 -0.2891  0.2515 -0.0697
 1056BOLB   C3A25327  10.907  25.017  11.519 -0.2289 -0.0412  0.1495
 1056BOLB   C4A25328  11.086  25.118  11.096 -0.2966 -0.2182  0.1154
 1056BOLB   C1B25329  10.415  25.797  12.494  0.3400  0.2685  0.0279
 1056BOLB   C2B25330  10.445  26.113  12.289  0.0938  0.0505 -0.0057
 1056BOLB   C3B25331  10.618  26.412  12.133 -0.2428 -0.1768  0.0826
 1056BOLB   C4B25332  10.948  26.709  12.001  0.0546 -0.2995 -0.2435
 1056BOLB   NC225333  10.314  26.610   9.944 -0.0318  0.2428 -0.2114
 1056BOLB   PO225334  10.540  26.637   9.612  0.0434  0.0375  0.1654
 1056BOLB   GL325335  10.559  26.259   9.583 -0.0263 -0.0195 -0.2586
 1056BOLB   GL425336  10.861  26.087   9.657 -0.1658  0.2892 -0.6106
 1056BOLB   C1C25337  10.515  25.979  10.045 -0.0385 -0.1944  0.1479
 1056BOLB   C2C25338  10.811  26.073  10.397  0.4711  0.6282  0.1186
 1056BOLB   C3C25339  10.870  25.709  10.538  0.0654 -0.0260 -0.1260
 1056BOLB   C4C25340  11.014  25.253  10.706 -0.0353  0.0016 -0.1549
 1056BOLB   C1D25341  10.984  25.753   9.971  0.1802  0.3519 -0.2262
 1056BOLB   C2D25342  10.870  25.397  10.131 -0.2183  0.1866  0.0354
 1056BOLB   C3D25343  10.731  24.931   9.953 -0.2300  0.4021  0.0402
 1056BOLB   C4D25344  10.812  24.662  10.168 -0.1678  0.0262 -0.0592
 1057BOLB   NC125345  20.856  24.228  15.758  0.0732  0.0661 -0.1618
 1057BOLB   PO125346  20.818  24.568  15.950 -0.0526  0.1572  0.4198
 1057BOLB   GL125347  20.716  24.973  15.908  0.2419 -0.0842  0.1288
 1057BOLB   GL225348  20.357  25.156  15.931  0.0098 -0.0219 -0.3112
 1057BOLB   C1A25349  20.858  25.369  15.741 -0.2794  0.3132 -0.3904
 1057BOLB   C2A25350  20.811  25.600  15.342  0.1035  0.3566 -0.0599
 1057BOLB   C3A25351  20.604  25.802  15.162 -0.2107  0.0182  0.0052
 1057BOLB   C4A25352  20.516  26.345  15.051 -0.0185 -0.0602  0.0509
 1057BOLB   C1B25353  20.326  25.449  15.547 -0.2937  0.5002 -0.0448
 1057BOLB   C2B25354  20.173  25.593  15.201 -0.0552  0.1221 -0.0071
 1057BOLB   C3B25355  20.048  25.840  14.887 -0.1271 -0.1922  0.0203
 1057BOLB   C4B25356  20.031  26.229  14.907 -0.0774 -0.1127 -0.2434
 1057BOLB   NC225357  20.832  27.939  13.189  0.1299  0.0212  0.1111
 1057BOLB   PO225358  21.084  28.125  13.515  0.3226  0.0469  0.4669
 1057BOLB   GL325359  20.829  27.904  13.723  0.2253  0.1596 -0.3319
 1057BOLB   GL425360  20.708  28.219  13.887 -0.0041  0.0746 -0.1950
 1057BOLB   C1C25361  20.728  27.610  14.031  0.1145  0.0071  0.0203
 1057BOLB   C2C25362  20.361  27.258  14.015 -0.0877 -0.0754 -0.2593
 1057BOLB   C3C25363  20.245  27.028  14.460  0.1443  0.2621  0.0655
 1057BOLB   C4C25364  20.250  26.713  14.779  0.0410 -0.1990  0.1432
 1057BOLB   C1D25365  20.325  27.908  14.023 -0.2850 -0.1534  0.1558
 1057BOLB   C2D25366  20.097  27.617  14.275 -0.0358 -0.2499 -0.3381
 1057BOLB   C3D25367  19.823  27.272  14.250  0.0014  0.0925 -0.0620
 1057BOLB   C4D25368  19.601  26.911  14.416  0.1327 -0.3321 -0.0196
 1058BOLB   NC125369  14.312  25.201  15.510  0.0086  0.2035 -0.0910
 1058BOLB   PO125370  14.523  25.523  15.422 -0.1288  0.0602 -0.1110
 1058BOLB   GL125371  14.390  25.979  15.429 -0.0126  0.0565  0.1275
 1058BOLB   GL225372  14.127  26.000  15.147  0.0048 -0.1471  0.3080
 1058BOLB   C1A25373  14.477  26.373  15.397 -0.2394 -0.0998 -0.0782
 1058BOLB   C2A25374  14.778  26.641  15.201  0.3903 -0.0807  0.0498
 1058BOLB   C3A25375  14.935  26.710  14.886 -0.2364 -0.1925 -0.0202
 1058BOLB   C4A25376  15.157  26.979  14.561  0.0193 -0.2928  0.4021
 1058BOLB   C1B25377  14.241  26.468  14.907  0.1268  0.0623  0.1413
 1058BOLB   C2B25378  14.447  26.833  14.908 -0.3314  0.1936  0.1801
 1058BOLB   C3B25379  14.652  27.107  14.613  0.2734  0.0574  0.1403
 1058BOLB   C4B25380  14.883  27.518  14.708  0.0548  0.1702 -0.1372
 1058BOLB   NC225381  15.920  29.764  13.850  0.0581 -0.0997  0.0987
 1058BOLB   PO225382  15.855  29.354  13.912  0.1640  0.0956  0.2545
 1058BOLB   GL325383  15.590  28.999  13.948 -0.2398 -0.0002 -0.0359
 1058BOLB   GL425384  15.330  29.117  13.839 -0.1207 -0.2263 -0.0518
 1058BOLB   C1C25385  15.400  28.670  14.363  0.2861 -0.0153 -0.1516
 1058BOLB   C2C25386  15.302  28.224  14.477 -0.1358 -0.1445  0.3673
 1058BOLB   C3C25387  15.198  27.788  14.413  0.0444  0.1504  0.0550
 1058BOLB   C4C25388  15.311  27.391  14.470 -0.3728  0.0757 -0.0766
 1058BOLB   C1D25389  14.997  28.901  14.075  0.0774 -0.1187 -0.0073
 1058BOLB   C2D25390  14.862  28.505  14.233  0.0094  0.3175 -0.2500
 1058BOLB   C3D25391  14.745  28.059  14.261 -0.1857 -0.2673  0.2874
 1058BOLB   C4D25392  14.696  27.586  14.244  0.0622 -0.4725  0.0543
 1059BOLB   NC125393  19.101  24.840  16.874  0.2394 -0.3301 -0.4188
 1059BOLB   PO125394  19.176  25.226  16.535  0.0673  0.0702 -0.0970
 1059BOLB   GL125395  19.292  25.664  16.643 -0.0614  0.3216  0.0050
 1059BOLB   GL225396  19.301  25.685  16.934 -0.0740  0.2947 -0.2006
 1059BOLB   C1A25397  19.447  25.986  16.347  0.2707  0.1923  0.0456
 1059BOLB   C2A25398  19.578  26.172  15.954  0.0851 -0.1023 -0.1670
 1059BOLB   C3A25399  19.684  26.419  15.613 -0.0542 -0.2799  0.0354
 1059BOLB   C4A25400  19.544  26.619  15.307  0.3102 -0.0766 -0.0714
 1059BOLB   C1B25401  19.281  26.126  17.031  0.1531 -0.0783  0.2999
 1059BOLB   C2B25402  19.114  26.489  17.235  0.1370 -0.0612  0.1815
 1059BOLB   C3B25403  18.978  26.926  17.171  0.1320 -0.0763 -0.2061
 1059BOLB   C4B25404  18.794  27.269  17.031  0.2923 -0.1589 -0.1353
 1059BOLB   NC225405  20.137  28.455  14.300 -0.1223 -0.0021  0.1005
 1059BOLB   PO225406  20.557  28.449  14.546  0.3949  0.1726 -0.0829
 1059BOLB   GL325407  20.342  28.038  14.484 -0.2232  0.3352 -0.1821
 1059BOLB   GL425408  20.697  27.950  14.408 -0.1472  0.2062  0.2745
 1059BOLB   C1C25409  20.134  27.801  14.898  0.1259  0.1564 -0.1686
 1059BOLB   C2C25410  19.936  27.416  14.828 -0.0828  0.5169  0.1112
 1059BOLB   C3C25411  19.461  27.256  14.871 -0.2362  0.0131 -0.1181
 1059BOLB   C4C25412  19.237  26.961  15.175  0.0087 -0.0384 -0.3469
 1059BOLB   C1D25413  21.077  27.782  14.414 -0.1010 -0.1642  0.0327
 1059BOLB   C2D25414  21.501  27.708  14.302 -0.0819 -0.1529 -0.2823
 1059BOLB   C3D25415  21.914  27.543  14.091  0.2965 -0.1128 -0.4042
 1059BOLB   C4D25416  22.270  27.685  13.900 -0.0329 -0.2950  0.3007
 1060BOLB   NC125417  13.791  25.662  15.103  0.0253  0.2934  0.1155
 1060BOLB   PO125418  14.155  25.444  15.088 -0.1917 -0.2059  0.4083
 1060BOLB   GL125419  14.489  25.788  14.872 -0.0223  0.0454  0.0603
 1060BOLB   GL225420  14.732  26.038  15.093 -0.0863  0.1812  0.0445
 1060BOLB   C1A25421  14.613  25.876  14.421  0.2411  0.1830  0.0412
 1060BOLB   C2A25422  14.681  26.260  13.997 -0.0886 -0.0227 -0.1761
 1060BOLB   C3A25423  14.774  26.341  13.652  0.1533  0.1575 -0.4179
 1060BOLB   C4A25424  14.741  26.616  13.410 -0.0453  0.0100 -0.0874
 1060BOLB   C1B25425  14.701  26.282  14.773  0.0561  0.1819  0.1121
 1060BOLB   C2B25426  14.813  26.616  14.420  0.0833  0.5635 -0.3369
 1060BOLB   C3B25427  14.860  27.043  14.127 -0.0518 -0.0224  0.3242
 1060BOLB   C4B25428  15.018  27.376  13.822  0.2028 -0.4680  0.0417
 1060BOLB   NC225429  14.917  28.301  12.027 -0.2154 -0.0272  0.0783
 1060BOLB   PO225430  14.881  28.030  11.730  0.0791  0.1684  0.0234
 1060BOLB   GL325431  14.809  27.793  11.947  0.3963 -0.0982 -0.1031
 1060BOLB   GL425432  14.533  27.424  11.996  0.1011  0.2936 -0.0629
 1060BOLB   C1C25433  15.089  27.540  12.121 -0.3920  0.1068 -0.0454
 1060BOLB   C2C25434  15.206  27.234  12.459 -0.0685  0.0290  0.0374
 1060BOLB   C3C25435  15.105  26.936  12.784  0.1416 -0.1335 -0.0334
 1060BOLB   C4C25436  14.833  26.725  12.992  0.1107  0.0575 -0.2399
 1060BOLB   C1D25437  14.717  27.399  12.492 -0.0799  0.4088 -0.0699
 1060BOLB   C2D25438  14.587  27.260  12.819 -0.1818  0.0808 -0.1253
 1060BOLB   C3D25439  14.056  27.178  12.920  0.3288 -0.2037 -0.4593
 1060BOLB   C4D25440  13.792  26.909  12.998  0.0683 -0.2959  0.1421
 1061BOLB   NC125441  11.427  26.444  16.720 -0.1675 -0.0929  0.1416
 1061BOLB   PO125442  11.590  26.775  16.417  0.1176 -0.1331  0.1152
 1061BOLB   GL125443  11.868  26.968  16.186  0.1000 -0.0007  0.1130
 1061BOLB   GL225444  12.004  27.275  16.273 -0.1534 -0.0802 -0.0082
 1061BOLB   C1A25445  12.166  26.990  15.916  0.2920  0.4071 -0.1520
 1061BOLB   C2A25446  12.267  27.425  15.818 -0.1652  0.0648  0.1354
 1061BOLB   C3A25447  12.316  27.928  15.777 -0.0397 -0.2032  0.0388
 1061BOLB   C4A25448  12.671  28.152  15.769 -0.0423 -0.0706  0.1233
 1061BOLB   C1B25449  12.229  27.642  16.271 -0.0704 -0.2325 -0.0848
 1061BOLB   C2B25450  12.593  27.740  16.133 -0.1340  0.0475 -0.0750
 1061BOLB   C3B25451  12.947  27.728  15.841 -0.1715  0.0032  0.0163
 1061BOLB   C4B25452  13.134  28.011  15.712 -0.1637  0.2807  0.0517
 1061BOLB   NC225453  13.389  29.623  13.702  0.3437 -0.2017  0.3092
 1061BOLB   PO225454  13.371  29.743  14.091  0.2533  0.1360 -0.0227
 1061BOLB   GL325455  13.347  29.224  14.289  0.0543  0.1400 -0.0480
 1061BOLB   GL425456  13.405  29.215  14.700 -0.1432 -0.0772 -0.4055
 1061BOLB   C1C25457  13.605  28.799  14.364 -0.1746  0.0059 -0.1068
 1061BOLB   C2C25458  13.600  28.554  14.700  0.1307  0.1131 -0.0677
 1061BOLB   C3C25459  13.220  28.465  15.132  0.1508 -0.1254 -0.0230
 1061BOLB   C4C25460  12.860  28.409  15.472 -0.0914 -0.3122 -0.0688
 1061BOLB   C1D25461  13.184  28.876  14.730 -0.0222 -0.1393  0.2880
 1061BOLB   C2D25462  13.023  28.530  14.570 -0.1720  0.0043 -0.0804
 1061BOLB   C3D25463  12.810  28.386  14.201 -0.4342 -0.0556  0.1540
 1061BOLB   C4D25464  12.440  28.300  14.022 -0.0581 -0.3675  0.2109
 1062BOLB   NC125465   9.706  25.401  13.183  0.2412  0.2540  0.1050
 1062BOLB   PO125466   9.738  25.795  13.247  0.0744  0.0246 -0.0193
 1062BOLB   GL125467  10.144  26.042  13.358  0.1070  0.4120 -0.0676
 1062BOLB   GL225468  10.291  26.058  13.601  0.0977 -0.0995  0.2498
 1062BOLB   C1A25469  10.539  25.868  13.163 -0.0950  0.0088  0.2890
 1062BOLB   C2A25470  10.924  26.083  12.974 -0.1919  0.0128 -0.0173
 1062BOLB   C3A25471  11.334  26.113  13.124 -0.3683  0.1157  0.0852
 1062BOLB   C4A25472  11.746  26.293  12.848 -0.0056 -0.1050 -0.0662
 1062BOLB   C1B25473  10.697  26.285  13.535  0.2186 -0.3769 -0.2064
 1062BOLB   C2B25474  11.117  26.412  13.551 -0.1584 -0.1669 -0.0259
 1062BOLB   C3B25475  11.344  26.816  13.662  0.2440  0.3150  0.0150
 1062BOLB   C4B25476  11.764  26.858  13.549 -0.1806 -0.1686 -0.0499
 1062BOLB   NC225477  11.989  28.757  11.189  0.1415  0.0608 -0.2310
 1062BOLB   PO225478  12.189  28.423  11.467  0.0580 -0.4818 -0.3075
 1062BOLB   GL325479  11.949  28.020  11.611  0.2073  0.1129 -0.1341
 1062BOLB   GL425480  11.719  28.179  11.898 -0.1455 -0.0181 -0.0534
 1062BOLB   C1C25481  11.861  27.692  11.993 -0.0531 -0.0134  0.1427
 1062BOLB   C2C25482  11.894  27.278  12.180 -0.0752 -0.1900 -0.2182
 1062BOLB   C3C25483  11.809  26.899  12.351  0.0240 -0.2871  0.3053
 1062BOLB   C4C25484  11.997  26.490  12.523 -0.3839 -0.0607  0.1246
 1062BOLB   C1D25485  11.551  27.988  12.227  0.3209  0.0029  0.1478
 1062BOLB   C2D25486  11.546  27.770  12.635 -0.2910 -0.1210 -0.2762
 1062BOLB   C3D25487  11.351  27.624  12.935 -0.1339  0.0554 -0.2258
 1062BOLB   C4D25488  11.045  27.390  13.140 -0.0123  0.0464 -0.2630
 1063BOLB   NC125489  14.511  25.296  14.841  0.1581  0.1228 -0.3387
 1063BOLB   PO125490  14.833  25.138  14.522  0.0162 -0.2154 -0.1475
 1063BOLB   GL125491  14.813  25.419  14.291 -0.1873  0.2955 -0.1061
 1063BOLB   GL225492  14.703  25.400  14.074  0.3665 -0.2796  0.1416
 1063BOLB   C1A25493  14.971  25.747  14.017  0.1688 -0.1366  0.2309
 1063BOLB   C2A25494  15.199  25.985  13.767 -0.0750  0.1689  0.2096
 1063BOLB   C3A25495  15.278  26.404  13.551  0.0955  0.1581 -0.0512
 1063BOLB   C4A25496  15.339  26.662  13.206 -0.1074 -0.1788 -0.0548
 1063BOLB   C1B25497  14.435  25.693  13.921 -0.3115 -0.1806 -0.2882
 1063BOLB   C2B25498  14.166  26.031  13.928 -0.1834 -0.1587  0.0636
 1063BOLB   C3B25499  14.039  26.466  13.993  0.5595  0.0890  0.0598
 1063BOLB   C4B25500  13.873  26.888  14.046 -0.3017 -0.1463 -0.0663
 1063BOLB   NC225501  14.614  28.949  12.936 -0.1232 -0.2793  0.0001
 1063BOLB   PO225502  14.533  28.611  12.673  0.0380  0.0205 -0.3205
 1063BOLB   GL325503  14.344  28.340  12.870 -0.3162  0.0697 -0.1138
 1063BOLB   GL425504  14.139  28.255  12.756  0.2633  0.0099 -0.1531
 1063BOLB   C1C25505  14.543  28.030  13.191  0.1316 -0.2304  0.0142
 1063BOLB   C2C25506  14.679  27.605  13.231 -0.2450  0.0166 -0.2244
 1063BOLB   C3C25507  15.063  27.393  13.109 -0.3021 -0.0012 -0.1196
 1063BOLB   C4C25508  15.425  27.071  13.211 -0.2597 -0.1375  0.4251
 1063BOLB   C1D25509  13.971  28.163  13.177  0.1824 -0.0918  0.0171
 1063BOLB   C2D25510  14.204  27.840  13.487  0.0132  0.0722 -0.0801
 1063BOLB   C3D25511  14.276  27.373  13.357  0.0772 -0.0529  0.4370
 1063BOLB   C4D25512  14.473  26.959  13.177  0.2222  0.1759 -0.0825
 1064BOLB   NC125513  15.609  25.228  16.719 -0.0758 -0.2013  0.3350
 1064BOLB   PO125514  15.368  25.652  16.591 -0.0344 -0.1164 -0.0099
 1064BOLB   GL125515  15.232  26.084  16.513 -0.0896  0.0583  0.2329
 1064BOLB   GL225516  15.098  26.138  16.724  0.3015 -0.1261 -0.1136
 1064BOLB   C1A25517  15.383  26.529  16.450  0.0571 -0.5105 -0.0394
 1064BOLB   C2A25518  15.463  26.961  16.356 -0.0822  0.0082 -0.3509
 1064BOLB   C3A25519  15.417  27.259  16.115  0.0205 -0.3453 -0.2039
 1064BOLB   C4A25520  15.078  27.666  16.016  0.1791 -0.0685  0.2046
 1064BOLB   C1B25521  14.768  26.402  16.558  0.1540  0.1940 -0.1743
 1064BOLB   C2B25522  14.967  26.901  16.522  0.0274 -0.1260  0.1017
 1064BOLB   C3B25523  14.934  27.377  16.489 -0.1069  0.1791  0.0921
 1064BOLB   C4B25524  14.733  27.824  16.470 -0.0929 -0.2834 -0.0046
 1064BOLB   NC225525  15.337  30.005  15.345  0.1108 -0.0688 -0.0283
 1064BOLB   PO225526  15.621  29.891  15.068 -0.1232  0.1549 -0.1453
 1064BOLB   GL325527  15.591  29.539  15.325 -0.1787 -0.3421 -0.0479
 1064BOLB   GL425528  15.745  29.438  15.703  0.0672  0.0069  0.1182
 1064BOLB   C1C25529  15.436  29.175  15.303 -0.4423  0.2011 -0.2456
 1064BOLB   C2C25530  15.559  28.778  15.487  0.0954  0.0510  0.0850
 1064BOLB   C3C25531  15.497  28.396  15.630  0.0214 -0.0004 -0.0444
 1064BOLB   C4C25532  15.239  28.072  15.879 -0.2455 -0.2416 -0.2059
 1064BOLB   C1D25533  15.558  29.122  15.829 -0.0003 -0.0722 -0.1760
 1064BOLB   C2D25534  15.747  28.725  16.035 -0.0293 -0.2643  0.2441
 1064BOLB   C3D25535  16.147  28.791  16.232 -0.3011 -0.0397  0.1485
 1064BOLB   C4D25536  16.484  28.500  16.307  0.1725  0.0067 -0.0685
 1065BOLB   NC125537  19.852  24.189  14.730  0.0034 -0.0458  0.2135
 1065BOLB   PO125538  19.804  24.537  14.999  0.0082  0.1444  0.1052
 1065BOLB   GL125539  19.868  25.049  14.878 -0.0636  0.2129 -0.1368
 1065BOLB   GL225540  19.562  24.972  14.827  0.1559 -0.0504 -0.2470
 1065BOLB   C1A25541  19.715  25.500  14.745  0.1474 -0.1300  0.0040
 1065BOLB   C2A25542  19.634  25.942  14.542  0.1136  0.0322 -0.2041
 1065BOLB   C3A25543  19.688  26.359  14.643 -0.5344 -0.0369  0.4126
 1065BOLB   C4A25544  19.969  26.610  14.438  0.0239 -0.0527 -0.1947
 1065BOLB   C1B25545  19.424  25.239  14.509 -0.1752  0.0922  0.4410
 1065BOLB   C2B25546  19.287  25.558  14.291  0.0011 -0.0499  0.1351
 1065BOLB   C3B25547  19.362  25.997  14.129  0.2499  0.1917  0.2097
 1065BOLB   C4B25548  19.726  26.238  14.121  0.0949 -0.1261  0.0507
 1065BOLB   NC225549  19.938  28.824  13.549  0.0325 -0.0561  0.1148
 1065BOLB   PO225550  19.968  28.832  13.992  0.0443  0.1012  0.2047
 1065BOLB   GL325551  19.674  28.473  13.986 -0.2821  0.5483  0.1301
 1065BOLB   GL425552  19.536  28.654  14.245 -0.1278 -0.3919 -0.0845
 1065BOLB   C1C25553  19.734  27.962  14.070 -0.0126  0.1284 -0.2797
 1065BOLB   C2C25554  19.844  27.581  13.826 -0.1155 -0.2002  0.0110
 1065BOLB   C3C25555  19.905  27.154  13.807  0.2087  0.2463 -0.0431
 1065BOLB   C4C25556  19.852  26.700  13.965 -0.0637  0.2106  0.0149
 1065BOLB   C1D25557  19.202  28.414  14.307 -0.1199  0.1053 -0.0224
 1065BOLB   C2D25558  18.801  28.198  14.449  0.0116  0.0955 -0.3087
 1065BOLB   C3D25559  18.650  27.833  14.559 -0.1668 -0.0904  0.3385
 1065BOLB   C4D25560  18.230  27.512  14.614 -0.0261  0.2925 -0.1512
 1066BOLB   NC125561  17.821  25.090  16.282 -0.4084  0.0483 -0.3112
 1066BOLB   PO125562  17.731  25.172  16.796  0.3387  0.1630  0.1415
 1066BOLB   GL125563  17.831  25.589  16.684  0.1183 -0.0643  0.0150
 1066BOLB   GL225564  17.794  25.711  16.378  0.0312  0.3419  0.1341
 1066BOLB   C1A25565  17.794  26.111  16.685 -0.0193 -0.1194  0.1690
 1066BOLB   C2A25566  17.730  26.411  16.432 -0.0465 -0.3327  0.3497
 1066BOLB   C3A25567  17.762  26.686  16.071 -0.1504 -0.1164  0.1161
 1066BOLB   C4A25568  17.796  27.009  15.818 -0.1070 -0.4943 -0.1410
 1066BOLB   C1B25569  17.802  26.011  16.115 -0.5303 -0.0744  0.2335
 1066BOLB   C2B25570  17.867  26.341  15.758  0.0420  0.1344  0.1149
 1066BOLB   C3B25571  17.751  26.611  15.534 -0.0894  0.0786  0.0164
 1066BOLB   C4B25572  17.648  27.037  15.331 -0.3388 -0.4919 -0.0231
 1066BOLB   NC225573  18.171  29.170  15.702 -0.1928 -0.1703  0.2891
 1066BOLB   PO225574  17.761  29.214  15.492  0.2373  0.1023  0.2459
 1066BOLB   GL325575  17.412  29.053  15.573 -0.0108  0.2936  0.2245
 1066BOLB   GL425576  17.333  29.196  15.866  0.6891 -0.3550 -0.1328
 1066BOLB   C1C25577  17.131  28.662  15.598  0.0417 -0.3290 -0.1586
 1066BOLB   C2C25578  17.097  28.205  15.654  0.0310  0.4124  0.0323
 1066BOLB   C3C25579  17.405  27.841  15.623  0.3517  0.0256  0.1759
 1066BOLB   C4C25580  17.592  27.416  15.635 -0.1349 -0.0215  0.1817
 1066BOLB   C1D25581  16.950  28.972  15.948 -0.0145  0.0887 -0.1493
 1066BOLB   C2D25582  16.548  29.161  16.006  0.0864 -0.0462  0.3149
 1066BOLB   C3D25583  16.085  29.069  15.819 -0.0693  0.1366 -0.1762
 1066BOLB   C4D25584  16.031  28.576  15.656  0.4242 -0.0449  0.3634
 1067BOLB   NC125585  21.499  24.691  17.217 -0.0914 -0.0124  0.2132
 1067BOLB   PO125586  21.212  25.074  17.277  0.1005  0.1016 -0.2941
 1067BOLB   GL125587  21.015  25.386  17.386  0.2059  0.0076  0.1434
 1067BOLB   GL225588  20.951  25.685  17.236  0.2599 -0.1427  0.0429
 1067BOLB   C1A25589  21.175  25.674  17.668 -0.1054 -0.1983  0.0245
 1067BOLB   C2A25590  21.025  26.122  17.662  0.0428 -0.0649  0.1179
 1067BOLB   C3A25591  20.969  26.498  17.345 -0.1893  0.0874 -0.0384
 1067BOLB   C4A25592  20.996  26.837  17.153  0.0769 -0.1050  0.2952
 1067BOLB   C1B25593  20.712  26.112  17.174 -0.2435  0.1332  0.0945
 1067BOLB   C2B25594  20.524  26.518  17.127 -0.1222  0.0252 -0.0973
 1067BOLB   C3B25595  20.507  26.775  17.503 -0.5288 -0.0150 -0.1596
 1067BOLB   C4B25596  20.207  26.711  17.849 -0.0814  0.3632 -0.4071
 1067BOLB   NC225597  21.864  29.314  17.084  0.3042  0.1715 -0.0127
 1067BOLB   PO225598  21.497  28.980  17.119  0.2141 -0.3088 -0.1129
 1067BOLB   GL325599  21.064  28.705  17.263  0.1597  0.0814  0.2321
 1067BOLB   GL425600  21.054  28.629  17.594  0.1124  0.1455  0.1878
 1067BOLB   C1C25601  20.898  28.296  17.206  0.1311 -0.3716  0.1748
 1067BOLB   C2C25602  20.763  27.887  17.208 -0.1707  0.1298 -0.1329
 1067BOLB   C3C25603  20.876  27.614  17.286  0.1113 -0.3501 -0.3325
 1067BOLB   C4C25604  21.009  27.256  17.115  0.1208 -0.0795  0.2421
 1067BOLB   C1D25605  20.930  28.252  17.749  0.0948  0.0764 -0.3921
 1067BOLB   C2D25606  20.960  27.806  17.770  0.3317  0.1239  0.4662
 1067BOLB   C3D25607  20.853  27.374  17.978 -0.3119  0.1410 -0.2271
 1067BOLB   C4D25608  20.684  26.968  17.949  0.1683  0.0316 -0.1123
 1068BOLB   NC125609  15.479  25.896  17.112 -0.0974 -0.1502  0.3118
 1068BOLB   PO125610  15.318  26.171  17.365  0.0989 -0.0960 -0.1179
 1068BOLB   GL125611  15.653  26.418  17.135 -0.1610 -0.2342  0.5234
 1068BOLB   GL225612  15.549  26.366  16.865 -0.2158  0.3433 -0.1747
 1068BOLB   C1A25613  15.980  26.757  17.046  0.0510 -0.0682  0.4044
 1068BOLB   C2A25614  15.987  27.158  16.973  0.2964  0.0369  0.4377
 1068BOLB   C3A25615  15.858  27.462  16.881  0.1543 -0.0237  0.2157
 1068BOLB   C4A25616  15.742  27.835  16.786  0.0401  0.0541 -0.1331
 1068BOLB   C1B25617  15.574  26.849  16.816  0.1575 -0.3589  0.3151
 1068BOLB   C2B25618  15.392  27.265  16.752  0.0893  0.1268  0.0940
 1068BOLB   C3B25619  15.436  27.626  16.463 -0.2033 -0.0991  0.0667
 1068BOLB   C4B25620  15.571  27.758  16.046  0.0060  0.2624 -0.3135
 1068BOLB   NC225621  15.399  30.416  16.563 -0.2965 -0.1026  0.1968
 1068BOLB   PO225622  15.629  30.130  16.193  0.1115 -0.3025  0.4486
 1068BOLB   GL325623  15.746  29.812  16.237 -0.1440  0.4803  0.0975
 1068BOLB   GL425624  15.440  29.623  16.230  0.1951  0.1055  0.0566
 1068BOLB   C1C25625  16.035  29.458  16.260  0.0192  0.0078 -0.2500
 1068BOLB   C2C25626  15.876  29.046  16.568 -0.2123  0.0552  0.2405
 1068BOLB   C3C25627  15.732  28.601  16.532  0.1513  0.1727  0.1039
 1068BOLB   C4C25628  15.597  28.211  16.567 -0.0177  0.1960  0.0046
 1068BOLB   C1D25629  15.152  29.275  16.156  0.1050  0.2460 -0.1754
 1068BOLB   C2D25630  14.799  28.993  16.076  0.0318  0.2902 -0.1258
 1068BOLB   C3D25631  14.856  28.612  16.199 -0.3138  0.1152 -0.2923
 1068BOLB   C4D25632  14.765  28.233  16.105  0.2086  0.3938  0.0648
 1069BOLB   NC125633  10.928  26.894  15.739  0.0587  0.1915  0.0912
 1069BOLB   PO125634  10.929  26.863  15.258 -0.1102  0.0521 -0.0147
 1069BOLB   GL125635  10.943  27.084  14.938  0.1824  0.1367 -0.0675
 1069BOLB   GL225636  11.027  27.426  15.114 -0.0215 -0.2606 -0.3678
 1069BOLB   C1A25637  11.046  27.250  14.544  0.2860 -0.4639  0.2051
 1069BOLB   C2A25638  11.149  27.500  14.196  0.2768 -0.0437  0.4490
 1069BOLB   C3A25639  11.433  27.719  13.952 -0.0991 -0.1713 -0.3955
 1069BOLB   C4A25640  11.785  27.808  13.886 -0.1913  0.1103 -0.1053
 1069BOLB   C1B25641  11.313  27.345  15.352 -0.0592  0.1255 -0.2373
 1069BOLB   C2B25642  11.770  27.316  15.280 -0.1572 -0.0209  0.4050
 1069BOLB   C3B25643  11.957  27.576  14.914 -0.1162  0.1782  0.0925
 1069BOLB   C4B25644  12.256  27.866  14.824 -0.0982 -0.2632  0.1903
 1069BOLB   NC225645  12.135  29.830  12.760  0.3691 -0.2521  0.2395
 1069BOLB   PO225646  12.233  29.640  13.083 -0.1320 -0.0916  0.0152
 1069BOLB   GL325647  12.462  29.305  12.939 -0.1008  0.2903  0.0813
 1069BOLB   GL425648  12.729  29.107  12.861 -0.0084 -0.0886 -0.1168
 1069BOLB   C1C25649  12.405  28.861  13.117  0.1218 -0.0827  0.1609
 1069BOLB   C2C25650  12.433  28.586  13.491  0.1645 -0.4952  0.0051
 1069BOLB   C3C25651  12.319  28.146  13.403  0.1383 -0.0864  0.0828
 1069BOLB   C4C25652  12.156  27.796  13.702  0.0650  0.2041 -0.2948
 1069BOLB   C1D25653  12.884  28.710  12.934 -0.0643  0.0421 -0.0246
 1069BOLB   C2D25654  12.636  28.429  13.099 -0.0880  0.0239 -0.1005
 1069BOLB   C3D25655  12.178  28.433  12.935 -0.4762 -0.1790  0.2102
 1069BOLB   C4D25656  11.853  28.686  12.854 -0.1260  0.0254 -0.0295
 1070BOLB   NC125657  17.341  24.300  14.170 -0.2303  0.0054 -0.3105
 1070BOLB   PO125658  17.192  24.604  14.503  0.0860 -0.1430 -0.0693
 1070BOLB   GL125659  17.032  24.955  14.275  0.0757 -0.0238  0.3019
 1070BOLB   GL225660  17.049  24.939  13.986  0.2393  0.1621  0.0504
 1070BOLB   C1A25661  16.930  25.309  14.286  0.2511  0.2329 -0.1473
 1070BOLB   C2A25662  17.154  25.719  14.098 -0.1985  0.2639 -0.2914
 1070BOLB   C3A25663  17.353  26.221  14.233 -0.2393  0.1166 -0.1268
 1070BOLB   C4A25664  17.080  26.580  14.095  0.0372 -0.1338  0.0722
 1070BOLB   C1B25665  17.165  25.326  13.816  0.0773 -0.3206  0.0340
 1070BOLB   C2B25666  17.243  25.762  13.501 -0.3004  0.1160 -0.2237
 1070BOLB   C3B25667  17.307  26.165  13.293  0.0046 -0.0613  0.4798
 1070BOLB   C4B25668  17.412  26.634  13.211 -0.0989  0.0378 -0.0073
 1070BOLB   NC225669  17.735  28.810  14.017 -0.0810 -0.1420 -0.1249
 1070BOLB   PO225670  17.359  28.925  14.067 -0.0910 -0.3840  0.1156
 1070BOLB   GL325671  17.323  28.513  13.902 -0.3226  0.2672  0.3118
 1070BOLB   GL425672  17.062  28.400  13.849 -0.3224  0.0564 -0.4844
 1070BOLB   C1C25673  17.654  28.196  13.888  0.1747  0.0038 -0.0608
 1070BOLB   C2C25674  17.429  27.747  13.977  0.1061  0.0163 -0.0237
 1070BOLB   C3C25675  17.399  27.281  13.957  0.3322  0.0057 -0.1549
 1070BOLB   C4C25676  17.081  27.010  13.916 -0.4022  0.0632  0.1050
 1070BOLB   C1D25677  17.152  28.103  14.275  0.2345  0.3145  0.0360
 1070BOLB   C2D25678  17.528  27.914  14.488 -0.1802 -0.0120  0.0164
 1070BOLB   C3D25679  17.758  27.704  14.778  0.0991 -0.1345 -0.0162
 1070BOLB   C4D25680  18.030  27.378  15.075 -0.3285 -0.0229 -0.0442
 1071BOLB   NC125681  21.742  24.920  15.340  0.1384 -0.0756  0.0331
 1071BOLB   PO125682  21.740  25.178  15.680 -0.1365  0.1978 -0.1106
 1071BOLB   GL125683  21.695  25.592  15.651 -0.1830 -0.1501  0.1448
 1071BOLB   GL225684  21.894  25.609  15.330  0.0371 -0.2843  0.1390
 1071BOLB   C1A25685  21.614  26.016  15.606  0.1660  0.1868 -0.0882
 1071BOLB   C2A25686  21.335  26.173  15.372  0.1093 -0.2181 -0.0040
 1071BOLB   C3A25687  20.927  26.417  15.323 -0.2407 -0.1561 -0.2157
 1071BOLB   C4A25688  20.672  26.747  15.271  0.1101 -0.1587 -0.1552
 1071BOLB   C1B25689  21.628  25.790  15.118  0.0890 -0.0241  0.2572
 1071BOLB   C2B25690  21.512  25.966  14.777 -0.0892 -0.1022  0.0226
 1071BOLB   C3B25691  21.507  26.384  14.661  0.0872  0.0968  0.3204
 1071BOLB   C4B25692  21.676  26.735  14.591 -0.1725 -0.0405 -0.1146
 1071BOLB   NC225693  20.313  28.508  15.291 -0.0471  0.0895 -0.1421
 1071BOLB   PO225694  20.171  28.765  15.640 -0.1262 -0.1688 -0.2766
 1071BOLB   GL325695  19.907  28.470  15.623 -0.0121  0.0500 -0.1773
 1071BOLB   GL425696  19.652  28.585  15.735  0.0653 -0.2192  0.1583
 1071BOLB   C1C25697  19.850  28.009  15.467 -0.3235  0.3127 -0.0003
 1071BOLB   C2C25698  20.020  27.572  15.377  0.1824 -0.0994 -0.3969
 1071BOLB   C3C25699  20.143  27.310  15.536  0.1643 -0.0086  0.2922
 1071BOLB   C4C25700  20.410  27.057  15.483  0.2035  0.0477  0.1779
 1071BOLB   C1D25701  19.285  28.432  15.907  0.2937 -0.0899  0.1726
 1071BOLB   C2D25702  19.025  28.566  16.329 -0.0808  0.0505  0.0654
 1071BOLB   C3D25703  18.754  28.205  16.484  0.0090  0.1594  0.3459
 1071BOLB   C4D25704  18.718  27.939  16.759 -0.0636  0.0635  0.2435
 1072BOLB   NC125705  12.528  26.495  16.699  0.0046  0.2097 -0.1262
 1072BOLB   PO125706  12.313  26.298  16.325  0.1521  0.2159 -0.0292
 1072BOLB   GL125707  12.476  26.569  16.012  0.2436 -0.0657 -0.0153
 1072BOLB   GL225708  12.452  26.813  16.243  0.1368  0.1583 -0.0158
 1072BOLB   C1A25709  12.547  26.849  15.620 -0.0307 -0.2555 -0.4663
 1072BOLB   C2A25710  12.723  27.049  15.288  0.0355 -0.3406 -0.0377
 1072BOLB   C3A25711  13.133  27.188  15.017 -0.1916 -0.0944 -0.0118
 1072BOLB   C4A25712  13.382  27.048  14.730  0.1303  0.1304  0.3576
 1072BOLB   C1B25713  12.926  26.852  16.215 -0.1433  0.0671 -0.0434
 1072BOLB   C2B25714  13.358  26.969  15.999 -0.2192  0.2267  0.0026
 1072BOLB   C3B25715  13.701  27.261  15.801  0.2816  0.1721  0.0732
 1072BOLB   C4B25716  13.913  27.652  16.100  0.0161 -0.1343 -0.1226
 1072BOLB   NC225717  14.164  29.149  13.740  0.1183 -0.2961 -0.4040
 1072BOLB   PO225718  14.341  29.099  13.285  0.3368  0.4090 -0.0654
 1072BOLB   GL325719  14.224  28.741  13.432 -0.2786  0.2072  0.1459
 1072BOLB   GL425720  14.080  28.625  13.303  0.1816  0.0135  0.2167
 1072BOLB   C1C25721  14.263  28.363  13.636 -0.2403  0.0071 -0.1391
 1072BOLB   C2C25722  14.277  28.031  13.957  0.2402 -0.3195  0.2790
 1072BOLB   C3C25723  14.155  27.657  14.298 -0.0341 -0.0423 -0.1154
 1072BOLB   C4C25724  13.793  27.273  14.353  0.2146 -0.1259 -0.1978
 1072BOLB   C1D25725  13.709  28.479  13.444  0.1712 -0.0882 -0.0823
 1072BOLB   C2D25726  13.468  28.126  13.445 -0.0397 -0.2378  0.0539
 1072BOLB   C3D25727  13.270  27.717  13.573 -0.1303 -0.2410 -0.1020
 1072BOLB   C4D25728  12.885  27.588  13.669 -0.1203  0.2855 -0.0667
 1073BOLB   NC125729  15.291  24.973  14.564 -0.2188  0.0092  0.1403
 1073BOLB   PO125730  15.707  24.900  14.395  0.1430 -0.2587  0.3914
 1073BOLB   GL125731  15.786  25.241  14.244  0.0028  0.1850  0.0321
 1073BOLB   GL225732  15.450  25.288  14.179 -0.0264  0.1830  0.0613
 1073BOLB   C1A25733  16.084  25.344  13.907 -0.2230 -0.5255 -0.3371
 1073BOLB   C2A25734  16.292  25.627  13.565 -0.1262  0.0760 -0.0752
 1073BOLB   C3A25735  16.258  25.958  13.431  0.0820  0.3293  0.0861
 1073BOLB   C4A25736  16.331  26.375  13.211  0.0285 -0.0546 -0.1101
 1073BOLB   C1B25737  15.675  25.279  13.744 -0.0927 -0.2095  0.3369
 1073BOLB   C2B25738  15.853  25.389  13.410 -0.3629 -0.0080 -0.0695
 1073BOLB   C3B25739  16.101  25.628  13.113 -0.1081  0.2917 -0.1031
 1073BOLB   C4B25740  16.248  25.999  12.894 -0.3981  0.2471  0.3476
 1073BOLB   NC225741  17.132  27.832  12.014 -0.0459  0.1459 -0.1020
 1073BOLB   PO225742  17.305  27.558  11.719 -0.4953 -0.1186 -0.0661
 1073BOLB   GL325743  17.006  27.282  11.992  0.2685  0.0701  0.2693
 1073BOLB   GL425744  17.084  27.052  11.728 -0.0255  0.1554 -0.0053
 1073BOLB   C1C25745  16.492  27.189  12.058  0.0114 -0.1483  0.2013
 1073BOLB   C2C25746  16.479  26.767  12.234  0.0474  0.0784 -0.0187
 1073BOLB   C3C25747  16.434  26.570  12.617  0.1566 -0.0533 -0.2658
 1073BOLB   C4C25748  16.374  26.509  12.928 -0.2342  0.2291  0.0448
 1073BOLB   C1D25749  16.834  26.774  11.855 -0.0334  0.0866  0.1637
 1073BOLB   C2D25750  16.836  26.424  12.057  0.0472  0.1452  0.1591
 1073BOLB   C3D25751  16.931  26.272  12.450  0.0155  0.1250 -0.3549
 1073BOLB   C4D25752  16.778  26.225  12.807 -0.3184 -0.1173 -0.0799
 1074BOLB   NC125753  20.548  23.708  13.657 -0.0896  0.1796  0.0682
 1074BOLB   PO125754  20.271  23.823  13.985 -0.0104 -0.1467  0.0459
 1074BOLB   GL125755  20.284  24.143  13.803 -0.1308  0.2228 -0.2571
 1074BOLB   GL225756  20.399  24.349  13.928  0.0067  0.1343  0.0399
 1074BOLB   C1A25757  20.483  24.367  13.451 -0.0853 -0.0119  0.0705
 1074BOLB   C2A25758  20.581  24.653  13.442  0.2429 -0.4071  0.1877
 1074BOLB   C3A25759  20.832  24.929  13.137  0.1842  0.4647  0.1241
 1074BOLB   C4A25760  20.811  25.324  13.161  0.3381 -0.2747  0.1074
 1074BOLB   C1B25761  20.312  24.746  14.102 -0.2288 -0.3231  0.0622
 1074BOLB   C2B25762  20.223  25.196  14.023 -0.1389 -0.2698 -0.2600
 1074BOLB   C3B25763  20.059  25.361  13.637  0.1344  0.0009  0.0132
 1074BOLB   C4B25764  20.361  25.565  13.360 -0.1744 -0.3871  0.0742
 1074BOLB   NC225765  20.720  27.502  11.457  0.2192  0.0062  0.1831
 1074BOLB   PO225766  20.892  27.490  11.878 -0.1939  0.1893  0.1904
 1074BOLB   GL325767  20.884  26.962  12.048 -0.3187 -0.2292  0.0732
 1074BOLB   GL425768  20.610  26.682  11.866  0.0523  0.1481  0.4026
 1074BOLB   C1C25769  20.849  26.656  12.328  0.0700  0.1704  0.4162
 1074BOLB   C2C25770  20.716  26.271  12.597 -0.2623 -0.2017 -0.2201
 1074BOLB   C3C25771  20.823  25.989  12.789 -0.2411  0.1816 -0.0463
 1074BOLB   C4C25772  20.772  25.718  13.037  0.0930  0.2721  0.1284
 1074BOLB   C1D25773  20.505  26.314  12.132 -0.0788  0.1111  0.3438
 1074BOLB   C2D25774  20.272  26.277  12.472  0.2607 -0.0130 -0.1387
 1074BOLB   C3D25775  20.007  26.200  12.782 -0.2912 -0.4487 -0.1875
 1074BOLB   C4D25776  19.945  25.984  13.166  0.2407 -0.0368  0.0489
 1075BOLB   NC125777  17.584  23.950  14.664  0.3411 -0.1442  0.2173
 1075BOLB   PO125778  17.654  24.387  14.564 -0.0031 -0.0851  0.0270
 1075BOLB   GL125779  17.844  24.691  14.298  0.1507  0.0030  0.0329
 1075BOLB   GL225780  17.502  24.815  14.037 -0.0630 -0.2172 -0.2913
 1075BOLB   C1A25781  17.940  25.056  13.960  0.0020 -0.0761  0.1256
 1075BOLB   C2A25782  18.082  25.397  13.798  0.2448 -0.0547 -0.3163
 1075BOLB   C3A25783  18.135  25.621  13.517 -0.1393 -0.0505  0.0198
 1075BOLB   C4A25784  18.168  25.988  13.169  0.2847  0.1710 -0.2951
 1075BOLB   C1B25785  17.599  24.870  13.639  0.3136  0.1486  0.3278
 1075BOLB   C2B25786  17.865  25.174  13.420  0.1596  0.1852 -0.1464
 1075BOLB   C3B25787  17.581  25.619  13.102 -0.3830 -0.1042  0.0111
 1075BOLB   C4B25788  17.142  25.621  13.061  0.0835  0.3043 -0.0959
 1075BOLB   NC225789  18.127  27.728  11.129  0.2359  0.0592  0.1865
 1075BOLB   PO225790  18.317  27.513  11.397  0.2348 -0.0743 -0.0613
 1075BOLB   GL325791  18.520  27.199  11.776 -0.2340 -0.1021  0.2131
 1075BOLB   GL425792  18.663  26.994  11.660  0.1526 -0.2324  0.1908
 1075BOLB   C1C25793  18.398  27.033  12.097 -0.1610  0.0573  0.0372
 1075BOLB   C2C25794  18.303  26.802  12.397  0.0437  0.0141  0.3892
 1075BOLB   C3C25795  18.276  26.606  12.698  0.2018  0.1761 -0.2102
 1075BOLB   C4C25796  18.323  26.257  12.894  0.1796  0.1798 -0.0738
 1075BOLB   C1D25797  18.305  26.708  11.730  0.0051 -0.0760  0.2593
 1075BOLB   C2D25798  17.985  26.445  11.565 -0.1009  0.0955 -0.4893
 1075BOLB   C3D25799  17.701  26.279  11.856 -0.1269  0.4786 -0.1563
 1075BOLB   C4D25800  17.541  25.914  11.990  0.0543  0.1507 -0.3167
 1076BOLB   NC125801  16.754  24.685  16.344  0.1435 -0.3690 -0.0274
 1076BOLB   PO125802  16.686  25.028  16.036 -0.1070 -0.1249 -0.3629
 1076BOLB   GL125803  16.916  25.461  15.995 -0.6249  0.1202  0.0612
 1076BOLB   GL225804  16.856  25.703  16.116 -0.1316  0.0624  0.3260
 1076BOLB   C1A25805  16.942  25.742  15.648  0.0613 -0.2497  0.5748
 1076BOLB   C2A25806  16.861  26.153  15.356  0.1140  0.1167  0.0641
 1076BOLB   C3A25807  16.765  26.568  15.257 -0.0152  0.0076  0.2190
 1076BOLB   C4A25808  16.619  26.860  14.996  0.1132  0.1359  0.1305
 1076BOLB   C1B25809  16.752  26.094  15.925 -0.2334  0.2931 -0.2003
 1076BOLB   C2B25810  16.827  26.514  15.737 -0.1505  0.1538  0.1169
 1076BOLB   C3B25811  16.882  26.908  15.971 -0.1794 -0.1843  0.2211
 1076BOLB   C4B25812  16.757  27.200  15.961 -0.0685 -0.0830 -0.0801
 1076BOLB   NC225813  16.759  29.487  14.490  0.0879 -0.1291 -0.0091
 1076BOLB   PO225814  17.153  29.198  14.654 -0.1129  0.0094 -0.1813
 1076BOLB   GL325815  17.271  28.745  14.795 -0.6458 -0.0914 -0.0295
 1076BOLB   GL425816  17.123  28.744  15.078  0.2264  0.0607 -0.0879
 1076BOLB   C1C25817  16.944  28.506  14.691 -0.0971 -0.0728  0.1375
 1076BOLB   C2C25818  16.725  28.099  14.844 -0.0198  0.4263  0.2509
 1076BOLB   C3C25819  16.583  27.627  14.902  0.0016 -0.1638  0.1671
 1076BOLB   C4C25820  16.758  27.208  14.819  0.2690 -0.1662 -0.1266
 1076BOLB   C1D25821  16.917  28.321  15.243 -0.1128  0.2466  0.0260
 1076BOLB   C2D25822  16.698  27.930  15.364 -0.0376 -0.1361 -0.3205
 1076BOLB   C3D25823  16.638  27.529  15.344 -0.0685  0.0340  0.4166
 1076BOLB   C4D25824  16.937  27.523  15.653 -0.1331  0.0727  0.1682
 1077BOLB   NC125825  12.408  25.156  13.494 -0.0081 -0.0831  0.4371
 1077BOLB   PO125826  12.764  25.167  13.682 -0.0490 -0.3354 -0.2690
 1077BOLB   GL125827  12.904  25.323  13.434 -0.0560 -0.0974  0.2467
 1077BOLB   GL225828  12.625  25.597  13.421  0.1280  0.2239 -0.0234
 1077BOLB   C1A25829  13.341  25.492  13.311 -0.3770  0.0394 -0.1840
 1077BOLB   C2A25830  13.440  25.816  13.118 -0.0532 -0.2325  0.1514
 1077BOLB   C3A25831  13.793  25.944  12.854 -0.1341 -0.0380 -0.1602
 1077BOLB   C4A25832  14.050  25.998  12.415 -0.1018  0.2133  0.1337
 1077BOLB   C1B25833  12.926  25.814  13.134 -0.2374 -0.0182  0.1231
 1077BOLB   C2B25834  13.138  26.149  12.812 -0.1927  0.1656 -0.1331
 1077BOLB   C3B25835  13.319  26.340  12.542  0.0139 -0.2069 -0.2131
 1077BOLB   C4B25836  13.460  26.731  12.271  0.0961  0.1386 -0.1436
 1077BOLB   NC225837  15.056  27.599  10.797 -0.2155 -0.4422  0.2042
 1077BOLB   PO225838  14.571  27.474  10.695  0.0381 -0.3078  0.1107
 1077BOLB   GL325839  14.364  27.279  11.064 -0.1006 -0.0862 -0.0134
 1077BOLB   GL425840  14.138  27.395  11.367 -0.1423 -0.2985  0.1680
 1077BOLB   C1C25841  14.399  26.898  11.203 -0.0461 -0.0644  0.2465
 1077BOLB   C2C25842  14.370  26.495  11.398  0.0744 -0.0679  0.0890
 1077BOLB   C3C25843  14.031  26.240  11.591  0.1011 -0.1149  0.1815
 1077BOLB   C4C25844  14.100  26.060  11.931  0.0840 -0.0104  0.0565
 1077BOLB   C1D25845  14.163  27.016  11.657 -0.0048  0.1273 -0.0610
 1077BOLB   C2D25846  14.171  26.738  12.037  0.1113 -0.0380 -0.0213
 1077BOLB   C3D25847  14.321  26.464  12.311  0.2930  0.1089  0.2391
 1077BOLB   C4D25848  14.439  26.263  12.533  0.0487 -0.0719  0.0259
 1078BOLB   NC125849  20.717  24.007  14.946  0.1922 -0.3758  0.2323
 1078BOLB   PO125850  20.803  24.412  14.806  0.0768 -0.0406 -0.1761
 1078BOLB   GL125851  20.685  24.834  14.682  0.2034 -0.2167  0.0628
 1078BOLB   GL225852  20.790  25.033  14.503  0.0873  0.0694  0.4295
 1078BOLB   C1A25853  20.303  25.047  14.594  0.1660  0.0613 -0.2962
 1078BOLB   C2A25854  20.251  25.478  14.454 -0.0125 -0.0710 -0.1856
 1078BOLB   C3A25855  20.117  26.026  14.374 -0.1844  0.0689 -0.4127
 1078BOLB   C4A25856  20.296  26.380  14.056  0.0000 -0.2306 -0.0570
 1078BOLB   C1B25857  20.738  25.412  14.249 -0.2066  0.0863  0.0316
 1078BOLB   C2B25858  20.530  25.793  14.201  0.0929  0.1751  0.1602
 1078BOLB   C3B25859  20.744  26.166  14.078 -0.0326 -0.1854  0.0286
 1078BOLB   C4B25860  20.840  26.473  13.775 -0.1993 -0.1887  0.1496
 1078BOLB   NC225861  19.696  27.555  11.646 -0.2157  0.2025  0.2673
 1078BOLB   PO225862  19.984  27.721  11.979 -0.4295  0.0224  0.0087
 1078BOLB   GL325863  19.919  27.351  12.180  0.4231  0.0941 -0.1501
 1078BOLB   GL425864  20.092  27.253  11.944  0.1386  0.0580 -0.2261
 1078BOLB   C1C25865  20.179  27.227  12.614  0.2803 -0.0997  0.1874
 1078BOLB   C2C25866  20.363  27.170  13.068  0.0682 -0.0335 -0.3645
 1078BOLB   C3C25867  20.271  26.849  13.481  0.0537  0.0411  0.1940
 1078BOLB   C4C25868  20.461  26.779  13.909 -0.2401  0.0743  0.1817
 1078BOLB   C1D25869  20.349  27.071  12.143 -0.1269  0.1377  0.0177
 1078BOLB   C2D25870  20.292  26.765  12.363  0.0756 -0.1434  0.2134
 1078BOLB   C3D25871  19.977  26.736  12.577 -0.0468  0.0628 -0.0467
 1078BOLB   C4D25872  19.847  26.926  12.876  0.0505  0.3102 -0.0702
 1079BOLB   NC125873  14.664  24.705  14.839 -0.0704  0.0865  0.0716
 1079BOLB   PO125874  14.420  24.848  14.498  0.0504 -0.1153  0.1994
 1079BOLB   GL125875  14.274  25.244  14.256 -0.1096 -0.0718 -0.0175
 1079BOLB   GL225876  14.254  25.209  13.938  0.0001 -0.1927  0.5188
 1079BOLB   C1A25877  13.864  25.534  14.118  0.2081  0.1224 -0.0849
 1079BOLB   C2A25878  13.691  25.937  14.178  0.1818  0.0073  0.0675
 1079BOLB   C3A25879  13.568  26.248  13.889  0.1724  0.0038  0.0673
 1079BOLB   C4A25880  13.375  26.728  13.724 -0.2509  0.1212  0.0243
 1079BOLB   C1B25881  14.064  25.540  13.651  0.1953  0.1416 -0.0629
 1079BOLB   C2B25882  14.078  25.745  13.236  0.1481  0.1409  0.1690
 1079BOLB   C3B25883  14.288  25.944  12.893  0.0479  0.4253 -0.1827
 1079BOLB   C4B25884  14.511  26.337  12.996 -0.4518  0.0150 -0.0978
 1079BOLB   NC225885  14.537  28.203  11.464  0.0869  0.1416 -0.2092
 1079BOLB   PO225886  14.420  28.155  11.970 -0.0355  0.3517  0.3912
 1079BOLB   GL325887  14.160  27.953  12.152  0.2341  0.3607  0.2243
 1079BOLB   GL425888  14.295  27.708  12.321 -0.0491  0.0689 -0.1108
 1079BOLB   C1C25889  13.864  27.904  12.533 -0.1674 -0.1352  0.2835
 1079BOLB   C2C25890  13.783  27.570  12.733  0.2336  0.0073 -0.1604
 1079BOLB   C3C25891  13.433  27.309  12.960  0.2962  0.0635  0.0495
 1079BOLB   C4C25892  13.286  27.044  13.347  0.0074  0.1565  0.1104
 1079BOLB   C1D25893  14.252  27.425  12.502 -0.2631 -0.3370 -0.1096
 1079BOLB   C2D25894  14.430  26.976  12.432 -0.1948  0.1072  0.0759
 1079BOLB   C3D25895  14.786  26.656  12.426 -0.1300 -0.1022 -0.2110
 1079BOLB   C4D25896  15.201  26.716  12.321  0.2680  0.3943 -0.2178
 1080BOLB   NC125897  17.192  24.822  17.208 -0.0595 -0.0762  0.2867
 1080BOLB   PO125898  17.487  25.214  17.381 -0.1288 -0.4067 -0.1079
 1080BOLB   GL125899  17.676  25.628  17.160 -0.1019 -0.1181 -0.0250
 1080BOLB   GL225900  17.409  25.857  17.287 -0.2877 -0.0743  0.1475
 1080BOLB   C1A25901  18.038  25.952  17.113 -0.3471  0.2519  0.4609
 1080BOLB   C2A25902  17.960  26.481  17.003  0.0982  0.1094  0.0004
 1080BOLB   C3A25903  17.644  26.810  16.680  0.0121 -0.5211 -0.1622
 1080BOLB   C4A25904  17.687  27.104  16.288  0.0314  0.1853  0.2459
 1080BOLB   C1B25905  17.500  26.282  17.385  0.0234 -0.1539 -0.4664
 1080BOLB   C2B25906  17.658  26.777  17.388  0.1502  0.0655 -0.6308
 1080BOLB   C3B25907  17.613  27.249  17.450  0.1935 -0.0112 -0.0996
 1080BOLB   C4B25908  17.243  27.417  17.294 -0.0359 -0.1153 -0.0099
 1080BOLB   NC225909  17.147  30.066  16.012 -0.0170 -0.1159 -0.2761
 1080BOLB   PO225910  17.184  29.593  16.215 -0.1601  0.1350  0.0886
 1080BOLB   GL325911  17.327  29.245  16.473  0.2310  0.1363 -0.3434
 1080BOLB   GL425912  17.665  29.248  16.617 -0.0729 -0.0405  0.1254
 1080BOLB   C1C25913  17.351  28.786  16.446 -0.1535 -0.1911 -0.1959
 1080BOLB   C2C25914  17.683  28.459  16.495  0.2498  0.1522  0.0168
 1080BOLB   C3C25915  17.691  27.983  16.596 -0.0956 -0.1473  0.1419
 1080BOLB   C4C25916  17.618  27.624  16.232 -0.3641 -0.3140 -0.4157
 1080BOLB   C1D25917  17.556  28.916  16.929  0.3570  0.1204  0.1007
 1080BOLB   C2D25918  17.328  28.569  16.904 -0.0308 -0.0031  0.1590
 1080BOLB   C3D25919  17.249  28.233  16.895  0.0516  0.3113  0.0371
 1080BOLB   C4D25920  17.211  28.038  17.185  0.2464  0.0065  0.0355
 1081BOLB   NC125921  22.694  26.736  16.671 -0.1682 -0.0824  0.0442
 1081BOLB   PO125922  22.450  27.105  16.489  0.2058  0.0808 -0.0383
 1081BOLB   GL125923  22.243  26.756  16.487 -0.2004  0.0892 -0.2124
 1081BOLB   GL225924  22.449  26.469  16.288 -0.1374  0.2851  0.1841
 1081BOLB   C1A25925  21.844  26.562  16.435  0.2520  0.3988  0.2083
 1081BOLB   C2A25926  21.592  26.611  16.074  0.0442  0.1246 -0.0322
 1081BOLB   C3A25927  21.389  26.953  15.944  0.2728 -0.0985  0.0275
 1081BOLB   C4A25928  21.381  27.084  15.528  0.0307  0.5993 -0.3180
 1081BOLB   C1B25929  22.120  26.323  16.147  0.0898  0.2645  0.0907
 1081BOLB   C2B25930  21.777  26.071  16.103  0.0390 -0.0989  0.0921
 1081BOLB   C3B25931  21.304  26.126  16.027 -0.3486 -0.0991  0.3028
 1081BOLB   C4B25932  21.112  25.889  15.679  0.0713  0.2351 -0.0595
 1081BOLB   NC225933  23.724  26.866  14.925  0.0022  0.1264 -0.0167
 1081BOLB   PO225934  23.409  26.915  14.519  0.0463 -0.0149  0.2683
 1081BOLB   GL325935  23.012  26.771  14.344 -0.3104  0.0872 -0.0718
 1081BOLB   GL425936  22.920  26.485  14.281 -0.0769 -0.2710  0.3423
 1081BOLB   C1C25937  22.596  26.853  14.540  0.4434 -0.0333  0.2330
 1081BOLB   C2C25938  22.312  26.919  14.789  0.1599 -0.0162 -0.0955
 1081BOLB   C3C25939  21.883  27.007  14.947 -0.4675 -0.2599  0.1847
 1081BOLB   C4C25940  21.528  27.181  15.067  0.1102 -0.3991  0.1154
 1081BOLB   C1D25941  22.479  26.505  14.122  0.2591  0.3330  0.1706
 1081BOLB   C2D25942  22.182  26.555  13.835  0.4318  0.0023 -0.3824
 1081BOLB   C3D25943  21.741  26.391  13.638  0.2507 -0.0050 -0.1338
 1081BOLB   C4D25944  21.442  26.460  13.361 -0.1629  0.0814  0.2100
 1082BOLB   NC125945  18.982  24.320  15.085  0.1129 -0.1022  0.0544
 1082BOLB   PO125946  18.872  24.637  14.987 -0.0979 -0.0707 -0.0258
 1082BOLB   GL125947  19.090  25.063  14.937 -0.0039 -0.1262 -0.4507
 1082BOLB   GL225948  18.892  25.235  14.802  0.1657 -0.1800  0.0863
 1082BOLB   C1A25949  19.279  25.417  15.093  0.0353 -0.0789 -0.0230
 1082BOLB   C2A25950  19.192  25.713  15.427 -0.2635 -0.4223 -0.0376
 1082BOLB   C3A25951  19.252  26.168  15.558  0.1564 -0.0223 -0.1063
 1082BOLB   C4A25952  19.193  26.542  15.745 -0.0777 -0.2062  0.1680
 1082BOLB   C1B25953  19.064  25.682  14.747  0.1590  0.2120 -0.0371
 1082BOLB   C2B25954  19.114  26.097  14.510  0.2979 -0.1717 -0.1083
 1082BOLB   C3B25955  18.827  26.475  14.292  0.2485  0.0013  0.0702
 1082BOLB   C4B25956  18.937  26.911  14.244 -0.0475  0.1767 -0.2595
 1082BOLB   NC225957  20.362  28.762  16.482 -0.0678  0.0339 -0.0249
 1082BOLB   PO225958  20.505  28.714  16.020 -0.0120  0.0599  0.0600
 1082BOLB   GL325959  20.271  28.256  15.874  0.1753 -0.2779 -0.2116
 1082BOLB   GL425960  19.959  28.259  16.208  0.1719  0.1799  0.2724
 1082BOLB   C1C25961  20.100  27.746  15.913  0.1611 -0.0046  0.4692
 1082BOLB   C2C25962  19.723  27.641  15.806 -0.1378 -0.0723  0.1795
 1082BOLB   C3C25963  19.316  27.411  15.865  0.0484 -0.0800  0.2187
 1082BOLB   C4C25964  19.263  26.902  15.958 -0.3848  0.1350 -0.0920
 1082BOLB   C1D25965  19.689  28.110  15.951  0.5683  0.1801  0.2305
 1082BOLB   C2D25966  19.356  27.944  15.751 -0.3276 -0.2007  0.1507
 1082BOLB   C3D25967  19.146  27.841  15.370  0.0953  0.1441  0.0816
 1082BOLB   C4D25968  19.065  27.436  15.182  0.1830  0.1254 -0.1656
 1083BOLB   NC125969  14.785  25.803  16.526 -0.2831 -0.2337  0.0919
 1083BOLB   PO125970  15.024  25.441  16.204 -0.0998 -0.1489 -0.1010
 1083BOLB   GL125971  14.889  25.877  16.040  0.0439 -0.1068  0.3592
 1083BOLB   GL225972  14.762  26.047  15.694 -0.1634  0.0810  0.2324
 1083BOLB   C1A25973  15.031  26.254  16.102 -0.2043  0.0204  0.1243
 1083BOLB   C2A25974  15.068  26.753  16.065  0.2958  0.1749  0.1812
 1083BOLB   C3A25975  15.011  27.233  15.809  0.1616 -0.2603  0.2941
 1083BOLB   C4A25976  14.691  27.497  15.707 -0.0806 -0.0259  0.2461
 1083BOLB   C1B25977  14.944  26.369  15.552 -0.3290  0.0828 -0.0813
 1083BOLB   C2B25978  15.260  26.687  15.604  0.1596  0.1877  0.1005
 1083BOLB   C3B25979  15.417  27.127  15.587 -0.0103 -0.1241  0.0657
 1083BOLB   C4B25980  15.363  27.648  15.615  0.0082  0.0672  0.0523
 1083BOLB   NC225981  13.866  30.092  16.170  0.0888  0.2040 -0.0410
 1083BOLB   PO225982  14.108  29.806  16.458  0.0714 -0.0631 -0.0082
 1083BOLB   GL325983  14.124  29.472  16.180 -0.0001 -0.2912  0.1401
 1083BOLB   GL425984  13.842  29.338  16.344  0.1629  0.2704  0.0536
 1083BOLB   C1C25985  14.257  29.090  16.038 -0.1062  0.0244  0.2417
 1083BOLB   C2C25986  14.342  28.709  16.070  0.2539 -0.0964  0.2746
 1083BOLB   C3C25987  14.403  28.237  15.765 -0.1283  0.1254 -0.0288
 1083BOLB   C4C25988  14.575  27.910  15.561 -0.0736 -0.4799  0.1139
 1083BOLB   C1D25989  13.897  28.919  16.578  0.0126  0.0036  0.1520
 1083BOLB   C2D25990  13.608  28.819  16.800  0.0909 -0.1781  0.0658
 1083BOLB   C3D25991  13.410  28.870  17.125  0.2414 -0.3172 -0.1171
 1083BOLB   C4D25992  13.141  29.229  17.364 -0.0174 -0.3468  0.1129
 1084BOLB   NC125993  12.519  25.934  16.707  0.3779 -0.0860 -0.0255
 1084BOLB   PO125994  12.861  26.149  16.985 -0.0767 -0.2156  0.2244
 1084BOLB   GL125995  12.959  26.540  16.862 -0.3286 -0.2068 -0.0633
 1084BOLB   GL225996  12.899  26.779  16.681 -0.1368  0.6765  0.1511
 1084BOLB   C1A25997  13.243  26.598  16.462 -0.1109 -0.0537  0.0068
 1084BOLB   C2A25998  13.405  27.130  16.514  0.1832  0.1859  0.0842
 1084BOLB   C3A25999  13.514  27.565  16.595 -0.2886 -0.0244 -0.0190
 1084BOLB   C4A26000  13.752  28.070  16.436 -0.2171  0.4390  0.1298
 1084BOLB   C1B26001  13.311  26.962  16.988  0.2067  0.0509  0.3055
 1084BOLB   C2B26002  13.619  27.010  17.209 -0.1332  0.1089 -0.1175
 1084BOLB   C3B26003  14.006  27.264  17.481 -0.1916  0.2731 -0.1353
 1084BOLB   C4B26004  14.353  27.385  17.724  0.1039 -0.2397 -0.0443
 1084BOLB   NC226005  13.078  30.024  15.840  0.0586 -0.3079  0.0658
 1084BOLB   PO226006  13.491  30.090  15.818  0.1900 -0.3051 -0.0552
 1084BOLB   GL326007  13.309  29.599  15.718 -0.1099  0.0066  0.2780
 1084BOLB   GL426008  13.071  29.488  15.922 -0.0954 -0.1933  0.1375
 1084BOLB   C1C26009  13.650  29.334  15.569  0.2753  0.1922  0.0676
 1084BOLB   C2C26010  13.858  28.992  15.541  0.3559  0.0349 -0.1766
 1084BOLB   C3C26011  13.987  28.618  15.687 -0.0728 -0.2173  0.0676
 1084BOLB   C4C26012  13.961  28.231  16.067  0.0774  0.0638  0.0396
 1084BOLB   C1D26013  13.345  29.151  15.995 -0.0869 -0.1986  0.0714
 1084BOLB   C2D26014  13.059  28.680  15.988 -0.0932 -0.1030 -0.1473
 1084BOLB   C3D26015  13.021  28.332  16.154  0.2648  0.3655  0.3132
 1084BOLB   C4D26016  13.003  27.926  16.331  0.2837  0.1318 -0.1157
 1085BOLB   NC126017  11.646  25.829  14.532  0.0157 -0.0485 -0.1352
 1085BOLB   PO126018  11.874  25.669  14.205 -0.1038 -0.1184 -0.2216
 1085BOLB   GL126019  11.742  26.001  13.937 -0.2718 -0.0724 -0.0892
 1085BOLB   GL226020  11.586  26.260  14.185  0.0213 -0.0435  0.0266
 1085BOLB   C1A26021  11.582  26.256  13.670  0.1366  0.0239 -0.0663
 1085BOLB   C2A26022  11.544  26.505  13.279  0.0432 -0.3723 -0.1382
 1085BOLB   C3A26023  11.775  26.795  13.039 -0.2138  0.0946  0.0067
 1085BOLB   C4A26024  12.112  26.997  12.853 -0.0670 -0.1806 -0.3824
 1085BOLB   C1B26025  11.728  26.621  14.021  0.1112  0.1624 -0.1586
 1085BOLB   C2B26026  12.112  26.818  13.942  0.0709  0.1519  0.0781
 1085BOLB   C3B26027  12.422  26.980  13.773  0.1823  0.0755  0.0762
 1085BOLB   C4B26028  12.961  27.077  13.774  0.1113  0.0574  0.0842
 1085BOLB   NC226029  13.416  28.765  12.139 -0.3499  0.1074 -0.2765
 1085BOLB   PO226030  13.317  29.022  12.389 -0.0327  0.1027 -0.0777
 1085BOLB   GL326031  13.324  28.670  12.642  0.1992 -0.0828  0.2359
 1085BOLB   GL426032  13.631  28.615  12.910 -0.4048 -0.0132 -0.1323
 1085BOLB   C1C26033  13.111  28.324  12.634 -0.1638 -0.0552  0.0890
 1085BOLB   C2C26034  12.791  28.052  12.755  0.2207 -0.0732 -0.0288
 1085BOLB   C3C26035  12.647  27.735  12.763 -0.0209  0.0617  0.1981
 1085BOLB   C4C26036  12.305  27.335  12.886  0.0216  0.0482 -0.2179
 1085BOLB   C1D26037  13.552  28.202  12.917  0.0074  0.0046 -0.1820
 1085BOLB   C2D26038  13.633  27.774  13.163 -0.1492 -0.3389 -0.1814
 1085BOLB   C3D26039  13.779  27.406  13.243 -0.0060 -0.1283  0.0148
 1085BOLB   C4D26040  13.758  27.096  13.527  0.1053 -0.1231  0.1027
 1086BOLB   NC126041  13.769  24.900  14.880  0.4368 -0.0444 -0.2041
 1086BOLB   PO126042  13.986  25.194  14.694  0.2926  0.0683 -0.0049
 1086BOLB   GL126043  13.966  25.630  14.599  0.0623 -0.1263 -0.0574
 1086BOLB   GL226044  13.534  25.709  14.594 -0.0800 -0.0895 -0.1041
 1086BOLB   C1A26045  14.171  25.998  14.463 -0.0358 -0.2063  0.2595
 1086BOLB   C2A26046  14.344  26.473  14.400 -0.0880 -0.0340 -0.2700
 1086BOLB   C3A26047  14.423  26.804  14.185  0.1190  0.0529  0.1565
 1086BOLB   C4A26048  14.348  27.189  14.189 -0.1013  0.0546 -0.0128
 1086BOLB   C1B26049  13.254  25.809  14.182 -0.0692  0.2943  0.1740
 1086BOLB   C2B26050  13.065  26.195  14.058  0.4061  0.3471 -0.0648
 1086BOLB   C3B26051  12.814  26.473  13.810  0.2957 -0.1643  0.0548
 1086BOLB   C4B26052  12.672  26.612  13.494 -0.2064 -0.3057  0.1173
 1086BOLB   NC226053  13.954  29.382  13.025  0.3143  0.0834 -0.2011
 1086BOLB   PO226054  13.847  29.414  13.573  0.1640  0.1596  0.0084
 1086BOLB   GL326055  13.753  28.923  13.772  0.1590 -0.0904 -0.1871
 1086BOLB   GL426056  13.415  29.054  13.710  0.2249 -0.0343  0.0517
 1086BOLB   C1C26057  13.834  28.532  13.960  0.2316  0.1981 -0.1217
 1086BOLB   C2C26058  13.722  28.061  13.847  0.0363  0.0945  0.2405
 1086BOLB   C3C26059  13.777  27.636  13.666 -0.1486 -0.1485  0.2373
 1086BOLB   C4C26060  14.065  27.414  13.892 -0.1481  0.0691  0.0464
 1086BOLB   C1D26061  13.340  28.584  13.740 -0.1177 -0.1286 -0.2880
 1086BOLB   C2D26062  13.299  28.243  14.004  0.3829  0.0818 -0.1578
 1086BOLB   C3D26063  13.064  28.037  14.394 -0.2661  0.1537 -0.1331
 1086BOLB   C4D26064  13.336  28.167  14.728 -0.0313  0.1729 -0.0156
 1087BOLB   NC126065  16.316  25.676  16.751 -0.3105 -0.2812 -0.1410
 1087BOLB   PO126066  16.382  25.548  17.236  0.0732  0.2427 -0.0630
 1087BOLB   GL126067  16.515  25.941  17.211 -0.1978 -0.4060 -0.1423
 1087BOLB   GL226068  16.691  26.040  16.894  0.1990 -0.1378 -0.2581
 1087BOLB   C1A26069  16.574  26.407  17.171 -0.2271 -0.0443  0.0646
 1087BOLB   C2A26070  16.431  26.812  17.313  0.1454 -0.1581  0.0421
 1087BOLB   C3A26071  16.368  27.173  17.286 -0.1639 -0.0367 -0.3163
 1087BOLB   C4A26072  16.233  27.560  17.184  0.2493 -0.0793 -0.4259
 1087BOLB   C1B26073  16.854  26.480  16.778  0.0615 -0.1020 -0.0821
 1087BOLB   C2B26074  16.870  26.867  16.495 -0.0169 -0.2042 -0.0902
 1087BOLB   C3B26075  16.828  27.318  16.461  0.2844 -0.0638 -0.0889
 1087BOLB   C4B26076  16.868  27.615  16.521 -0.1526 -0.0211 -0.4518
 1087BOLB   NC226077  16.343  30.143  16.698 -0.0912 -0.0517  0.2152
 1087BOLB   PO226078  16.655  29.802  17.000  0.0473  0.2050 -0.0724
 1087BOLB   GL326079  16.466  29.339  17.077  0.1032  0.1279 -0.0561
 1087BOLB   GL426080  16.214  29.293  16.880  0.0759 -0.1991 -0.0152
 1087BOLB   C1C26081  16.502  28.906  16.995 -0.0707 -0.0214 -0.0779
 1087BOLB   C2C26082  16.287  28.682  16.764  0.1606  0.0514 -0.2550
 1087BOLB   C3C26083  16.124  28.276  16.680  0.0023  0.0821  0.0976
 1087BOLB   C4C26084  16.152  27.959  17.052  0.1496 -0.0673 -0.0959
 1087BOLB   C1D26085  16.418  29.117  16.578  0.0140  0.2977 -0.0375
 1087BOLB   C2D26086  16.862  29.031  16.474  0.2847 -0.0479  0.2374
 1087BOLB   C3D26087  16.951  28.590  16.305  0.1088 -0.3978 -0.1097
 1087BOLB   C4D26088  17.138  28.172  16.411  0.1175 -0.0717  0.0091
 1088BOLB   NC126089  18.746  23.582  13.598  0.0478  0.4688 -0.0779
 1088BOLB   PO126090  18.813  23.898  13.764  0.4559 -0.1194 -0.1535
 1088BOLB   GL126091  19.018  24.332  13.902 -0.1334 -0.0867 -0.3119
 1088BOLB   GL226092  19.381  24.414  13.751  0.0081 -0.1093  0.0805
 1088BOLB   C1A26093  19.089  24.779  13.725  0.1604 -0.0859 -0.0631
 1088BOLB   C2A26094  19.011  25.193  13.384 -0.0701  0.1684 -0.6004
 1088BOLB   C3A26095  19.143  25.481  13.148 -0.0939  0.0598  0.3219
 1088BOLB   C4A26096  19.447  25.737  13.095 -0.0703  0.1852  0.2789
 1088BOLB   C1B26097  19.574  24.814  13.628 -0.2055 -0.0903  0.1756
 1088BOLB   C2B26098  19.522  25.254  13.469 -0.1461 -0.1061 -0.0711
 1088BOLB   C3B26099  19.829  25.460  13.221 -0.0195 -0.0937 -0.0126
 1088BOLB   C4B26100  19.861  25.569  12.796 -0.1410 -0.3304  0.2937
 1088BOLB   NC226101  20.141  28.020  12.327  0.2340  0.2776  0.5314
 1088BOLB   PO226102  20.157  27.846  12.732  0.1599  0.1023 -0.0022
 1088BOLB   GL326103  19.826  27.645  12.591  0.0212  0.0013 -0.2607
 1088BOLB   GL426104  19.607  27.668  12.798  0.0588 -0.0695 -0.0683
 1088BOLB   C1C26105  19.599  27.271  12.500  0.0491 -0.2832  0.5758
 1088BOLB   C2C26106  19.442  26.808  12.415  0.2844  0.1396  0.0733
 1088BOLB   C3C26107  19.597  26.462  12.569 -0.3455  0.0659  0.0281
 1088BOLB   C4C26108  19.547  26.056  12.793 -0.3609  0.2004 -0.1713
 1088BOLB   C1D26109  19.769  27.408  13.247  0.3132 -0.0101  0.3666
 1088BOLB   C2D26110  19.793  27.043  13.345  0.1987  0.1699  0.3866
 1088BOLB   C3D26111  19.799  26.654  13.528 -0.1986  0.4139 -0.1765
 1088BOLB   C4D26112  20.047  26.292  13.543  0.1895 -0.0529  0.1590
 1089BOLB   NC126113  15.750  25.255  15.685  0.1074 -0.1408 -0.0251
 1089BOLB   PO126114  16.002  25.178  15.385  0.1256  0.0839  0.2815
 1089BOLB   GL126115  15.977  25.605  15.343  0.2271  0.1497 -0.1414
 1089BOLB   GL226116  16.073  25.666  15.097  0.0523  0.2511  0.0590
 1089BOLB   C1A26117  15.746  26.017  15.225 -0.4663  0.0968  0.1574
 1089BOLB   C2A26118  15.811  26.393  14.865  0.0412 -0.0854 -0.0318
 1089BOLB   C3A26119  15.512  26.615  14.560  0.1162  0.0821 -0.0761
 1089BOLB   C4A26120  15.778  26.930  14.408  0.1293  0.1200 -0.1158
 1089BOLB   C1B26121  16.230  26.082  14.972 -0.0365  0.0545  0.0743
 1089BOLB   C2B26122  16.650  26.342  14.683 -0.1545 -0.1045  0.1719
 1089BOLB   C3B26123  16.861  26.093  14.261 -0.0254 -0.0119  0.2007
 1089BOLB   C4B26124  17.043  26.105  13.906  0.2803 -0.0399  0.1766
 1089BOLB   NC226125  16.104  28.921  13.862  0.1070 -0.0743 -0.2599
 1089BOLB   PO226126  15.794  28.693  13.554  0.0924  0.2328 -0.2719
 1089BOLB   GL326127  15.972  28.281  13.468  0.0069  0.0019 -0.2285
 1089BOLB   GL426128  16.164  28.403  13.721 -0.3160  0.1418  0.0671
 1089BOLB   C1C26129  15.820  27.970  13.676  0.2184  0.0486 -0.0530
 1089BOLB   C2C26130  15.963  27.577  13.674  0.0206  0.0151 -0.0325
 1089BOLB   C3C26131  16.069  27.235  13.763 -0.1009 -0.0937  0.1143
 1089BOLB   C4C26132  16.086  27.076  14.184  0.2090  0.1035  0.1866
 1089BOLB   C1D26133  16.525  28.228  13.836 -0.2049  0.3532 -0.2226
 1089BOLB   C2D26134  16.849  27.814  13.951  0.0720  0.0681  0.3742
 1089BOLB   C3D26135  16.742  27.338  14.011  0.0407  0.5847  0.4034
 1089BOLB   C4D26136  16.763  26.960  14.305  0.0301 -0.0158 -0.2811
 1090BOLB   NC126137  10.976  26.102  15.577  0.0890  0.3197  0.1111
 1090BOLB   PO126138  11.188  26.459  15.509 -0.1368  0.1685  0.1623
 1090BOLB   GL126139  11.410  26.845  15.440 -0.3490  0.1348 -0.1079
 1090BOLB   GL226140  11.598  26.722  15.447 -0.0289 -0.0671  0.2232
 1090BOLB   C1A26141  11.453  27.058  14.986  0.0696 -0.2471 -0.1667
 1090BOLB   C2A26142  11.526  27.277  14.555 -0.0001  0.0894 -0.1427
 1090BOLB   C3A26143  11.568  27.740  14.453 -0.0940  0.0284  0.1831
 1090BOLB   C4A26144  11.725  28.010  14.767 -0.4188 -0.0230  0.1037
 1090BOLB   C1B26145  11.724  27.052  15.739 -0.0687 -0.1939 -0.0630
 1090BOLB   C2B26146  11.778  27.440  15.748 -0.1460 -0.1383  0.0160
 1090BOLB   C3B26147  11.786  27.805  15.756  0.5519  0.3494 -0.0408
 1090BOLB   C4B26148  11.556  27.974  16.008 -0.0396 -0.0182 -0.0630
 1090BOLB   NC226149  11.959  29.996  14.828 -0.0118 -0.2672  0.3104
 1090BOLB   PO226150  12.019  30.175  14.429  0.1403 -0.2201 -0.2137
 1090BOLB   GL326151  12.129  29.862  14.261 -0.0572 -0.0856 -0.1517
 1090BOLB   GL426152  11.924  29.822  13.970 -0.3305 -0.0120  0.0639
 1090BOLB   C1C26153  12.302  29.424  14.245 -0.1808  0.2265 -0.1173
 1090BOLB   C2C26154  12.066  29.057  14.542 -0.1411 -0.1350 -0.1149
 1090BOLB   C3C26155  12.288  28.757  14.784 -0.0192  0.0142  0.1609
 1090BOLB   C4C26156  12.039  28.338  14.920 -0.0338  0.2108 -0.1086
 1090BOLB   C1D26157  12.105  29.416  13.762  0.2358  0.1106  0.3560
 1090BOLB   C2D26158  12.329  29.097  13.843 -0.3903 -0.2126 -0.2270
 1090BOLB   C3D26159  12.747  28.802  13.877 -0.0378  0.1132 -0.3703
 1090BOLB   C4D26160  13.118  28.775  14.137 -0.1682 -0.0792  0.4804
 1091BOLB   NC126161  19.150  23.916  14.831  0.0442  0.1901  0.0249
 1091BOLB   PO126162  19.427  24.071  14.504 -0.1133  0.4797  0.2421
 1091BOLB   GL126163  19.475  24.455  14.257  0.0251 -0.2650 -0.0914
 1091BOLB   GL226164  19.725  24.645  14.394  0.0589  0.0556  0.2764
 1091BOLB   C1A26165  19.387  24.809  14.122 -0.1637 -0.0266 -0.1142
 1091BOLB   C2A26166  19.576  25.208  13.986  0.0872  0.2429 -0.0446
 1091BOLB   C3A26167  19.520  25.630  13.823 -0.1300 -0.1337 -0.1833
 1091BOLB   C4A26168  19.612  25.990  13.583  0.2479  0.2170  0.3628
 1091BOLB   C1B26169  19.846  25.115  14.369 -0.0115  0.1293 -0.3342
 1091BOLB   C2B26170  19.819  25.587  14.221 -0.3102 -0.0298  0.2400
 1091BOLB   C3B26171  20.022  25.791  13.931  0.3005  0.1770 -0.1369
 1091BOLB   C4B26172  20.400  25.972  13.653  0.1521  0.0764  0.0252
 1091BOLB   NC226173  19.832  28.017  13.113  0.0819  0.1358  0.1544
 1091BOLB   PO226174  19.504  28.261  13.026 -0.1906  0.2417  0.1606
 1091BOLB   GL326175  19.362  28.028  13.356  0.0531  0.1535  0.0634
 1091BOLB   GL426176  19.546  27.834  13.534  0.2118 -0.0847 -0.0076
 1091BOLB   C1C26177  19.319  27.546  13.193 -0.0088  0.2112 -0.1390
 1091BOLB   C2C26178  19.255  27.120  13.147  0.1728 -0.3157 -0.2292
 1091BOLB   C3C26179  19.279  26.789  13.402 -0.2101  0.1682  0.1694
 1091BOLB   C4C26180  19.389  26.413  13.629 -0.0507 -0.0549  0.1457
 1091BOLB   C1D26181  19.451  27.306  13.616 -0.2880 -0.0475  0.0477
 1091BOLB   C2D26182  19.369  26.947  13.901 -0.4511 -0.0417  0.2416
 1091BOLB   C3D26183  19.318  26.498  14.212 -0.5685  0.0319  0.0282
 1091BOLB   C4D26184  19.245  26.625  14.612 -0.0258  0.0232 -0.4708
 1092BOLB   NC126185  12.264  26.644  17.460 -0.0987  0.3496 -0.0961
 1092BOLB   PO126186  12.269  26.696  17.026 -0.2202  0.3554 -0.3901
 1092BOLB   GL126187  12.490  27.010  16.847  0.0082 -0.1477 -0.0037
 1092BOLB   GL226188  12.397  27.096  16.583 -0.3602 -0.0764 -0.1409
 1092BOLB   C1A26189  12.870  27.250  16.608  0.1051 -0.3134  0.3565
 1092BOLB   C2A26190  12.998  27.404  16.302  0.1224 -0.3125  0.3030
 1092BOLB   C3A26191  13.377  27.638  16.118 -0.2416 -0.1301  0.1936
 1092BOLB   C4A26192  13.464  28.014  16.060 -0.3209  0.0354  0.2280
 1092BOLB   C1B26193  12.571  27.247  16.220 -0.2620  0.1060 -0.2454
 1092BOLB   C2B26194  12.765  27.265  15.836 -0.1550 -0.1600 -0.3679
 1092BOLB   C3B26195  12.643  27.529  15.471  0.0018  0.0453  0.2245
 1092BOLB   C4B26196  12.796  27.967  15.302  0.1878  0.2773 -0.2367
 1092BOLB   NC226197  12.800  30.354  15.130  0.0069  0.1564 -0.0121
 1092BOLB   PO226198  12.555  30.012  15.375  0.1239  0.3334 -0.2552
 1092BOLB   GL326199  12.938  29.636  15.356  0.1054  0.0784  0.0474
 1092BOLB   GL426200  13.221  29.712  15.161 -0.2927  0.1644  0.2387
 1092BOLB   C1C26201  13.054  29.236  15.479  0.1816 -0.3214 -0.0205
 1092BOLB   C2C26202  13.302  28.821  15.487 -0.3720 -0.1419 -0.1802
 1092BOLB   C3C26203  13.580  28.751  15.907  0.2405 -0.1255  0.0781
 1092BOLB   C4C26204  13.530  28.450  16.098 -0.2023 -0.1290  0.0231
 1092BOLB   C1D26205  13.425  29.380  15.143 -0.0096 -0.0998  0.0112
 1092BOLB   C2D26206  13.704  29.028  15.033 -0.1107  0.1728  0.0566
 1092BOLB   C3D26207  13.791  28.578  15.183 -0.2542  0.0357 -0.1468
 1092BOLB   C4D26208  13.643  28.325  15.492 -0.0210 -0.0819  0.0431
 1093BOLB   NC126209  10.257  28.018  14.473  0.1518  0.0050  0.4002
 1093BOLB   PO126210  10.319  27.848  14.841  0.3311  0.2300 -0.3614
 1093BOLB   GL126211  10.649  27.650  14.711  0.1439  0.0062  0.2118
 1093BOLB   GL226212  10.637  27.667  14.406  0.0456 -0.1599  0.2662
 1093BOLB   C1A26213  11.091  27.729  14.750 -0.0555  0.0507  0.0167
 1093BOLB   C2A26214  11.451  27.620  14.957 -0.0577 -0.0421 -0.2414
 1093BOLB   C3A26215  11.661  27.808  15.262 -0.0630  0.0795  0.1757
 1093BOLB   C4A26216  11.897  28.193  15.430  0.5247  0.0276  0.0937
 1093BOLB   C1B26217  10.944  27.924  14.296 -0.0098  0.1809  0.0951
 1093BOLB   C2B26218  11.136  28.095  13.973 -0.2384 -0.0065  0.1839
 1093BOLB   C3B26219  11.227  28.557  13.967  0.3837  0.0102 -0.1972
 1093BOLB   C4B26220  11.538  28.849  14.175 -0.2473  0.1307 -0.2303
 1093BOLB   NC226221  12.492  29.867  16.461  0.0844  0.2917  0.0953
 1093BOLB   PO226222  12.910  29.928  16.305  0.1739  0.0041 -0.2479
 1093BOLB   GL326223  12.927  29.531  16.500 -0.2127 -0.2624  0.1919
 1093BOLB   GL426224  12.607  29.379  16.655  0.1152  0.0733 -0.2809
 1093BOLB   C1C26225  12.906  29.076  16.368 -0.0139  0.3054  0.1620
 1093BOLB   C2C26226  12.727  29.018  15.884 -0.3134  0.0527  0.0980
 1093BOLB   C3C26227  12.518  28.643  15.804 -0.1900  0.0423 -0.0333
 1093BOLB   C4C26228  12.113  28.472  15.703 -0.2371 -0.2058 -0.3361
 1093BOLB   C1D26229  12.451  28.992  16.807  0.2281 -0.3065  0.0271
 1093BOLB   C2D26230  12.288  28.535  16.751 -0.0971 -0.0497  0.2276
 1093BOLB   C3D26231  12.170  28.057  16.750  0.0079  0.1772 -0.0558
 1093BOLB   C4D26232  11.803  27.726  16.395 -0.0378 -0.1222 -0.1586
 1094BOLB   NC126233  11.219  28.573  17.930  0.0313  0.1739  0.1576
 1094BOLB   PO126234  11.288  28.927  17.823  0.0503 -0.0910 -0.0268
 1094BOLB   GL126235  11.752  28.894  18.028 -0.0364 -0.0765  0.0607
 1094BOLB   GL226236  11.921  28.522  18.007 -0.2455 -0.0462 -0.0322
 1094BOLB   C1A26237  12.059  28.952  17.793 -0.0806 -0.2206  0.1102
 1094BOLB   C2A26238  12.292  28.655  17.532  0.0433  0.1566 -0.0916
 1094BOLB   C3A26239  12.428  28.397  17.208 -0.1784 -0.1929  0.1682
 1094BOLB   C4A26240  12.695  28.165  16.904 -0.0043 -0.4581 -0.0297
 1094BOLB   C1B26241  12.019  28.586  18.534  0.1086 -0.1683 -0.2213
 1094BOLB   C2B26242  12.042  28.479  19.009  0.5271 -0.3513  0.0463
 1094BOLB   C3B26243  11.710  28.498  19.397 -0.0980  0.2238  0.0994
 1094BOLB   C4B26244  11.771  28.695  19.786 -0.0064  0.1051 -0.3010
 1094BOLB   NC226245  11.045  28.850  16.530 -0.1818 -0.2574  0.0078
 1094BOLB   PO226246  10.867  28.384  16.550 -0.0219  0.0007 -0.0107
 1094BOLB   GL326247  11.372  28.442  16.482  0.1439 -0.2554  0.0355
 1094BOLB   GL426248  11.577  28.704  16.545  0.1560 -0.0851 -0.0974
 1094BOLB   C1C26249  11.763  28.332  16.332 -0.0875  0.4616 -0.0719
 1094BOLB   C2C26250  12.103  28.127  16.150  0.0013  0.1382  0.0253
 1094BOLB   C3C26251  12.430  28.193  16.208  0.1307 -0.0767 -0.1522
 1094BOLB   C4C26252  12.693  28.213  16.543 -0.0813  0.0122  0.0118
 1094BOLB   C1D26253  11.893  28.975  16.729 -0.3702  0.2009 -0.0759
 1094BOLB   C2D26254  11.905  28.559  17.102  0.0205  0.0312 -0.0848
 1094BOLB   C3D26255  11.977  28.148  17.183 -0.0898  0.3889 -0.1512
 1094BOLB   C4D26256  12.400  27.861  17.183 -0.4487 -0.4431  0.3526
 1095BOLB   NC126257  12.244  25.955  15.226  0.2336  0.3226 -0.1994
 1095BOLB   PO126258  12.626  25.872  14.937  0.0428  0.0544  0.1242
 1095BOLB   GL126259  12.759  26.170  14.641  0.0785 -0.0859 -0.5503
 1095BOLB   GL226260  12.858  25.870  14.491 -0.1902 -0.0013  0.2457
 1095BOLB   C1A26261  12.544  26.274  14.250  0.2454 -0.2191 -0.0911
 1095BOLB   C2A26262  12.308  26.349  13.861  0.5359  0.0250  0.2165
 1095BOLB   C3A26263  12.086  26.442  13.569  0.2798  0.1098  0.1505
 1095BOLB   C4A26264  12.211  26.766  13.295  0.0192 -0.0752 -0.1182
 1095BOLB   C1B26265  13.303  26.187  14.490  0.0393  0.0387  0.2781
 1095BOLB   C2B26266  13.426  26.599  14.275  0.1637  0.2327  0.4212
 1095BOLB   C3B26267  13.362  27.074  14.189 -0.0406  0.1397  0.0559
 1095BOLB   C4B26268  13.395  27.288  13.785 -0.1930 -0.0408 -0.0567
 1095BOLB   NC226269  12.670  28.772  11.542 -0.1573  0.1713  0.1967
 1095BOLB   PO226270  12.897  28.735  11.942  0.2675 -0.0048 -0.2209
 1095BOLB   GL326271  12.783  28.298  12.155 -0.2121  0.1412  0.0697
 1095BOLB   GL426272  13.066  28.330  12.187  0.1600 -0.1172  0.1442
 1095BOLB   C1C26273  12.795  27.935  12.309  0.1752 -0.0647  0.2411
 1095BOLB   C2C26274  13.005  27.481  12.518 -0.0892  0.3237  0.0415
 1095BOLB   C3C26275  12.727  27.198  12.705  0.1811  0.3175 -0.0879
 1095BOLB   C4C26276  12.629  26.965  13.021 -0.0792 -0.4098  0.3108
 1095BOLB   C1D26277  13.199  28.010  12.001  0.1458  0.1316 -0.4126
 1095BOLB   C2D26278  13.132  27.655  12.036  0.1659 -0.0088  0.0000
 1095BOLB   C3D26279  12.928  27.240  12.049 -0.0641 -0.1489  0.0192
 1095BOLB   C4D26280  12.955  26.856  12.230  0.2157 -0.3558 -0.1776
 1096BOLB   NC126281  16.425  25.476  16.243 -0.0416 -0.1428 -0.2395
 1096BOLB   PO126282  16.008  25.428  16.491  0.2472  0.2997  0.3411
 1096BOLB   GL126283  15.996  25.727  16.150  0.2686 -0.1180 -0.2134
 1096BOLB   GL226284  15.904  25.703  15.801 -0.1616  0.1963 -0.2489
 1096BOLB   C1A26285  16.324  25.933  15.800 -0.1145 -0.2197 -0.1646
 1096BOLB   C2A26286  16.406  26.323  15.503 -0.2481 -0.0296  0.0032
 1096BOLB   C3A26287  16.135  26.491  15.242 -0.1214  0.1528  0.1915
 1096BOLB   C4A26288  16.099  26.775  14.910 -0.2097  0.2057  0.2882
 1096BOLB   C1B26289  15.896  26.160  15.693 -0.1866 -0.1081 -0.0409
 1096BOLB   C2B26290  15.752  26.623  15.524 -0.1276  0.0216  0.1770
 1096BOLB   C3B26291  15.925  26.996  15.387 -0.0077  0.3404 -0.0898
 1096BOLB   C4B26292  15.836  27.459  15.379  0.0039 -0.0217 -0.0197
 1096BOLB   NC226293  16.877  29.086  14.220  0.1615 -0.0392 -0.0792
 1096BOLB   PO226294  16.479  29.105  14.161  0.1760 -0.5628 -0.2637
 1096BOLB   GL326295  16.297  28.664  14.252  0.0207  0.3023 -0.2081
 1096BOLB   GL426296  15.898  28.556  14.116 -0.0185  0.3504 -0.0541
 1096BOLB   C1C26297  16.564  28.320  14.379  0.3626 -0.3910  0.3444
 1096BOLB   C2C26298  16.611  27.907  14.352  0.0389 -0.1929 -0.1968
 1096BOLB   C3C26299  16.345  27.393  14.413  0.1748 -0.1205  0.1560
 1096BOLB   C4C26300  16.327  26.960  14.588  0.0165  0.0999 -0.0447
 1096BOLB   C1D26301  16.096  28.244  14.253 -0.2402  0.0029 -0.2512
 1096BOLB   C2D26302  16.189  27.900  14.573  0.1110  0.0503  0.1615
 1096BOLB   C3D26303  16.136  27.475  14.883  0.2436 -0.2748  0.0306
 1096BOLB   C4D26304  16.299  27.201  15.144  0.3500  0.1633 -0.0753
 1097BOLB   NC126305  12.135  25.989  15.928 -0.0900 -0.1851 -0.1224
 1097BOLB   PO126306  12.360  26.245  15.627  0.1896  0.0570 -0.0327
 1097BOLB   GL126307  12.155  26.522  15.341  0.2519 -0.1516 -0.3165
 1097BOLB   GL226308  12.125  26.918  15.365 -0.3471  0.1170  0.1763
 1097BOLB   C1A26309  11.839  26.748  15.011  0.2184 -0.1089 -0.1308
 1097BOLB   C2A26310  11.945  27.011  14.774 -0.3908 -0.2038 -0.1979
 1097BOLB   C3A26311  12.280  27.325  14.562 -0.2912  0.0812 -0.2218
 1097BOLB   C4A26312  12.588  27.683  14.502 -0.2868 -0.2718 -0.1341
 1097BOLB   C1B26313  12.330  27.288  15.106 -0.0678  0.2023 -0.2926
 1097BOLB   C2B26314  12.722  27.562  15.002 -0.3416  0.0173 -0.0303
 1097BOLB   C3B26315  13.120  27.726  14.851  0.2382  0.2451  0.1856
 1097BOLB   C4B26316  13.322  27.567  14.547 -0.3084 -0.1593 -0.5922
 1097BOLB   NC226317  12.644  29.756  13.407  0.0226 -0.1994 -0.1760
 1097BOLB   PO226318  13.039  29.646  13.282 -0.0346  0.1850 -0.1378
 1097BOLB   GL326319  13.079  29.245  13.328  0.0931  0.0876 -0.4359
 1097BOLB   GL426320  13.269  28.985  13.114  0.1288 -0.2008 -0.3524
 1097BOLB   C1C26321  12.854  28.782  13.412  0.1552  0.0869  0.0285
 1097BOLB   C2C26322  12.963  28.364  13.622 -0.0387  0.0545 -0.0266
 1097BOLB   C3C26323  12.775  28.048  13.748  0.0598 -0.3797  0.4085
 1097BOLB   C4C26324  12.648  27.867  14.137  0.3600 -0.1956  0.1467
 1097BOLB   C1D26325  13.263  28.557  13.222 -0.0096  0.0852 -0.0571
 1097BOLB   C2D26326  13.119  28.213  13.106 -0.1895 -0.0888 -0.4154
 1097BOLB   C3D26327  12.851  27.894  13.220 -0.2081 -0.0432 -0.1330
 1097BOLB   C4D26328  12.446  27.688  13.245 -0.3953 -0.4220 -0.1737
 1098BOLB   NC126329  15.194  24.827  15.388  0.0088  0.1215  0.0617
 1098BOLB   PO126330  15.411  25.183  15.359  0.1846  0.3361 -0.1085
 1098BOLB   GL126331  15.574  25.455  15.078  0.0467 -0.0319 -0.1865
 1098BOLB   GL226332  15.677  25.326  14.820  0.2859 -0.1460  0.0082
 1098BOLB   C1A26333  15.492  25.884  14.869  0.2023 -0.1356  0.3935
 1098BOLB   C2A26334  15.656  26.155  14.477 -0.0104  0.2128  0.1002
 1098BOLB   C3A26335  15.689  26.170  13.990  0.1743 -0.0754 -0.1452
 1098BOLB   C4A26336  15.898  26.390  13.652 -0.2220 -0.2488 -0.0292
 1098BOLB   C1B26337  15.920  25.571  14.609  0.1495  0.0471  0.1617
 1098BOLB   C2B26338  15.955  25.800  14.262 -0.1713 -0.0457 -0.0232
 1098BOLB   C3B26339  16.225  26.011  13.974  0.1456  0.2240  0.1443
 1098BOLB   C4B26340  16.375  26.433  13.725  0.2775  0.2497 -0.0242
 1098BOLB   NC226341  16.989  28.759  13.185  0.3923  0.2853 -0.2278
 1098BOLB   PO226342  16.856  28.533  12.824 -0.0670  0.0015  0.1088
 1098BOLB   GL326343  16.840  28.121  12.955 -0.0798  0.0452 -0.1279
 1098BOLB   GL426344  16.877  28.232  13.252 -0.2816  0.3279 -0.0761
 1098BOLB   C1C26345  16.945  27.700  12.985  0.0732 -0.1302 -0.0423
 1098BOLB   C2C26346  16.762  27.351  13.157  0.0544 -0.0605  0.2428
 1098BOLB   C3C26347  16.447  27.018  13.263 -0.0653 -0.0519 -0.0585
 1098BOLB   C4C26348  16.087  26.798  13.523  0.1781 -0.0716 -0.2250
 1098BOLB   C1D26349  16.612  27.866  13.451 -0.0434 -0.1604  0.0758
 1098BOLB   C2D26350  16.518  27.444  13.556  0.0276 -0.4809  0.0846
 1098BOLB   C3D26351  16.510  26.903  13.793  0.1037  0.0330  0.1764
 1098BOLB   C4D26352  16.556  26.518  14.163 -0.1115 -0.1186  0.1685
 1099BOLB   NC126353  11.558  27.288  17.185  0.1132 -0.0327 -0.0517
 1099BOLB   PO126354  11.852  27.550  17.525  0.1924 -0.1881 -0.1065
 1099BOLB   GL126355  12.110  27.438  17.193  0.0723  0.3047  0.2943
 1099BOLB   GL226356  12.091  27.135  17.131 -0.0253 -0.2132 -0.0418
 1099BOLB   C1A26357  12.209  27.495  16.749 -0.0886 -0.2540  0.0192
 1099BOLB   C2A26358  12.576  27.639  16.646 -0.1229  0.0287  0.3943
 1099BOLB   C3A26359  12.982  27.695  16.815 -0.2740  0.0205 -0.0424
 1099BOLB   C4A26360  13.340  28.043  16.699  0.0215 -0.0741 -0.2473
 1099BOLB   C1B26361  12.601  27.369  17.119 -0.0872 -0.1459  0.0742
 1099BOLB   C2B26362  12.965  27.361  17.127  0.1599 -0.1871  0.1704
 1099BOLB   C3B26363  13.374  27.435  17.069  0.1627 -0.1437 -0.1579
 1099BOLB   C4B26364  13.585  27.583  17.378  0.1977 -0.1497  0.0893
 1099BOLB   NC226365  12.562  30.490  17.025  0.1321 -0.1320  0.0170
 1099BOLB   PO226366  12.943  30.217  17.199 -0.1101 -0.0629  0.1019
 1099BOLB   GL326367  13.230  29.929  17.038 -0.0680  0.0705 -0.1953
 1099BOLB   GL426368  13.281  29.649  17.196  0.2281  0.0141  0.2125
 1099BOLB   C1C26369  13.404  29.600  16.774  0.1140 -0.2731  0.3173
 1099BOLB   C2C26370  13.463  29.194  16.615 -0.2991 -0.1402  0.0948
 1099BOLB   C3C26371  13.359  28.864  16.377  0.0135 -0.0433 -0.0242
 1099BOLB   C4C26372  13.338  28.431  16.539 -0.1182  0.0754 -0.0910
 1099BOLB   C1D26373  13.657  29.274  17.102  0.0190  0.1761 -0.1283
 1099BOLB   C2D26374  14.065  29.070  17.131 -0.1112 -0.0355 -0.2388
 1099BOLB   C3D26375  14.263  29.167  16.702 -0.1933  0.2717  0.2060
 1099BOLB   C4D26376  14.721  28.953  16.606 -0.1563 -0.2734 -0.0078
 1100BOLB   NC126377  12.577  25.498  14.647  0.3420  0.1051 -0.1053
 1100BOLB   PO126378  12.177  25.718  14.767  0.4637  0.1238  0.0919
 1100BOLB   GL126379  12.255  26.128  14.654  0.0317  0.0136 -0.1953
 1100BOLB   GL226380  12.014  26.096  14.364 -0.1998 -0.3891 -0.0874
 1100BOLB   C1A26381  12.453  26.542  14.845  0.2233 -0.2260  0.0187
 1100BOLB   C2A26382  12.631  26.974  14.794 -0.0975  0.3138 -0.1079
 1100BOLB   C3A26383  12.877  27.259  14.618  0.2588 -0.0968  0.0392
 1100BOLB   C4A26384  13.018  27.457  14.242  0.0899 -0.0490  0.0744
 1100BOLB   C1B26385  12.109  26.534  14.359  0.0298  0.2661  0.0859
 1100BOLB   C2B26386  12.427  26.821  14.387  0.4987 -0.2857  0.0451
 1100BOLB   C3B26387  12.632  27.179  14.214 -0.0778 -0.0421  0.2593
 1100BOLB   C4B26388  12.407  27.386  14.063 -0.0111  0.2560 -0.6197
 1100BOLB   NC226389  14.163  29.589  14.331 -0.2657  0.2340 -0.1762
 1100BOLB   PO226390  14.499  29.251  14.075  0.0495 -0.1316  0.2337
 1100BOLB   GL326391  14.246  28.998  14.305 -0.1412  0.0047 -0.0394
 1100BOLB   GL426392  13.931  29.156  14.454 -0.1369 -0.0197 -0.2336
 1100BOLB   C1C26393  14.119  28.486  14.316 -0.1927  0.0924 -0.0117
 1100BOLB   C2C26394  13.912  28.160  14.331  0.0015  0.3173 -0.1439
 1100BOLB   C3C26395  13.696  27.819  14.290 -0.1105 -0.3333 -0.1312
 1100BOLB   C4C26396  13.432  27.707  14.061 -0.4825 -0.1457  0.0201
 1100BOLB   C1D26397  14.023  28.716  14.771 -0.0284 -0.1732 -0.0855
 1100BOLB   C2D26398  13.927  28.236  14.809 -0.0285  0.0656  0.1424
 1100BOLB   C3D26399  13.832  27.845  14.776 -0.0811  0.0324  0.3642
 1100BOLB   C4D26400  13.718  27.455  14.877 -0.3518 -0.0754  0.0611
 1101BOLB   NC126401  13.194  26.013  15.909 -0.1580  0.0592  0.0627
 1101BOLB   PO126402  12.812  26.034  15.813  0.1028 -0.0037  0.0643
 1101BOLB   GL126403  12.881  26.466  15.776 -0.1775 -0.0889 -0.2235
 1101BOLB   GL226404  13.278  26.483  15.932  0.2803 -0.2372 -0.0083
 1101BOLB   C1A26405  13.047  26.857  15.658  0.3967  0.2605  0.2992
 1101BOLB   C2A26406  13.222  27.319  15.613 -0.1965 -0.1342  0.2409
 1101BOLB   C3A26407  13.159  27.661  15.331  0.2258  0.0973  0.3626
 1101BOLB   C4A26408  13.489  27.950  15.127  0.0300  0.0655 -0.2790
 1101BOLB   C1B26409  13.654  26.698  15.741  0.0265 -0.0300  0.2123
 1101BOLB   C2B26410  13.694  26.947  15.424 -0.0635  0.2683 -0.0790
 1101BOLB   C3B26411  13.698  27.367  15.338 -0.0417 -0.1682 -0.0056
 1101BOLB   C4B26412  13.598  27.732  15.652 -0.1542  0.1499  0.2083
 1101BOLB   NC226413  14.033  30.208  15.595 -0.1355  0.3149 -0.0727
 1101BOLB   PO226414  14.117  30.015  15.204  0.1531 -0.2558 -0.2797
 1101BOLB   GL326415  14.091  29.518  15.295 -0.0464 -0.1861  0.1084
 1101BOLB   GL426416  14.222  29.370  15.611 -0.3484  0.0517 -0.2244
 1101BOLB   C1C26417  14.163  29.161  15.111  0.0732  0.1485 -0.1434
 1101BOLB   C2C26418  14.241  28.697  15.281 -0.2204  0.0159  0.1380
 1101BOLB   C3C26419  14.195  28.271  15.309  0.3569 -0.1662  0.4641
 1101BOLB   C4C26420  13.859  27.980  15.221 -0.2112 -0.2907 -0.2527
 1101BOLB   C1D26421  14.532  29.057  15.598  0.0781 -0.1329  0.2121
 1101BOLB   C2D26422  14.678  28.696  15.658 -0.1600 -0.4020 -0.2220
 1101BOLB   C3D26423  14.919  28.421  15.670  0.3046 -0.0378 -0.0870
 1101BOLB   C4D26424  14.959  28.132  15.424 -0.2754  0.0574 -0.1095
 1102BOLB   NC126425  17.233  25.194  15.649 -0.0501  0.1506  0.1946
 1102BOLB   PO126426  17.356  25.105  15.940  0.2599 -0.0986 -0.4449
 1102BOLB   GL126427  17.459  25.539  15.861 -0.0243  0.0588 -0.0460
 1102BOLB   GL226428  17.337  25.890  16.105  0.0581  0.0306  0.2235
 1102BOLB   C1A26429  17.625  25.865  15.553  0.0246  0.1748 -0.0465
 1102BOLB   C2A26430  17.460  26.225  15.419 -0.2204 -0.0577  0.0422
 1102BOLB   C3A26431  17.382  26.573  15.153  0.2447 -0.1845  0.3513
 1102BOLB   C4A26432  17.248  26.951  15.063  0.0117  0.1245  0.2931
 1102BOLB   C1B26433  17.293  26.212  15.865 -0.0040 -0.1023  0.2471
 1102BOLB   C2B26434  17.342  26.617  15.854 -0.0070  0.0363 -0.1154
 1102BOLB   C3B26435  17.282  26.991  15.618  0.1454 -0.1197  0.1362
 1102BOLB   C4B26436  16.834  27.044  15.451 -0.3181 -0.2247 -0.1079
 1102BOLB   NC226437  18.561  28.850  14.005 -0.0229  0.0229  0.0959
 1102BOLB   PO226438  18.459  28.803  14.450  0.0002  0.3280 -0.0158
 1102BOLB   GL326439  18.369  28.464  14.360  0.1151 -0.0005  0.0899
 1102BOLB   GL426440  18.033  28.447  14.486  0.2400  0.0806  0.1408
 1102BOLB   C1C26441  18.352  28.000  14.189 -0.3430 -0.1296  0.0052
 1102BOLB   C2C26442  18.004  27.702  14.218 -0.0016 -0.3298 -0.0082
 1102BOLB   C3C26443  17.713  27.335  14.394 -0.1497  0.3395 -0.2324
 1102BOLB   C4C26444  17.619  27.242  14.823  0.0155  0.2026  0.0845
 1102BOLB   C1D26445  18.117  28.031  14.627 -0.0136  0.3386 -0.1314
 1102BOLB   C2D26446  18.221  27.894  14.970  0.1455  0.0415 -0.0614
 1102BOLB   C3D26447  18.382  27.721  15.342  0.1215  0.4276  0.0449
 1102BOLB   C4D26448  18.755  27.561  15.539  0.1435 -0.2523 -0.1935
 1103BOLB   NC126449  23.000  26.022  15.523  0.2584  0.1358  0.1499
 1103BOLB   PO126450  22.983  25.796  15.173  0.4168  0.1279 -0.1658
 1103BOLB   GL126451  22.436  25.807  15.350 -0.1279  0.2163 -0.1733
 1103BOLB   GL226452  22.350  25.555  15.047  0.5006  0.3915 -0.3380
 1103BOLB   C1A26453  22.020  26.058  15.256 -0.0624  0.1259 -0.0451
 1103BOLB   C2A26454  21.750  26.355  15.090 -0.1003  0.0794 -0.0549
 1103BOLB   C3A26455  21.462  26.649  15.122 -0.0989 -0.1927 -0.1696
 1103BOLB   C4A26456  21.124  26.867  15.141 -0.1873 -0.1214  0.2507
 1103BOLB   C1B26457  22.159  25.916  14.816 -0.0583 -0.0352 -0.0270
 1103BOLB   C2B26458  21.953  26.158  14.605 -0.5058  0.1881  0.1033
 1103BOLB   C3B26459  21.998  26.481  14.358  0.1179 -0.1102 -0.1809
 1103BOLB   C4B26460  22.097  26.853  14.368 -0.0181  0.0362  0.0002
 1103BOLB   NC226461  21.982  28.397  15.983  0.1268  0.1240  0.1351
 1103BOLB   PO226462  22.111  28.017  16.339  0.4234  0.3787 -0.0867
 1103BOLB   GL326463  21.676  28.057  16.483  0.0730  0.1293 -0.2017
 1103BOLB   GL426464  21.345  28.358  16.739  0.1873 -0.1366 -0.0801
 1103BOLB   C1C26465  21.301  27.882  16.332  0.1429  0.1363 -0.2994
 1103BOLB   C2C26466  21.153  27.732  15.892 -0.1008  0.0512 -0.0073
 1103BOLB   C3C26467  21.205  27.713  15.457 -0.1311  0.0551 -0.0742
 1103BOLB   C4C26468  21.017  27.326  15.278  0.2885 -0.0481  0.0556
 1103BOLB   C1D26469  20.931  28.086  16.822 -0.0224 -0.0257 -0.0140
 1103BOLB   C2D26470  20.712  27.695  16.761  0.4501 -0.0827 -0.0934
 1103BOLB   C3D26471  20.551  27.369  16.932  0.0467  0.3189 -0.2243
 1103BOLB   C4D26472  20.504  27.007  17.007 -0.0841  0.0192 -0.2539
 1104BOLB   NC126473  12.694  24.768  13.956 -0.1447 -0.0410 -0.0088
 1104BOLB   PO126474  12.540  25.132  14.219  0.2427  0.2461  0.2569
 1104BOLB   GL126475  12.334  25.472  13.955 -0.1782  0.3095  0.0722
 1104BOLB   GL226476  12.400  25.756  14.197 -0.1127 -0.0255 -0.0008
 1104BOLB   C1A26477  12.177  25.909  13.719  0.1256 -0.0616  0.3135
 1104BOLB   C2A26478  12.494  26.082  13.497  0.0690  0.2394 -0.1619
 1104BOLB   C3A26479  12.767  26.246  13.185 -0.1758  0.0977 -0.1877
 1104BOLB   C4A26480  13.051  26.693  13.121 -0.3299  0.1489  0.2002
 1104BOLB   C1B26481  12.828  25.794  13.904  0.0190  0.3037  0.0971
 1104BOLB   C2B26482  13.083  25.985  13.626  0.1012 -0.2106  0.2427
 1104BOLB   C3B26483  13.243  26.255  13.381  0.0616 -0.0857 -0.0098
 1104BOLB   C4B26484  13.538  26.417  13.159 -0.0340  0.3258 -0.3269
 1104BOLB   NC226485  14.209  28.454  12.275 -0.4045 -0.0543  0.2991
 1104BOLB   PO226486  13.873  28.700  11.959  0.0387 -0.0081  0.1246
 1104BOLB   GL326487  13.769  28.309  12.079 -0.0557 -0.1158 -0.1413
 1104BOLB   GL426488  13.617  28.296  12.403  0.0278 -0.2875  0.1251
 1104BOLB   C1C26489  13.649  27.909  12.069 -0.1605 -0.0010 -0.0516
 1104BOLB   C2C26490  13.595  27.536  12.254 -0.0952  0.4172  0.1001
 1104BOLB   C3C26491  13.425  27.203  12.474  0.6700  0.1892 -0.0543
 1104BOLB   C4C26492  13.186  26.861  12.737  0.1429  0.2897  0.3359
 1104BOLB   C1D26493  13.301  27.939  12.471 -0.3445  0.0521  0.1392
 1104BOLB   C2D26494  13.210  27.787  12.820 -0.0857  0.0997  0.2116
 1104BOLB   C3D26495  12.975  27.439  13.144  0.0925  0.1079  0.1280
 1104BOLB   C4D26496  12.665  27.258  13.404  0.1273  0.2139  0.1033
 1105BOLB   NC126497  16.963  25.679  17.052  0.3266  0.3246  0.0238
 1105BOLB   PO126498  16.814  25.678  16.591 -0.0364 -0.0730  0.1495
 1105BOLB   GL126499  16.675  26.074  16.404  0.0907  0.0726  0.0512
 1105BOLB   GL226500  16.393  25.959  16.322  0.1526  0.1853  0.0901
 1105BOLB   C1A26501  16.554  26.458  16.193 -0.2432  0.2531  0.1332
 1105BOLB   C2A26502  16.423  26.863  16.230 -0.3511 -0.1214 -0.0439
 1105BOLB   C3A26503  16.359  27.316  16.208 -0.1908  0.1817 -0.0522
 1105BOLB   C4A26504  16.533  27.611  16.000  0.1307 -0.3181 -0.0172
 1105BOLB   C1B26505  16.060  26.240  16.158  0.0226 -0.1003 -0.1111
 1105BOLB   C2B26506  16.154  26.549  15.924  0.2083 -0.0826 -0.2602
 1105BOLB   C3B26507  16.341  26.847  15.687  0.3017 -0.0750  0.0579
 1105BOLB   C4B26508  16.366  27.271  15.645 -0.0811  0.0080  0.1161
 1105BOLB   NC226509  16.070  29.919  14.854 -0.4087 -0.4506 -0.1000
 1105BOLB   PO226510  16.391  29.597  14.830 -0.1301  0.0582  0.0847
 1105BOLB   GL326511  16.305  29.256  15.057 -0.0263  0.2043  0.0561
 1105BOLB   GL426512  15.993  29.116  15.122  0.2364 -0.2241  0.0882
 1105BOLB   C1C26513  16.385  29.061  15.449 -0.1922  0.0652  0.3010
 1105BOLB   C2C26514  16.570  28.743  15.750  0.0279 -0.0932 -0.1272
 1105BOLB   C3C26515  16.677  28.431  15.831 -0.2198 -0.2401  0.2060
 1105BOLB   C4C26516  16.772  28.060  15.999 -0.0415 -0.0626  0.2076
 1105BOLB   C1D26517  15.862  28.690  15.017 -0.2029  0.1200  0.1280
 1105BOLB   C2D26518  15.859  28.315  15.251 -0.2151 -0.0631 -0.1490
 1105BOLB   C3D26519  15.772  27.946  15.562 -0.0870 -0.0453 -0.2888
 1105BOLB   C4D26520  15.752  28.170  15.985  0.3299  0.0330  0.2534
 1106BOLB   NC126521  18.659  25.245  16.247 -0.0406 -0.0962 -0.1058
 1106BOLB   PO126522  18.713  25.104  16.676  0.1648  0.1986  0.2904
 1106BOLB   GL126523  18.777  25.535  16.642  0.3462  0.1108 -0.3513
 1106BOLB   GL226524  18.766  25.703  16.938 -0.0983  0.2505 -0.4013
 1106BOLB   C1A26525  18.961  26.025  16.605  0.1370  0.1001  0.1695
 1106BOLB   C2A26526  18.996  26.412  16.762 -0.1790  0.0468  0.0282
 1106BOLB   C3A26527  18.650  26.647  16.746 -0.2317  0.3631 -0.0555
 1106BOLB   C4A26528  18.566  27.060  16.620  0.2034  0.1989  0.0893
 1106BOLB   C1B26529  18.556  26.078  17.065 -0.2139  0.1253 -0.1628
 1106BOLB   C2B26530  18.503  26.517  17.214 -0.4549  0.4275  0.1600
 1106BOLB   C3B26531  18.410  26.928  17.084  0.1586  0.3437  0.1710
 1106BOLB   C4B26532  18.079  27.235  17.182  0.0419  0.0510  0.1457
 1106BOLB   NC226533  18.619  28.937  14.902  0.2476 -0.0511  0.1944
 1106BOLB   PO226534  19.040  28.778  14.992  0.1453  0.1884 -0.0862
 1106BOLB   GL326535  18.755  28.431  14.936 -0.1753  0.0228  0.2135
 1106BOLB   GL426536  18.393  28.468  14.877  0.0937 -0.1128 -0.2435
 1106BOLB   C1C26537  18.566  28.175  15.350  0.2972 -0.1009  0.1130
 1106BOLB   C2C26538  18.874  28.065  15.749  0.2188 -0.0702  0.2396
 1106BOLB   C3C26539  18.832  27.723  16.071  0.0273  0.1175  0.1112
 1106BOLB   C4C26540  18.586  27.498  16.339 -0.1365 -0.0332  0.0485
 1106BOLB   C1D26541  18.072  28.334  15.189 -0.2479 -0.0223 -0.0839
 1106BOLB   C2D26542  17.707  27.967  15.196  0.1736 -0.2574 -0.1197
 1106BOLB   C3D26543  17.426  27.592  15.152 -0.0593  0.2367 -0.0023
 1106BOLB   C4D26544  17.125  27.421  15.175 -0.2609  0.2149  0.0919
 1107BOLB   NC126545  18.174  24.688  16.870 -0.1459 -0.1614 -0.1857
 1107BOLB   PO126546  18.251  24.975  16.481 -0.0020  0.0412 -0.5355
 1107BOLB   GL126547  18.262  25.458  16.466 -0.1452 -0.0867 -0.0696
 1107BOLB   GL226548  18.300  25.720  16.242 -0.0718  0.3720  0.1637
 1107BOLB   C1A26549  18.336  25.829  16.693  0.0945  0.0316  0.1117
 1107BOLB   C2A26550  18.239  26.284  16.590  0.0030 -0.4819 -0.0023
 1107BOLB   C3A26551  18.122  26.731  16.581 -0.2615 -0.1808  0.0900
 1107BOLB   C4A26552  18.108  27.137  16.664  0.5186 -0.1068  0.0759
 1107BOLB   C1B26553  18.702  25.926  16.232  0.0952  0.0795 -0.1679
 1107BOLB   C2B26554  18.652  26.289  16.361 -0.1605 -0.0738  0.0201
 1107BOLB   C3B26555  18.789  26.725  16.231  0.1385 -0.1273 -0.0509
 1107BOLB   C4B26556  18.821  27.144  16.069  0.1619  0.2010 -0.2483
 1107BOLB   NC226557  18.843  29.599  15.955 -0.3085 -0.2406  0.1189
 1107BOLB   PO226558  18.460  29.314  16.061  0.1296 -0.2087  0.4132
 1107BOLB   GL326559  18.168  28.878  16.117 -0.4064  0.1065 -0.4768
 1107BOLB   GL426560  17.829  28.829  15.855 -0.1872 -0.1092  0.0103
 1107BOLB   C1C26561  18.084  28.442  16.148 -0.2075 -0.1388 -0.0010
 1107BOLB   C2C26562  18.000  28.006  16.132 -0.0201 -0.1613  0.1914
 1107BOLB   C3C26563  18.127  27.734  16.392  0.1997 -0.2697 -0.0537
 1107BOLB   C4C26564  17.922  27.465  16.552 -0.0278 -0.4147  0.0878
 1107BOLB   C1D26565  17.535  28.531  15.953  0.0476 -0.0623  0.0240
 1107BOLB   C2D26566  17.458  28.043  16.025 -0.1001 -0.3875 -0.1475
 1107BOLB   C3D26567  17.122  27.686  16.114  0.3138  0.2346  0.0268
 1107BOLB   C4D26568  17.302  27.278  16.061  0.0072 -0.1214 -0.0871
 1108BOLB   NC126569  19.018  23.925  14.199  0.0181  0.1158  0.1339
 1108BOLB   PO126570  18.948  24.255  14.552  0.0171 -0.2557  0.1014
 1108BOLB   GL126571  19.009  24.681  14.464  0.0575 -0.0474 -0.2071
 1108BOLB   GL226572  18.788  24.672  14.213  0.0693  0.0067 -0.0058
 1108BOLB   C1A26573  18.966  25.098  14.365  0.1843  0.0468  0.3338
 1108BOLB   C2A26574  19.013  25.340  13.976 -0.0140  0.0383  0.0137
 1108BOLB   C3A26575  19.041  25.701  13.750  0.3145 -0.0047  0.0868
 1108BOLB   C4A26576  19.083  25.966  13.424  0.3145  0.0282  0.1936
 1108BOLB   C1B26577  18.604  24.945  13.924  0.0963  0.2319  0.1664
 1108BOLB   C2B26578  18.546  25.415  13.965 -0.0867 -0.3208 -0.1600
 1108BOLB   C3B26579  18.453  25.842  13.979  0.1883 -0.0258  0.1765
 1108BOLB   C4B26580  18.789  26.103  13.834  0.0451  0.0813  0.1383
 1108BOLB   NC226581  19.216  28.326  12.632  0.1432  0.0130  0.1268
 1108BOLB   PO226582  19.087  28.169  12.156 -0.1850 -0.1781  0.0553
 1108BOLB   GL326583  18.939  27.866  12.383  0.0123 -0.2108 -0.0785
 1108BOLB   GL426584  18.752  27.754  12.618 -0.1166  0.3081 -0.2350
 1108BOLB   C1C26585  19.151  27.494  12.522  0.3974  0.1365 -0.2877
 1108BOLB   C2C26586  19.050  27.035  12.600 -0.2338 -0.1347 -0.1386
 1108BOLB   C3C26587  19.187  26.613  12.884  0.0164 -0.1009  0.0415
 1108BOLB   C4C26588  19.092  26.252  13.048 -0.1845  0.1841 -0.0651
 1108BOLB   C1D26589  18.877  27.446  12.932  0.1555  0.0886 -0.0507
 1108BOLB   C2D26590  18.834  27.309  13.338 -0.1766 -0.0287 -0.1294
 1108BOLB   C3D26591  18.924  27.062  13.704 -0.1883  0.0118  0.1412
 1108BOLB   C4D26592  18.975  26.592  13.791 -0.2842 -0.1508  0.2539
 1109BOLB   NC126593  22.331  12.686  14.860 -0.4163  0.1020 -0.0071
 1109BOLB   PO126594  21.997  12.514  14.478 -0.3145 -0.0916 -0.2244
 1109BOLB   GL126595  22.214  12.233  14.156 -0.1522 -0.1923  0.1413
 1109BOLB   GL226596  22.381  12.495  13.921  0.1127  0.0660  0.3176
 1109BOLB   C1A26597  22.700  12.188  13.852 -0.2842 -0.1376 -0.2017
 1109BOLB   C2A26598  22.885  11.850  13.638 -0.0827  0.2522 -0.0210
 1109BOLB   C3A26599  22.930  11.437  13.370 -0.1548  0.3010 -0.2705
 1109BOLB   C4A26600  23.133  11.122  13.140 -0.0218  0.0372 -0.0381
 1109BOLB   C1B26601  22.311  12.215  13.545  0.1155 -0.0224 -0.1087
 1109BOLB   C2B26602  22.108  12.168  13.126  0.1587 -0.2307 -0.2315
 1109BOLB   C3B26603  22.312  11.865  12.877  0.0753  0.2533 -0.1779
 1109BOLB   C4B26604  22.540  11.778  12.559  0.1791  0.2235  0.1325
 1109BOLB   NC226605  24.816  11.026  11.082  0.1880  0.1309 -0.1984
 1109BOLB   PO226606  24.613  10.887  11.416  0.0634  0.0546  0.3713
 1109BOLB   GL326607  24.347  10.930  11.758 -0.0818  0.3563  0.3176
 1109BOLB   GL426608  24.334  11.191  11.728 -0.0692 -0.2168  0.1227
 1109BOLB   C1C26609  24.289  10.950  12.199  0.3347 -0.0374 -0.0918
 1109BOLB   C2C26610  23.969  10.854  12.516 -0.2781  0.2692 -0.0809
 1109BOLB   C3C26611  23.605  10.766  12.536  0.2489  0.1966  0.0718
 1109BOLB   C4C26612  23.256  10.910  12.773 -0.5401 -0.4390  0.0754
 1109BOLB   C1D26613  24.323  11.463  12.188  0.3269 -0.2719  0.1706
 1109BOLB   C2D26614  24.096  11.780  12.208  0.2504 -0.2231 -0.2188
 1109BOLB   C3D26615  24.147  12.188  12.304 -0.1100  0.2154 -0.1840
 1109BOLB   C4D26616  24.145  12.520  12.634 -0.2321 -0.2594  0.0769
 1110BOLB   NC126617   9.930  21.959  12.468  0.1123  0.3468  0.1283
 1110BOLB   PO126618   9.548  22.155  12.126  0.0887  0.0240 -0.2062
 1110BOLB   GL126619   9.343  22.316  11.693 -0.1506  0.1709 -0.2028
 1110BOLB   GL226620   9.476  22.651  11.602 -0.0726 -0.1961 -0.2033
 1110BOLB   C1A26621   9.172  22.342  11.206 -0.1087  0.1058  0.3402
 1110BOLB   C2A26622   9.106  22.252  10.849  0.0384 -0.1486 -0.0361
 1110BOLB   C3A26623   9.095  22.098  10.474  0.0151 -0.3500  0.1222
 1110BOLB   C4A26624   9.237  22.043  10.109  0.1493  0.0028  0.1077
 1110BOLB   C1B26625   9.576  22.900  11.284 -0.4528  0.1458 -0.1797
 1110BOLB   C2B26626   9.454  22.970  10.764  0.2904 -0.0209  0.0661
 1110BOLB   C3B26627   9.473  22.974  10.288 -0.2248 -0.2429 -0.3029
 1110BOLB   C4B26628   9.408  22.764   9.850  0.2090  0.2165 -0.1047
 1110BOLB   NC226629   8.625  22.698   7.934 -0.0536  0.2523  0.2655
 1110BOLB   PO226630   8.547  22.379   7.788  0.0513 -0.1047 -0.0026
 1110BOLB   GL326631   8.701  22.170   8.060 -0.2870 -0.0417  0.0291
 1110BOLB   GL426632   8.597  22.382   8.363  0.0406  0.0006 -0.2789
 1110BOLB   C1C26633   8.939  21.961   8.437  0.1678 -0.2182 -0.1730
 1110BOLB   C2C26634   9.089  21.870   8.866  0.0406  0.0338  0.0702
 1110BOLB   C3C26635   8.982  21.854   9.250  0.1014  0.1487  0.0743
 1110BOLB   C4C26636   9.104  21.933   9.657 -0.1797 -0.2338  0.0802
 1110BOLB   C1D26637   8.925  22.444   8.523  0.0584  0.1178  0.2216
 1110BOLB   C2D26638   9.321  22.369   8.570 -0.2801 -0.1802  0.3889
 1110BOLB   C3D26639   9.635  22.648   8.737 -0.2916  0.2842 -0.0067
 1110BOLB   C4D26640  10.019  23.006   8.591  0.1012 -0.1536  0.1804
 1111BOLB   NC126641  16.865  16.487   9.971  0.0165  0.0869 -0.0406
 1111BOLB   PO126642  17.086  16.713   9.829  0.2778  0.2287 -0.2628
 1111BOLB   GL126643  17.117  16.805   9.454  0.0694 -0.1206  0.4650
 1111BOLB   GL226644  16.876  17.049   9.266  0.2111  0.1175 -0.0138
 1111BOLB   C1A26645  17.083  16.811   8.966  0.1284 -0.2491 -0.2199
 1111BOLB   C2A26646  16.692  16.887   8.699  0.0791 -0.1109 -0.0519
 1111BOLB   C3A26647  16.672  16.874   8.307  0.1270 -0.0232  0.2359
 1111BOLB   C4A26648  16.798  17.120   8.040 -0.2799  0.1378  0.1034
 1111BOLB   C1B26649  17.025  17.282   8.933 -0.1766 -0.3283 -0.1261
 1111BOLB   C2B26650  17.066  17.166   8.455 -0.0893 -0.2671 -0.5101
 1111BOLB   C3B26651  17.274  17.185   8.092  0.0941  0.1645 -0.2334
 1111BOLB   C4B26652  17.316  16.835   7.799  0.2841  0.1603 -0.1415
 1111BOLB   NC226653  16.145  17.686   5.695 -0.2256  0.1054  0.1331
 1111BOLB   PO226654  16.323  17.980   5.923 -0.1439  0.2481 -0.4328
 1111BOLB   GL326655  16.280  17.983   6.307  0.2349  0.0743 -0.1899
 1111BOLB   GL426656  16.222  18.271   6.386  0.1452  0.2325 -0.0912
 1111BOLB   C1C26657  16.460  17.927   6.755 -0.1700  0.0216 -0.1341
 1111BOLB   C2C26658  16.311  17.787   7.180 -0.0393 -0.0188 -0.0857
 1111BOLB   C3C26659  16.215  17.523   7.459 -0.0762  0.2064  0.1996
 1111BOLB   C4C26660  16.487  17.200   7.715 -0.2911 -0.1650  0.2853
 1111BOLB   C1D26661  16.110  18.206   6.856  0.3229 -0.1312  0.1621
 1111BOLB   C2D26662  15.824  18.252   7.235 -0.0482  0.1534 -0.0315
 1111BOLB   C3D26663  15.458  18.129   7.454  0.0675 -0.0513  0.1002
 1111BOLB   C4D26664  15.263  18.280   7.924  0.1828 -0.1280  0.2821
 1112BOLB   NC126665  21.331  11.479  15.005 -0.1886  0.1019  0.0188
 1112BOLB   PO126666  21.557  11.146  15.120  0.1708  0.2049  0.0817
 1112BOLB   GL126667  21.845  10.907  14.939  0.0528 -0.1181  0.1368
 1112BOLB   GL226668  22.084  11.034  15.176 -0.0942  0.2929 -0.0599
 1112BOLB   C1A26669  22.104  10.530  14.780  0.1529 -0.0578 -0.0684
 1112BOLB   C2A26670  22.368  10.113  14.702  0.1456 -0.0178  0.0515
 1112BOLB   C3A26671  22.582   9.851  14.644 -0.1134  0.2489  0.1174
 1112BOLB   C4A26672  22.855   9.531  14.765 -0.1819 -0.1181 -0.0642
 1112BOLB   C1B26673  22.372  10.760  15.129  0.0422  0.0810  0.1757
 1112BOLB   C2B26674  22.570  10.512  15.042 -0.0513  0.2518  0.1040
 1112BOLB   C3B26675  22.823  10.124  14.989 -0.2342 -0.0513 -0.4806
 1112BOLB   C4B26676  23.123  10.012  14.645  0.0706  0.0180  0.0421
 1112BOLB   NC226677  24.448   8.124  14.892 -0.0455 -0.0917  0.1079
 1112BOLB   PO226678  24.481   8.059  15.266 -0.2209  0.0297 -0.0076
 1112BOLB   GL326679  24.279   8.362  15.323 -0.1347 -0.2473 -0.0932
 1112BOLB   GL426680  24.363   8.592  15.190  0.1718  0.3331  0.4357
 1112BOLB   C1C26681  23.850   8.451  15.243  0.1186 -0.0400  0.1056
 1112BOLB   C2C26682  23.658   8.725  15.247  0.2249 -0.0825 -0.2117
 1112BOLB   C3C26683  23.605   9.104  15.115  0.0130 -0.0096  0.2218
 1112BOLB   C4C26684  23.278   9.337  14.957  0.0008  0.0419  0.1510
 1112BOLB   C1D26685  24.075   8.833  15.488  0.1318  0.2133  0.2744
 1112BOLB   C2D26686  23.676   9.133  15.706 -0.2013 -0.1006 -0.2401
 1112BOLB   C3D26687  23.524   9.235  16.026  0.1165 -0.0574 -0.2841
 1112BOLB   C4D26688  23.332   9.592  16.258 -0.2858  0.4513  0.0628
 1113BOLB   NC126689  12.328  20.869  10.811  0.4173 -0.2460  0.3197
 1113BOLB   PO126690  12.497  20.406  10.675  0.1121 -0.3994 -0.0971
 1113BOLB   GL126691  12.352  20.667  10.327  0.5371 -0.1309  0.0910
 1113BOLB   GL226692  12.643  20.858  10.379 -0.1009  0.3026  0.0468
 1113BOLB   C1A26693  12.360  20.863   9.928 -0.3150  0.3021 -0.0364
 1113BOLB   C2A26694  12.548  21.179   9.595 -0.1784  0.1625  0.2547
 1113BOLB   C3A26695  12.430  21.250   9.078  0.0274 -0.2197  0.2293
 1113BOLB   C4A26696  12.115  21.257   8.787 -0.0740 -0.2521  0.2447
 1113BOLB   C1B26697  12.771  21.205  10.075 -0.1538 -0.3222  0.1024
 1113BOLB   C2B26698  12.722  21.635   9.817 -0.0136  0.1309  0.2865
 1113BOLB   C3B26699  12.823  21.907   9.535  0.1456 -0.0502 -0.0656
 1113BOLB   C4B26700  13.117  22.134   9.257 -0.0078  0.1125 -0.0845
 1113BOLB   NC226701  11.041  21.723   7.019  0.0994  0.0033  0.0240
 1113BOLB   PO226702  10.756  21.628   7.281  0.1564  0.0174  0.2312
 1113BOLB   GL326703  11.011  21.454   7.624 -0.1630  0.4702  0.0192
 1113BOLB   GL426704  10.991  21.126   7.396 -0.1599  0.1421 -0.1061
 1113BOLB   C1C26705  11.053  21.285   8.027 -0.1397 -0.0859  0.0560
 1113BOLB   C2C26706  11.132  21.223   8.420  0.0779  0.2126 -0.0353
 1113BOLB   C3C26707  11.486  21.007   8.454  0.0174  0.0769 -0.2196
 1113BOLB   C4C26708  11.881  20.869   8.687 -0.0279 -0.2560  0.1418
 1113BOLB   C1D26709  11.178  20.897   7.653 -0.0718 -0.0554  0.0411
 1113BOLB   C2D26710  11.398  20.696   8.033 -0.2193  0.1986 -0.3097
 1113BOLB   C3D26711  11.690  20.577   8.354  0.0333  0.1378 -0.3165
 1113BOLB   C4D26712  11.736  20.357   8.610 -0.0725  0.0208  0.0450
 1114BOLB   NC126713  12.895  19.585  10.442 -0.2261 -0.0917 -0.2946
 1114BOLB   PO126714  12.600  19.747  10.738  0.1943  0.0674  0.1234
 1114BOLB   GL126715  12.310  20.000  10.420  0.1565 -0.3449 -0.3828
 1114BOLB   GL226716  12.620  20.087  10.248  0.0163  0.1082  0.1053
 1114BOLB   C1A26717  12.150  20.172   9.982  0.1045 -0.3089  0.1182
 1114BOLB   C2A26718  12.054  20.124   9.591 -0.2791  0.1082 -0.4036
 1114BOLB   C3A26719  11.920  19.937   9.271 -0.1212 -0.1039 -0.1377
 1114BOLB   C4A26720  11.859  19.926   8.879 -0.0871  0.2087  0.2564
 1114BOLB   C1B26721  12.647  20.393  10.036  0.1166  0.0174 -0.1479
 1114BOLB   C2B26722  12.432  20.512   9.621 -0.2922 -0.0663  0.0336
 1114BOLB   C3B26723  12.379  20.336   9.236  0.1908  0.0557 -0.0587
 1114BOLB   C4B26724  12.269  20.259   8.797  0.1009  0.0231 -0.0990
 1114BOLB   NC226725  11.561  19.829   6.867  0.0690 -0.4760  0.1194
 1114BOLB   PO226726  11.849  19.671   6.657  0.2574  0.1770 -0.1691
 1114BOLB   GL326727  12.182  19.434   6.897  0.0120  0.4611  0.3304
 1114BOLB   GL426728  12.016  19.080   6.882  0.0303 -0.0021  0.4062
 1114BOLB   C1C26729  12.343  19.252   7.333 -0.0222  0.3398 -0.2138
 1114BOLB   C2C26730  12.520  19.406   7.712  0.1273  0.2279 -0.0951
 1114BOLB   C3C26731  12.501  19.618   8.201  0.0905  0.0217  0.1509
 1114BOLB   C4C26732  12.139  19.942   8.464 -0.0593 -0.1028 -0.2572
 1114BOLB   C1D26733  12.104  18.683   6.992  0.2508  0.3535  0.0378
 1114BOLB   C2D26734  12.435  18.431   7.180 -0.2400  0.2868 -0.3055
 1114BOLB   C3D26735  12.798  18.139   7.412 -0.1010  0.1300 -0.4426
 1114BOLB   C4D26736  13.223  17.971   7.353 -0.0739  0.2667 -0.5759
 1115BOLB   NC126737  16.212  22.716  11.958  0.1998  0.3144 -0.0171
 1115BOLB   PO126738  15.860  22.763  11.791 -0.0953 -0.5652 -0.1177
 1115BOLB   GL126739  15.661  23.088  11.562 -0.0353  0.0008 -0.0162
 1115BOLB   GL226740  15.542  23.286  11.732 -0.4109 -0.2697  0.0425
 1115BOLB   C1A26741  15.711  23.435  11.210  0.0373  0.1654  0.2329
 1115BOLB   C2A26742  15.660  23.638  10.863  0.1637  0.0074  0.0554
 1115BOLB   C3A26743  15.461  23.785  10.564  0.0791 -0.0405 -0.1258
 1115BOLB   C4A26744  15.497  24.151  10.320 -0.0759 -0.1655  0.0965
 1115BOLB   C1B26745  15.459  23.712  11.556 -0.0158 -0.0640 -0.2036
 1115BOLB   C2B26746  15.396  24.164  11.369 -0.1945  0.1052 -0.1827
 1115BOLB   C3B26747  15.402  24.533  11.276  0.0280  0.1732 -0.2903
 1115BOLB   C4B26748  15.544  24.873  11.031 -0.0314  0.1860  0.2852
 1115BOLB   NC226749  15.955  26.880   9.720  0.0181  0.0110 -0.0236
 1115BOLB   PO226750  16.173  26.468   9.802  0.4401  0.2241 -0.3142
 1115BOLB   GL326751  16.013  26.203  10.167  0.0587 -0.5041  0.2058
 1115BOLB   GL426752  16.138  26.150  10.499  0.0018 -0.0706 -0.0279
 1115BOLB   C1C26753  15.757  25.831  10.322 -0.3030  0.0828  0.2895
 1115BOLB   C2C26754  15.552  25.474  10.202  0.2178 -0.0909  0.0225
 1115BOLB   C3C26755  15.288  24.992  10.102  0.2510  0.2344 -0.2935
 1115BOLB   C4C26756  15.417  24.610  10.235  0.3144  0.1759  0.2308
 1115BOLB   C1D26757  16.541  26.101  10.666 -0.2066 -0.0633 -0.4555
 1115BOLB   C2D26758  16.570  25.600  10.910 -0.0633 -0.0472  0.5114
 1115BOLB   C3D26759  16.901  25.237  10.927  0.4646 -0.1136  0.0653
 1115BOLB   C4D26760  17.103  24.862  11.061 -0.1458  0.2834 -0.0785
 1116BOLB   NC126761  13.514  13.354  11.194  0.1928  0.2095 -0.1661
 1116BOLB   PO126762  13.587  13.268  10.755  0.1891  0.0709  0.0508
 1116BOLB   GL126763  13.590  13.030  10.306 -0.0782  0.0152  0.2904
 1116BOLB   GL226764  13.823  12.895  10.210  0.0268 -0.1418  0.1736
 1116BOLB   C1A26765  13.559  13.128   9.867  0.1018  0.2861 -0.0176
 1116BOLB   C2A26766  13.498  12.856   9.587 -0.1369  0.1595  0.0956
 1116BOLB   C3A26767  13.683  12.800   9.082  0.0738  0.1317  0.2407
 1116BOLB   C4A26768  13.675  12.629   8.634 -0.1492  0.1654  0.0807
 1116BOLB   C1B26769  13.878  12.669   9.977 -0.1340  0.0706  0.0709
 1116BOLB   C2B26770  13.886  12.562   9.599  0.1771 -0.0364  0.0758
 1116BOLB   C3B26771  14.102  12.462   9.163  0.0278 -0.0899 -0.0872
 1116BOLB   C4B26772  14.378  12.263   8.767 -0.1581 -0.3508 -0.3554
 1116BOLB   NC226773  14.533  11.836   6.462 -0.0155 -0.1088 -0.0043
 1116BOLB   PO226774  14.497  11.495   6.798  0.0267 -0.0598 -0.0047
 1116BOLB   GL326775  14.360  11.524   7.288 -0.2679  0.1358  0.0357
 1116BOLB   GL426776  14.253  11.326   7.312  0.2940  0.4182  0.2558
 1116BOLB   C1C26777  14.053  11.735   7.548 -0.0726  0.0251 -0.2291
 1116BOLB   C2C26778  13.923  12.014   7.695  0.2046  0.0316 -0.1186
 1116BOLB   C3C26779  13.873  12.369   7.901 -0.0033 -0.2721  0.2255
 1116BOLB   C4C26780  13.745  12.663   8.267  0.2103  0.2835 -0.0598
 1116BOLB   C1D26781  14.205  11.170   7.766  0.1322  0.5160  0.1545
 1116BOLB   C2D26782  14.401  11.394   8.156 -0.2354  0.2088 -0.0549
 1116BOLB   C3D26783  14.725  11.643   8.286 -0.5767 -0.5760 -0.2392
 1116BOLB   C4D26784  14.751  12.034   8.380  0.1642  0.2150 -0.0406
 1117BOLB   NC126785  11.663  24.223  13.326  0.2021  0.0275  0.1768
 1117BOLB   PO126786  11.587  24.725  13.249  0.0364 -0.1704  0.1394
 1117BOLB   GL126787  11.736  24.806  12.882 -0.0911  0.2104  0.0154
 1117BOLB   GL226788  11.793  24.634  12.543  0.0772 -0.0463 -0.3758
 1117BOLB   C1A26789  11.725  25.154  12.554 -0.2170  0.3600  0.0716
 1117BOLB   C2A26790  11.824  25.412  12.341 -0.6234  0.3059 -0.1027
 1117BOLB   C3A26791  12.159  25.354  12.066 -0.1293  0.1330  0.0722
 1117BOLB   C4A26792  12.494  25.514  11.779 -0.1039  0.1051 -0.3761
 1117BOLB   C1B26793  11.925  24.861  12.202 -0.0181  0.1297  0.1570
 1117BOLB   C2B26794  12.398  25.001  11.896  0.1803  0.3533  0.2071
 1117BOLB   C3B26795  12.663  25.029  11.472  0.1280  0.1617 -0.1150
 1117BOLB   C4B26796  12.701  25.239  11.018  0.0876 -0.1574  0.0377
 1117BOLB   NC226797  14.172  26.398  10.034  0.3743 -0.0593  0.0170
 1117BOLB   PO226798  13.802  26.509   9.913 -0.1724 -0.4858  0.0831
 1117BOLB   GL326799  13.452  26.312  10.015  0.0502  0.0223 -0.1533
 1117BOLB   GL426800  13.340  25.965  10.006  0.1416  0.1576  0.0479
 1117BOLB   C1C26801  13.306  26.198  10.449  0.2115  0.0047  0.1084
 1117BOLB   C2C26802  13.185  25.918  10.711  0.1996  0.3158 -0.3940
 1117BOLB   C3C26803  12.962  25.760  11.086 -0.2684  0.0121  0.0267
 1117BOLB   C4C26804  12.754  25.698  11.504 -0.1468  0.2389  0.2205
 1117BOLB   C1D26805  13.719  25.604  10.151 -0.1377 -0.2658  0.0676
 1117BOLB   C2D26806  13.796  25.591  10.675  0.1414  0.1038  0.0500
 1117BOLB   C3D26807  13.950  25.618  10.992  0.1586  0.3973  0.2139
 1117BOLB   C4D26808  14.188  25.407  11.154  0.1089  0.1593 -0.1095
 1118BOLB   NC126809  13.210  23.681  12.407 -0.3113  0.3314  0.0285
 1118BOLB   PO126810  13.251  23.888  12.713 -0.1629  0.3068  0.1183
 1118BOLB   GL126811  13.250  24.169  12.371  0.0660  0.0021  0.1986
 1118BOLB   GL226812  13.571  24.275  12.485 -0.0044 -0.0146 -0.0742
 1118BOLB   C1A26813  13.231  24.290  11.881 -0.2745 -0.0466  0.3183
 1118BOLB   C2A26814  13.256  24.200  11.357  0.0951 -0.3134  0.1369
 1118BOLB   C3A26815  13.296  24.284  10.957  0.0001 -0.5121 -0.0437
 1118BOLB   C4A26816  13.026  24.416  10.721  0.3227  0.0444  0.0148
 1118BOLB   C1B26817  13.678  24.128  12.076  0.2757 -0.1453 -0.0811
 1118BOLB   C2B26818  13.572  23.923  11.685 -0.0620 -0.3249  0.0351
 1118BOLB   C3B26819  13.799  24.055  11.228 -0.1923 -0.4463  0.0717
 1118BOLB   C4B26820  13.799  24.402  11.017 -0.2896  0.0652 -0.2082
 1118BOLB   NC226821  13.480  25.746   8.710  0.0844  0.0685  0.0864
 1118BOLB   PO226822  13.893  25.665   8.784  0.2309  0.0294  0.3069
 1118BOLB   GL326823  13.633  25.486   9.161  0.1185  0.0288 -0.2097
 1118BOLB   GL426824  13.234  25.504   9.079  0.2469 -0.1451 -0.0379
 1118BOLB   C1C26825  13.490  25.192   9.439  0.1130  0.2258 -0.0243
 1118BOLB   C2C26826  13.356  24.960   9.687 -0.3238  0.0080  0.1599
 1118BOLB   C3C26827  13.086  24.716   9.992  0.1137 -0.2376 -0.0721
 1118BOLB   C4C26828  13.200  24.655  10.413 -0.2807 -0.1051  0.0153
 1118BOLB   C1D26829  12.932  25.408   9.475 -0.0743  0.0561  0.2779
 1118BOLB   C2D26830  12.797  25.189   9.930 -0.0468 -0.0410 -0.0849
 1118BOLB   C3D26831  12.944  25.166  10.304 -0.0613 -0.0764 -0.1860
 1118BOLB   C4D26832  13.028  25.012  10.755  0.1401  0.0349  0.0466
 1119BOLB   NC126833  10.996  17.525  10.568  0.2952 -0.0228  0.1077
 1119BOLB   PO126834  10.884  18.007  10.439 -0.5686 -0.0170  0.0281
 1119BOLB   GL126835  10.848  18.146  10.057 -0.1210  0.2950 -0.0351
 1119BOLB   GL226836  11.193  18.165   9.889  0.1396  0.1850  0.2458
 1119BOLB   C1A26837  10.563  18.289   9.698  0.0391 -0.0975  0.1094
 1119BOLB   C2A26838  10.499  18.199   9.320  0.2398  0.1338 -0.2022
 1119BOLB   C3A26839  10.288  17.867   9.008  0.0030 -0.1414 -0.0200
 1119BOLB   C4A26840  10.184  17.657   8.636  0.0504  0.1331  0.0438
 1119BOLB   C1B26841  11.090  18.236   9.587  0.1186 -0.1256 -0.2175
 1119BOLB   C2B26842  11.049  18.066   9.256  0.1543  0.2123 -0.0413
 1119BOLB   C3B26843  10.968  17.809   8.990  0.0083 -0.4941 -0.3599
 1119BOLB   C4B26844  10.700  17.626   8.615 -0.0035  0.2525  0.4548
 1119BOLB   NC226845   8.358  16.949   6.485 -0.2387 -0.0478  0.2515
 1119BOLB   PO226846   8.562  17.058   6.927  0.2906 -0.0688 -0.0770
 1119BOLB   GL326847   8.504  16.999   7.417  0.1681  0.1284 -0.1639
 1119BOLB   GL426848   8.279  17.171   7.627 -0.0610  0.0143  0.1719
 1119BOLB   C1C26849   8.860  16.998   7.757  0.0009 -0.0487 -0.0229
 1119BOLB   C2C26850   9.360  17.030   7.786  0.1075 -0.2543  0.0583
 1119BOLB   C3C26851   9.734  17.414   7.800  0.1762  0.1963 -0.1150
 1119BOLB   C4C26852  10.055  17.362   8.220  0.4200 -0.0494  0.0848
 1119BOLB   C1D26853   8.610  17.444   7.803  0.0440 -0.0087  0.0661
 1119BOLB   C2D26854   9.050  17.349   8.141  0.0886 -0.1323  0.0272
 1119BOLB   C3D26855   9.481  17.300   8.224  0.0821 -0.2410 -0.1997
 1119BOLB   C4D26856   9.742  16.899   8.199 -0.3497  0.2550 -0.1701
 1120BOLB   NC126857  21.003  13.407  12.835  0.1666  0.1180  0.1849
 1120BOLB   PO126858  20.961  13.022  12.742  0.0704 -0.3711  0.0842
 1120BOLB   GL126859  20.998  12.902  12.312  0.4366 -0.0351 -0.1779
 1120BOLB   GL226860  20.747  12.731  12.113  0.1752 -0.1194 -0.0252
 1120BOLB   C1A26861  21.314  12.813  12.029  0.1956  0.2366 -0.0490
 1120BOLB   C2A26862  21.603  12.755  11.676 -0.3629  0.0026 -0.3149
 1120BOLB   C3A26863  21.727  12.548  11.345 -0.0525 -0.3220 -0.0171
 1120BOLB   C4A26864  21.782  12.134  11.210 -0.1734 -0.1441  0.0050
 1120BOLB   C1B26865  20.912  12.541  11.743  0.1529  0.0833  0.1514
 1120BOLB   C2B26866  21.204  12.581  11.448  0.1693  0.0977  0.3236
 1120BOLB   C3B26867  21.390  12.358  11.074  0.0950 -0.1269 -0.0257
 1120BOLB   C4B26868  21.485  12.280  10.640  0.2127 -0.0016 -0.2702
 1120BOLB   NC226869  22.078  10.181   9.497  0.1762 -0.2118  0.1474
 1120BOLB   PO226870  22.037  10.625   9.662  0.1336 -0.1820 -0.0635
 1120BOLB   GL326871  21.793  10.966   9.748 -0.3531  0.0574  0.0370
 1120BOLB   GL426872  21.361  11.035   9.796  0.0833 -0.1025  0.2528
 1120BOLB   C1C26873  21.655  11.136  10.228  0.2058 -0.1802  0.2176
 1120BOLB   C2C26874  21.507  11.147  10.673  0.0955 -0.1698 -0.4313
 1120BOLB   C3C26875  21.826  11.236  11.005  0.0451 -0.0734 -0.0877
 1120BOLB   C4C26876  21.844  11.618  11.162  0.0390  0.0367  0.1391
 1120BOLB   C1D26877  20.881  11.044   9.776 -0.1725  0.0686  0.0232
 1120BOLB   C2D26878  20.397  11.016   9.526  0.1245  0.2102 -0.0010
 1120BOLB   C3D26879  20.034  10.857   9.645  0.2958 -0.1988  0.3006
 1120BOLB   C4D26880  19.717  10.857   9.992  0.0491  0.3486 -0.3010
 1121BOLB   NC126881  10.816   9.965  11.759  0.2326  0.2611  0.1431
 1121BOLB   PO126882  11.215  10.250  11.703  0.1370 -0.1393  0.1111
 1121BOLB   GL126883  11.147   9.998  11.372  0.1163 -0.2705 -0.0463
 1121BOLB   GL226884  11.547   9.957  11.391  0.1075 -0.2794  0.0540
 1121BOLB   C1A26885  10.917   9.902  11.040  0.3162  0.2679  0.2504
 1121BOLB   C2A26886  11.156   9.748  10.763 -0.2258 -0.0459 -0.1951
 1121BOLB   C3A26887  11.417   9.738  10.496 -0.1067 -0.3074  0.0000
 1121BOLB   C4A26888  11.656   9.733  10.046 -0.2897 -0.2525  0.0697
 1121BOLB   C1B26889  11.467   9.586  11.153  0.1479  0.3350 -0.0026
 1121BOLB   C2B26890  11.061   9.284  10.842 -0.0265 -0.3023 -0.0636
 1121BOLB   C3B26891  11.097   9.275  10.420  0.1139  0.4910 -0.1534
 1121BOLB   C4B26892  11.344   9.403   9.950 -0.2142 -0.0384  0.0993
 1121BOLB   NC226893  11.824   8.249   7.812  0.2617 -0.0649  0.0398
 1121BOLB   PO226894  11.524   8.489   7.832  0.1928 -0.0271  0.1259
 1121BOLB   GL326895  11.738   8.691   8.079  0.2241 -0.0513 -0.0181
 1121BOLB   GL426896  11.761   9.076   8.009  0.0543 -0.0707  0.2295
 1121BOLB   C1C26897  11.853   8.820   8.502  0.3216  0.1827 -0.2017
 1121BOLB   C2C26898  12.062   9.022   8.990  0.0837  0.3471  0.1540
 1121BOLB   C3C26899  11.852   9.149   9.345 -0.4218 -0.4716 -0.1643
 1121BOLB   C4C26900  11.810   9.566   9.643 -0.2115  0.0788  0.3052
 1121BOLB   C1D26901  11.677   9.278   8.354 -0.0850  0.1024  0.3521
 1121BOLB   C2D26902  11.651   9.365   8.833 -0.2084 -0.1429 -0.1683
 1121BOLB   C3D26903  11.445   9.418   9.221 -0.2625  0.0576  0.3207
 1121BOLB   C4D26904  11.127   9.370   9.476 -0.1187  0.1211  0.2143
 1122BOLB   NC126905  17.141  15.112  10.360  0.0347  0.2501 -0.0429
 1122BOLB   PO126906  16.725  14.828  10.280 -0.1956 -0.1496  0.2453
 1122BOLB   GL126907  16.544  14.536   9.951 -0.0991  0.0053 -0.3367
 1122BOLB   GL226908  16.629  14.249  10.012 -0.1489  0.2725  0.1321
 1122BOLB   C1A26909  16.337  14.302   9.603 -0.2304  0.2645 -0.0252
 1122BOLB   C2A26910  16.499  13.986   9.298 -0.0477 -0.0247 -0.5020
 1122BOLB   C3A26911  16.679  14.056   8.945  0.0835 -0.2508 -0.2196
 1122BOLB   C4A26912  17.142  14.176   8.775  0.3492  0.1326 -0.0760
 1122BOLB   C1B26913  16.857  14.239   9.626  0.2487  0.0117 -0.0111
 1122BOLB   C2B26914  17.202  14.289   9.328 -0.2305  0.1175 -0.0523
 1122BOLB   C3B26915  17.528  14.297   9.043 -0.0817  0.0862 -0.0571
 1122BOLB   C4B26916  17.832  14.269   8.638  0.1666  0.1352  0.0142
 1122BOLB   NC226917  18.771  13.430   6.879 -0.2487 -0.2607  0.0611
 1122BOLB   PO226918  18.500  13.366   7.116  0.0921  0.0651  0.0123
 1122BOLB   GL326919  18.383  13.515   7.513  0.2405 -0.1582 -0.1406
 1122BOLB   GL426920  18.590  13.361   7.661  0.1908  0.3811 -0.1226
 1122BOLB   C1C26921  18.144  13.877   7.580 -0.2572  0.2587  0.0208
 1122BOLB   C2C26922  17.749  14.125   7.705  0.0014 -0.0850  0.2381
 1122BOLB   C3C26923  17.584  13.991   8.046  0.1537 -0.1347 -0.3714
 1122BOLB   C4C26924  17.340  14.001   8.459 -0.0608  0.0740 -0.0245
 1122BOLB   C1D26925  18.270  13.049   7.616  0.0749 -0.0258  0.3015
 1122BOLB   C2D26926  17.852  12.942   7.540  0.0320 -0.0562  0.1590
 1122BOLB   C3D26927  17.536  12.646   7.524 -0.2991  0.0845  0.2207
 1122BOLB   C4D26928  17.168  12.548   7.560 -0.0455  0.1902 -0.2553
 1123BOLB   NC126929  17.361  11.870  11.906 -0.1921  0.0873  0.1870
 1123BOLB   PO126930  17.369  11.921  11.485 -0.0393  0.3039  0.1411
 1123BOLB   GL126931  17.729  11.999  11.271  0.0316 -0.1725  0.1787
 1123BOLB   GL226932  17.690  12.291  11.134  0.0108  0.1507 -0.1183
 1123BOLB   C1A26933  17.698  11.787  10.836 -0.1303 -0.2767  0.3747
 1123BOLB   C2A26934  17.649  11.443  10.460  0.0051  0.2579 -0.0612
 1123BOLB   C3A26935  17.955  11.138  10.359 -0.4642  0.0910 -0.2174
 1123BOLB   C4A26936  18.099  11.010  10.029  0.2142 -0.0051 -0.0105
 1123BOLB   C1B26937  17.929  12.227  10.786  0.1212 -0.3793  0.2282
 1123BOLB   C2B26938  18.181  12.056  10.418 -0.0202 -0.3163 -0.0403
 1123BOLB   C3B26939  18.264  12.104   9.996  0.1103 -0.0933 -0.2492
 1123BOLB   C4B26940  18.005  11.983   9.761  0.3402 -0.0853  0.0323
 1123BOLB   NC226941  17.829   9.935   7.934 -0.1403  0.4677  0.0236
 1123BOLB   PO226942  18.250   9.975   8.107  0.0466  0.0539  0.2426
 1123BOLB   GL326943  18.037  10.159   8.412  0.2782  0.1246 -0.3260
 1123BOLB   GL426944  18.083  10.560   8.414 -0.4199 -0.0544 -0.1434
 1123BOLB   C1C26945  18.071  10.220   8.744  0.1797  0.3059  0.0903
 1123BOLB   C2C26946  18.010  10.308   9.161 -0.0125 -0.3069 -0.0433
 1123BOLB   C3C26947  18.154  10.618   9.459 -0.2592 -0.1590  0.1216
 1123BOLB   C4C26948  18.109  10.896   9.671 -0.0907 -0.0724  0.1354
 1123BOLB   C1D26949  17.795  10.998   8.561 -0.1356  0.1144  0.0853
 1123BOLB   C2D26950  17.616  11.288   8.891 -0.2252  0.0318  0.2475
 1123BOLB   C3D26951  17.520  11.258   9.311 -0.3019 -0.1162  0.0339
 1123BOLB   C4D26952  17.140  11.277   9.629 -0.0868 -0.0024  0.3945
 1124BOLB   NC126953  21.813  12.172  15.190 -0.0786  0.1229 -0.0322
 1124BOLB   PO126954  21.741  11.894  14.875 -0.0785  0.0367 -0.2331
 1124BOLB   GL126955  21.700  11.546  14.517  0.0838 -0.1973 -0.1448
 1124BOLB   GL226956  21.927  11.525  14.173  0.1452 -0.1010 -0.1275
 1124BOLB   C1A26957  21.773  11.022  14.457 -0.1094  0.0391  0.0442
 1124BOLB   C2A26958  22.001  10.696  14.266 -0.0149  0.2735 -0.2055
 1124BOLB   C3A26959  22.327  10.340  14.281 -0.0471  0.3412  0.3548
 1124BOLB   C4A26960  22.409   9.937  14.136 -0.0140  0.2194 -0.1472
 1124BOLB   C1B26961  22.065  11.344  13.769  0.2019 -0.0549 -0.0163
 1124BOLB   C2B26962  22.123  11.052  13.389  0.0973 -0.0589 -0.1320
 1124BOLB   C3B26963  22.117  11.009  12.900 -0.3808 -0.0186  0.1316
 1124BOLB   C4B26964  21.943  10.831  12.509  0.2733  0.0344 -0.0857
 1124BOLB   NC226965  23.656   7.491  13.765  0.0717 -0.1713 -0.0763
 1124BOLB   PO226966  23.256   7.697  13.810 -0.0233  0.0196 -0.1682
 1124BOLB   GL326967  22.880   7.820  13.743 -0.0602 -0.0962  0.1939
 1124BOLB   GL426968  22.514   7.701  13.840  0.0918 -0.1164  0.0988
 1124BOLB   C1C26969  22.835   8.229  13.763  0.3536 -0.1336  0.1288
 1124BOLB   C2C26970  22.626   8.670  13.893  0.1394  0.0341  0.2287
 1124BOLB   C3C26971  22.446   9.084  13.966 -0.2497  0.1025  0.1247
 1124BOLB   C4C26972  22.435   9.459  14.132  0.2378 -0.1331  0.0869
 1124BOLB   C1D26973  22.158   7.949  13.779  0.0555  0.2305 -0.1647
 1124BOLB   C2D26974  21.810   8.335  13.853 -0.2622  0.0185  0.3703
 1124BOLB   C3D26975  21.686   8.727  13.825  0.3633 -0.2966 -0.2333
 1124BOLB   C4D26976  21.542   9.095  13.817 -0.0536 -0.2718 -0.0671
 1125BOLB   NC126977  18.387  12.719  11.673  0.0803  0.1050 -0.0323
 1125BOLB   PO126978  18.877  12.613  11.784  0.1131  0.2445 -0.2099
 1125BOLB   GL126979  18.995  12.417  11.488 -0.0867  0.2711 -0.0993
 1125BOLB   GL226980  18.667  12.402  11.341  0.0317 -0.0786 -0.1295
 1125BOLB   C1A26981  19.096  12.200  11.135  0.2976  0.0119 -0.1701
 1125BOLB   C2A26982  19.096  12.077  10.720  0.1813 -0.3535 -0.2753
 1125BOLB   C3A26983  19.403  11.918  10.468  0.1846 -0.1523 -0.0424
 1125BOLB   C4A26984  19.723  11.667  10.306 -0.1465 -0.0776 -0.0335
 1125BOLB   C1B26985  18.863  11.929  11.500 -0.3876  0.1671  0.1862
 1125BOLB   C2B26986  19.037  11.666  11.221 -0.3934  0.1881 -0.1491
 1125BOLB   C3B26987  19.278  11.641  10.871  0.3494 -0.1572 -0.1029
 1125BOLB   C4B26988  19.572  11.304  10.660  0.3352 -0.1023  0.0151
 1125BOLB   NC226989  20.064  10.486   8.519  0.3043 -0.0993 -0.0304
 1125BOLB   PO226990  20.086  10.920   8.336  0.2137 -0.0587  0.2360
 1125BOLB   GL326991  20.110  11.191   8.698  0.1200 -0.3476 -0.0736
 1125BOLB   GL426992  20.105  10.841   8.849 -0.4364 -0.1289 -0.0924
 1125BOLB   C1C26993  20.070  11.576   8.907  0.0200 -0.3276  0.1463
 1125BOLB   C2C26994  19.779  11.826   9.090  0.0709  0.1692 -0.0900
 1125BOLB   C3C26995  19.769  11.921   9.469  0.2461  0.1100 -0.1227
 1125BOLB   C4C26996  19.905  11.807   9.905  0.0599 -0.5033 -0.0864
 1125BOLB   C1D26997  20.094  11.100   9.164 -0.1144 -0.1698 -0.0911
 1125BOLB   C2D26998  19.935  11.376   9.392  0.0788 -0.0988  0.2178
 1125BOLB   C3D26999  19.663  11.364   9.769 -0.1429  0.2410  0.2090
 1125BOLB   C4D27000  19.419  11.273  10.160 -0.1835  0.3925  0.1278
 1126BOLB   NC127001   9.366  23.366  12.824  0.2329 -0.1675 -0.0750
 1126BOLB   PO127002   8.924  23.307  12.737 -0.0546 -0.2467 -0.2799
 1126BOLB   GL127003   8.993  23.372  12.253  0.2803  0.1632  0.2369
 1126BOLB   GL227004   8.804  23.038  12.300  0.1513 -0.2589 -0.1667
 1126BOLB   C1A27005   9.026  23.475  11.884  0.0091 -0.1138  0.0827
 1126BOLB   C2A27006   9.046  23.171  11.456 -0.2220 -0.0855 -0.0463
 1126BOLB   C3A27007   9.078  22.916  11.109  0.2877  0.3068  0.2868
 1126BOLB   C4A27008   8.937  22.745  10.748  0.4135 -0.0577 -0.0891
 1126BOLB   C1B27009   8.751  23.036  11.857  0.1894 -0.1705 -0.0591
 1126BOLB   C2B27010   8.500  22.984  11.383  0.1083  0.2122 -0.2700
 1126BOLB   C3B27011   8.114  22.927  11.344 -0.1567 -0.2526  0.2066
 1126BOLB   C4B27012   7.846  22.946  10.998  0.0809 -0.0192  0.0317
 1126BOLB   NC227013   7.135  22.387   8.663  0.1099  0.0593 -0.2425
 1126BOLB   PO227014   7.433  22.429   8.854  0.0661 -0.1884 -0.1531
 1126BOLB   GL327015   7.758  22.484   9.175 -0.2464 -0.2243 -0.0531
 1126BOLB   GL427016   7.650  22.454   9.477  0.1100  0.0830  0.0787
 1126BOLB   C1C27017   8.125  22.400   9.514 -0.0809  0.1249  0.0551
 1126BOLB   C2C27018   8.060  22.314   9.957  0.0412 -0.0736 -0.0207
 1126BOLB   C3C27019   8.322  22.304  10.337 -0.3576  0.0300  0.0927
 1126BOLB   C4C27020   8.742  22.431  10.469 -0.1350 -0.0972  0.0869
 1126BOLB   C1D27021   7.743  22.071   9.637  0.1197  0.2613 -0.1310
 1126BOLB   C2D27022   7.672  21.671   9.890  0.1675  0.1164  0.1948
 1126BOLB   C3D27023   7.749  21.474  10.275 -0.0546  0.2813  0.0526
 1126BOLB   C4D27024   7.472  21.511  10.679  0.0703 -0.2208  0.0532
 1127BOLB   NC127025  13.821  12.175  11.028 -0.3234  0.0608 -0.0230
 1127BOLB   PO127026  13.721  11.734  10.990 -0.0558 -0.0337 -0.0801
 1127BOLB   GL127027  13.982  11.876  10.642  0.0069  0.2020  0.0007
 1127BOLB   GL227028  13.909  12.163  10.505 -0.2733  0.2828 -0.1890
 1127BOLB   C1A27029  13.943  11.681  10.241 -0.0480 -0.0290 -0.2583
 1127BOLB   C2A27030  13.851  11.563   9.873  0.1421 -0.2601 -0.2474
 1127BOLB   C3A27031  13.853  11.461   9.415 -0.0056 -0.1356  0.2461
 1127BOLB   C4A27032  14.017  11.404   9.010 -0.1852 -0.1692 -0.1571
 1127BOLB   C1B27033  13.596  12.331  10.194  0.1591  0.0815 -0.0962
 1127BOLB   C2B27034  13.504  12.307   9.799 -0.3648 -0.0912  0.4568
 1127BOLB   C3B27035  13.467  12.292   9.361  0.3434 -0.2657 -0.0161
 1127BOLB   C4B27036  13.439  12.297   9.015  0.3461  0.0982 -0.1368
 1127BOLB   NC227037  12.791  10.778   6.502  0.1332  0.2363  0.0591
 1127BOLB   PO227038  13.051  10.627   6.821 -0.1857  0.3839  0.1717
 1127BOLB   GL327039  13.029  10.712   7.330  0.0999 -0.0411  0.0630
 1127BOLB   GL427040  12.723  10.615   7.530  0.1343 -0.2057 -0.0840
 1127BOLB   C1C27041  13.388  10.822   7.591  0.2876  0.1341  0.1590
 1127BOLB   C2C27042  13.313  11.143   7.910 -0.1229 -0.3907 -0.0010
 1127BOLB   C3C27043  13.464  11.185   8.362 -0.2149 -0.0859 -0.2460
 1127BOLB   C4C27044  13.791  11.085   8.679  0.0130  0.2487 -0.0275
 1127BOLB   C1D27045  13.013  10.701   7.890 -0.1544  0.1192  0.0234
 1127BOLB   C2D27046  13.163  10.769   8.255  0.1606  0.2424  0.1679
 1127BOLB   C3D27047  13.418  10.783   8.698  0.0992  0.1837  0.0776
 1127BOLB   C4D27048  13.680  10.640   9.069  0.1307 -0.0172 -0.0061
 1128BOLB   NC127049  16.939  21.589  11.057 -0.0837 -0.0149 -0.0463
 1128BOLB   PO127050  16.952  21.653  11.468 -0.1891  0.1326  0.0192
 1128BOLB   GL127051  17.175  22.064  11.272  0.2511 -0.2435 -0.1381
 1128BOLB   GL227052  17.213  21.943  10.881  0.0617  0.0396  0.2390
 1128BOLB   C1A27053  17.103  22.485  11.086 -0.0133 -0.1148 -0.0797
 1128BOLB   C2A27054  17.000  22.869  10.882  0.4735  0.0103  0.0329
 1128BOLB   C3A27055  17.268  23.292  10.980  0.2564 -0.1104  0.1324
 1128BOLB   C4A27056  17.495  23.535  10.648  0.1926 -0.1190  0.2160
 1128BOLB   C1B27057  17.257  22.090  10.462 -0.2302  0.3272  0.1186
 1128BOLB   C2B27058  17.401  22.178  10.034  0.2196 -0.0540 -0.0159
 1128BOLB   C3B27059  17.618  22.235   9.670  0.2979 -0.0044 -0.1498
 1128BOLB   C4B27060  17.681  22.474   9.286  0.0260 -0.3861 -0.1238
 1128BOLB   NC227061  17.536  23.854   8.199 -0.0128 -0.2032  0.2962
 1128BOLB   PO227062  17.177  24.162   8.204 -0.1385  0.0435  0.1822
 1128BOLB   GL327063  17.295  24.078   8.635  0.0782  0.0954  0.3536
 1128BOLB   GL427064  16.965  24.183   8.751  0.2407  0.0022  0.0815
 1128BOLB   C1C27065  17.302  23.873   8.988 -0.1543  0.1662 -0.3144
 1128BOLB   C2C27066  17.555  23.828   9.422  0.2900  0.1217  0.0890
 1128BOLB   C3C27067  17.706  23.709   9.868  0.1353 -0.2100 -0.2812
 1128BOLB   C4C27068  17.521  23.625  10.262 -0.3422  0.1843  0.0959
 1128BOLB   C1D27069  16.840  23.852   8.984 -0.0398  0.3261 -0.2444
 1128BOLB   C2D27070  16.556  23.985   9.308  0.0425 -0.2700 -0.3254
 1128BOLB   C3D27071  16.386  23.747   9.612 -0.0545 -0.1594  0.0459
 1128BOLB   C4D27072  15.981  23.454   9.733 -0.1709 -0.0940  0.2809
 1129BOLB   NC127073  15.621  23.718  13.081  0.0993  0.0449  0.1088
 1129BOLB   PO127074  15.387  23.563  12.820 -0.1409  0.2695  0.3929
 1129BOLB   GL127075  15.240  23.811  12.522  0.1223 -0.0577 -0.0227
 1129BOLB   GL227076  15.489  23.925  12.496  0.1376  0.0972 -0.3930
 1129BOLB   C1A27077  15.413  23.809  12.037  0.1083 -0.2592  0.2299
 1129BOLB   C2A27078  15.236  24.143  11.831  0.0420  0.3675  0.1892
 1129BOLB   C3A27079  15.296  24.605  11.789 -0.3476 -0.0709 -0.1166
 1129BOLB   C4A27080  15.184  25.025  11.737  0.0235 -0.0130 -0.2062
 1129BOLB   C1B27081  15.519  24.280  12.252  0.2443 -0.2377  0.0545
 1129BOLB   C2B27082  15.500  24.707  12.232 -0.1588 -0.0094 -0.1408
 1129BOLB   C3B27083  15.716  24.940  11.864  0.1733 -0.1812  0.2296
 1129BOLB   C4B27084  15.672  24.910  11.542 -0.1661  0.1130 -0.0069
 1129BOLB   NC227085  15.863  27.465  10.716  0.2623  0.0319 -0.2006
 1129BOLB   PO227086  15.867  27.148  10.955  0.2198 -0.0224  0.1348
 1129BOLB   GL327087  15.819  26.801  10.934  0.1660  0.1745  0.1080
 1129BOLB   GL427088  15.924  26.557  10.687 -0.0824 -0.3552  0.0388
 1129BOLB   C1C27089  15.664  26.355  11.153  0.2112  0.2935 -0.0190
 1129BOLB   C2C27090  15.744  25.889  11.297 -0.0470  0.2707  0.0861
 1129BOLB   C3C27091  15.606  25.836  11.720  0.2805 -0.1146  0.1231
 1129BOLB   C4C27092  15.310  25.440  11.770  0.1103 -0.1851 -0.2775
 1129BOLB   C1D27093  16.229  26.363  10.990 -0.2451  0.0412  0.3853
 1129BOLB   C2D27094  16.183  25.918  11.000  0.0755 -0.0405 -0.2395
 1129BOLB   C3D27095  16.166  25.605  10.617 -0.1273  0.1553  0.0039
 1129BOLB   C4D27096  16.111  25.480  10.157  0.1770  0.0544 -0.2013
 1130BOLB   NC127097  20.876  14.671  12.276  0.0666 -0.0625 -0.1649
 1130BOLB   PO127098  21.182  14.306  12.191 -0.0662 -0.0625  0.3659
 1130BOLB   GL127099  21.537  14.196  12.097 -0.0933 -0.2760  0.0421
 1130BOLB   GL227100  21.696  14.347  11.908  0.2003  0.2126 -0.2330
 1130BOLB   C1A27101  21.606  13.760  11.910 -0.1022  0.1246 -0.1336
 1130BOLB   C2A27102  21.676  13.728  11.522 -0.0657  0.2192 -0.0420
 1130BOLB   C3A27103  21.723  13.501  11.163  0.1137  0.2539  0.2041
 1130BOLB   C4A27104  21.862  13.103  10.846 -0.1054 -0.3122  0.1068
 1130BOLB   C1B27105  21.867  14.204  11.678 -0.1713 -0.2275  0.0574
 1130BOLB   C2B27106  21.969  14.380  11.282  0.1977 -0.1493  0.1418
 1130BOLB   C3B27107  22.035  14.427  10.868  0.1466  0.0811  0.0871
 1130BOLB   C4B27108  22.143  14.179  10.535 -0.0870  0.1282  0.0446
 1130BOLB   NC227109  21.819  11.522   8.709 -0.1753 -0.1069  0.0035
 1130BOLB   PO227110  22.095  11.913   8.576 -0.0890  0.1603  0.1719
 1130BOLB   GL327111  21.912  12.089   9.024  0.0963 -0.0059  0.3389
 1130BOLB   GL427112  21.719  12.351   8.862  0.1102 -0.0250 -0.2084
 1130BOLB   C1C27113  22.084  12.384   9.420 -0.0409 -0.2266 -0.6264
 1130BOLB   C2C27114  21.898  12.645   9.708  0.1349 -0.0413  0.4268
 1130BOLB   C3C27115  21.665  12.833   9.992 -0.0138 -0.0758 -0.2608
 1130BOLB   C4C27116  21.728  12.958  10.433  0.0817 -0.1033 -0.2643
 1130BOLB   C1D27117  21.718  12.719   9.180 -0.1025  0.2593  0.0781
 1130BOLB   C2D27118  21.420  12.831   9.580  0.1370  0.0908  0.0332
 1130BOLB   C3D27119  21.178  12.700   9.966 -0.2202  0.2053 -0.0082
 1130BOLB   C4D27120  21.203  12.665  10.406  0.2187 -0.0660 -0.0751
 1131BOLB   NC127121  14.266  22.884  12.707 -0.0503  0.1196 -0.1627
 1131BOLB   PO127122  14.250  22.752  12.277  0.0591 -0.0751 -0.1796
 1131BOLB   GL127123  14.461  22.990  12.005  0.1044  0.1856 -0.0240
 1131BOLB   GL227124  14.395  23.375  11.949 -0.1432 -0.2068 -0.3503
 1131BOLB   C1A27125  14.436  22.982  11.506  0.1471  0.2603  0.0898
 1131BOLB   C2A27126  14.675  23.000  11.217  0.1433 -0.0752 -0.0386
 1131BOLB   C3A27127  14.829  23.280  10.874  0.1619 -0.0542 -0.0966
 1131BOLB   C4A27128  14.862  23.614  10.511  0.0585  0.0239 -0.0550
 1131BOLB   C1B27129  14.572  23.404  11.552 -0.1119 -0.2130 -0.0807
 1131BOLB   C2B27130  14.586  23.571  11.131 -0.1577 -0.0538 -0.1813
 1131BOLB   C3B27131  14.757  23.910  10.961 -0.3465 -0.0391 -0.3617
 1131BOLB   C4B27132  14.613  24.301  10.715  0.1359 -0.2373 -0.4315
 1131BOLB   NC227133  15.549  26.136   9.378  0.1658 -0.1896  0.2029
 1131BOLB   PO227134  15.078  25.906   9.339  0.1558 -0.3167  0.1264
 1131BOLB   GL327135  14.908  25.592   9.569  0.0276  0.1916 -0.2114
 1131BOLB   GL427136  14.776  25.862   9.813  0.1269  0.0261  0.0898
 1131BOLB   C1C27137  14.937  25.079   9.755  0.0191  0.2762 -0.1702
 1131BOLB   C2C27138  14.825  24.700   9.940  0.0164 -0.4737 -0.0192
 1131BOLB   C3C27139  14.913  24.493  10.350  0.0075 -0.0058 -0.2199
 1131BOLB   C4C27140  15.015  23.996  10.471  0.1441  0.0293  0.0147
 1131BOLB   C1D27141  14.575  25.420   9.925  0.3352  0.0876  0.0583
 1131BOLB   C2D27142  14.411  24.925   9.940  0.0218  0.0979 -0.0614
 1131BOLB   C3D27143  14.048  24.649  10.028 -0.2185  0.3029 -0.1422
 1131BOLB   C4D27144  13.588  24.744  10.057 -0.0439 -0.2409 -0.2204
 1132BOLB   NC127145  21.048  23.698  14.035  0.1266 -0.2942 -0.2606
 1132BOLB   PO127146  20.748  23.972  14.052  0.3572 -0.0174 -0.3157
 1132BOLB   GL127147  20.873  24.246  13.736 -0.2586  0.3255  0.0034
 1132BOLB   GL227148  20.961  24.128  13.475 -0.2861  0.0800  0.0253
 1132BOLB   C1A27149  21.014  24.615  13.631 -0.1310 -0.1719  0.1647
 1132BOLB   C2A27150  21.090  25.018  13.521  0.1245  0.0826  0.2470
 1132BOLB   C3A27151  21.290  25.399  13.780 -0.1407 -0.0664  0.2535
 1132BOLB   C4A27152  21.409  25.906  13.650 -0.3871  0.1357  0.2577
 1132BOLB   C1B27153  20.973  24.280  13.039 -0.2315 -0.1918 -0.3217
 1132BOLB   C2B27154  20.753  24.509  12.907  0.0931  0.0214 -0.2453
 1132BOLB   C3B27155  20.483  24.633  12.613  0.0349  0.1108 -0.1601
 1132BOLB   C4B27156  20.341  25.092  12.398 -0.0473  0.2821 -0.1763
 1132BOLB   NC227157  21.586  28.444  13.567  0.1697 -0.1847  0.1476
 1132BOLB   PO227158  21.601  28.037  13.605 -0.0585  0.1843 -0.0560
 1132BOLB   GL327159  21.572  27.687  13.795  0.0044  0.0516  0.0594
 1132BOLB   GL427160  21.238  27.756  13.937  0.0817 -0.3858 -0.2765
 1132BOLB   C1C27161  21.588  27.184  13.829  0.0418  0.1657  0.1599
 1132BOLB   C2C27162  21.759  26.905  14.010  0.3522  0.1000  0.1561
 1132BOLB   C3C27163  21.526  26.554  14.111 -0.0672 -0.0527 -0.1150
 1132BOLB   C4C27164  21.269  26.272  13.864  0.0777 -0.0934  0.0921
 1132BOLB   C1D27165  21.157  27.360  14.061 -0.0923 -0.0887  0.1316
 1132BOLB   C2D27166  21.172  26.934  13.886 -0.1955  0.0945 -0.1062
 1132BOLB   C3D27167  21.225  26.859  13.486 -0.2831  0.3265 -0.1062
 1132BOLB   C4D27168  21.374  26.822  13.046  0.0506  0.3051  0.1166
 1133BOLB   NC127169  18.550  12.098  12.649 -0.1717 -0.0172  0.0843
 1133BOLB   PO127170  18.803  11.903  12.188  0.2027  0.0987  0.0929
 1133BOLB   GL127171  19.072  11.841  11.914 -0.2064  0.1430 -0.2590
 1133BOLB   GL227172  19.335  11.897  12.001  0.0772  0.1613 -0.1848
 1133BOLB   C1A27173  19.293  11.585  11.636  0.3493  0.0709  0.0244
 1133BOLB   C2A27174  19.639  11.416  11.315 -0.0907 -0.2136  0.2918
 1133BOLB   C3A27175  19.799  11.130  11.147 -0.0306 -0.1793  0.0917
 1133BOLB   C4A27176  20.066  10.946  10.826 -0.0075 -0.0594 -0.3678
 1133BOLB   C1B27177  19.471  11.521  12.110 -0.0432  0.0485  0.2188
 1133BOLB   C2B27178  19.454  11.136  11.776  0.1102  0.2326 -0.0617
 1133BOLB   C3B27179  19.576  10.830  11.450  0.2578 -0.0714  0.2219
 1133BOLB   C4B27180  19.743  10.495  11.186 -0.1519  0.0011 -0.1484
 1133BOLB   NC227181  20.894  10.407   8.816 -0.1118 -0.0843  0.1206
 1133BOLB   PO227182  20.460  10.393   8.924  0.1456 -0.0510 -0.1267
 1133BOLB   GL327183  20.310  10.432   9.300 -0.1428 -0.0615 -0.2139
 1133BOLB   GL427184  20.060  10.288   9.515 -0.1614 -0.1351 -0.0240
 1133BOLB   C1C27185  20.490  10.543   9.662  0.0237 -0.1187 -0.2887
 1133BOLB   C2C27186  20.795  10.597  10.081 -0.2040 -0.1651  0.2983
 1133BOLB   C3C27187  20.775  10.582  10.501 -0.2932  0.1054 -0.0144
 1133BOLB   C4C27188  20.370  10.719  10.655 -0.3120 -0.0831  0.0616
 1133BOLB   C1D27189  19.790  10.480   9.139 -0.2539  0.1065  0.3384
 1133BOLB   C2D27190  19.636  10.864   8.957 -0.4530 -0.0932  0.0727
 1133BOLB   C3D27191  19.662  11.318   8.879  0.3259 -0.0788  0.0175
 1133BOLB   C4D27192  19.678  11.600   8.591 -0.0199  0.0355 -0.1165
 1134BOLB   NC127193  14.048  16.734   9.751  0.1140  0.0155  0.0070
 1134BOLB   PO127194  13.943  16.335   9.661 -0.0195  0.1745 -0.1748
 1134BOLB   GL127195  14.220  15.944   9.610  0.3521  0.2636 -0.2086
 1134BOLB   GL227196  14.055  15.832   9.385  0.0668  0.0533 -0.0378
 1134BOLB   C1A27197  14.608  15.768   9.441  0.2557 -0.2575 -0.0632
 1134BOLB   C2A27198  14.706  15.840   9.087 -0.2581 -0.0461 -0.4566
 1134BOLB   C3A27199  14.904  15.823   8.734 -0.0275 -0.0948  0.1984
 1134BOLB   C4A27200  15.105  15.742   8.394 -0.0135 -0.2209  0.1389
 1134BOLB   C1B27201  13.676  16.057   9.103 -0.1899 -0.0080 -0.0986
 1134BOLB   C2B27202  13.407  15.965   8.646 -0.2503  0.0582  0.1531
 1134BOLB   C3B27203  13.567  16.068   8.332 -0.0293 -0.0233 -0.1867
 1134BOLB   C4B27204  13.552  16.200   7.959 -0.0264  0.0268 -0.1304
 1134BOLB   NC227205  15.804  15.223   5.559 -0.3463  0.2804  0.2282
 1134BOLB   PO227206  15.836  15.249   6.012 -0.4059 -0.0420 -0.1326
 1134BOLB   GL327207  15.773  15.531   6.290 -0.1354 -0.0932  0.2303
 1134BOLB   GL427208  15.652  15.905   6.199  0.0989 -0.2285 -0.0324
 1134BOLB   C1C27209  15.670  15.529   6.681 -0.1162 -0.0794 -0.0213
 1134BOLB   C2C27210  15.645  15.596   7.122  0.0553 -0.1882  0.1743
 1134BOLB   C3C27211  15.458  15.665   7.592  0.0917 -0.0323 -0.0238
 1134BOLB   C4C27212  15.354  15.616   8.077  0.0473  0.2227 -0.2714
 1134BOLB   C1D27213  15.479  15.952   6.546 -0.1893  0.2662 -0.2247
 1134BOLB   C2D27214  14.999  15.800   6.621 -0.2370  0.0445 -0.2162
 1134BOLB   C3D27215  14.576  15.757   6.697 -0.1388  0.1929 -0.3563
 1134BOLB   C4D27216  14.189  15.665   6.906 -0.0278  0.0067 -0.0916
 1135BOLB   NC127217  13.437  14.200  10.490  0.0778  0.2582  0.3728
 1135BOLB   PO127218  13.108  14.230  10.138 -0.1455 -0.0472 -0.0430
 1135BOLB   GL127219  13.362  14.022   9.880  0.4380  0.0758  0.1206
 1135BOLB   GL227220  13.185  13.954   9.666  0.2087  0.3688  0.0767
 1135BOLB   C1A27221  13.530  14.166   9.415 -0.1716 -0.1030 -0.2764
 1135BOLB   C2A27222  13.717  14.091   9.024 -0.0068 -0.5269  0.1547
 1135BOLB   C3A27223  14.067  13.840   8.855 -0.1814 -0.1443 -0.4130
 1135BOLB   C4A27224  14.066  13.533   8.419 -0.0781 -0.1205 -0.3542
 1135BOLB   C1B27225  13.222  13.811   9.279 -0.1563 -0.0635 -0.1664
 1135BOLB   C2B27226  12.955  13.627   8.926  0.0985 -0.2533 -0.0020
 1135BOLB   C3B27227  12.936  13.288   8.656  0.1242  0.0664  0.1053
 1135BOLB   C4B27228  12.850  12.934   8.438 -0.1315  0.2205 -0.0542
 1135BOLB   NC227229  13.001  12.494   6.011  0.2667 -0.0074  0.3336
 1135BOLB   PO227230  13.220  12.797   6.438 -0.0193  0.2611  0.2535
 1135BOLB   GL327231  13.422  13.185   6.804 -0.0956 -0.0644 -0.2752
 1135BOLB   GL427232  13.846  13.152   6.798  0.2756  0.0693  0.2556
 1135BOLB   C1C27233  13.484  13.429   7.195 -0.3059 -0.0697  0.0534
 1135BOLB   C2C27234  13.835  13.610   7.354  0.0654 -0.0030 -0.0652
 1135BOLB   C3C27235  14.162  13.515   7.565 -0.2331  0.1596  0.2631
 1135BOLB   C4C27236  14.195  13.403   8.031  0.0547 -0.0494  0.0522
 1135BOLB   C1D27237  14.118  13.462   7.015 -0.0221  0.0238  0.0348
 1135BOLB   C2D27238  14.242  13.797   6.902  0.0054  0.1136 -0.2420
 1135BOLB   C3D27239  14.612  14.082   6.935 -0.1284 -0.0268  0.1159
 1135BOLB   C4D27240  14.958  14.169   7.181 -0.0673 -0.0977 -0.1711
 1136BOLB   NC127241  13.040  22.121  12.310  0.1963  0.0924 -0.0009
 1136BOLB   PO127242  12.898  22.308  11.842 -0.0624  0.1424  0.4030
 1136BOLB   GL127243  12.940  22.641  11.640  0.2156  0.0676  0.3033
 1136BOLB   GL227244  12.979  23.024  11.799  0.0834  0.1074  0.2295
 1136BOLB   C1A27245  12.918  22.784  11.235  0.0343 -0.1980  0.3360
 1136BOLB   C2A27246  12.997  22.862  10.867  0.1522  0.1001 -0.0565
 1136BOLB   C3A27247  12.993  23.085  10.450  0.1138  0.0369 -0.1145
 1136BOLB   C4A27248  13.199  23.205  10.133 -0.1041 -0.1482  0.0092
 1136BOLB   C1B27249  12.811  23.267  11.431  0.1862 -0.0417  0.3091
 1136BOLB   C2B27250  12.595  23.294  11.132 -0.1037 -0.0483  0.1698
 1136BOLB   C3B27251  12.555  23.456  10.682  0.2087 -0.0336 -0.1669
 1136BOLB   C4B27252  12.269  23.354  10.362  0.1953 -0.1233 -0.2643
 1136BOLB   NC227253  14.253  24.299   8.077 -0.4864  0.2066 -0.2143
 1136BOLB   PO227254  13.821  24.515   7.999  0.0101  0.0602  0.4031
 1136BOLB   GL327255  13.903  24.344   8.452  0.0551  0.3682  0.1199
 1136BOLB   GL427256  13.792  24.538   8.640  0.1217  0.1364 -0.1659
 1136BOLB   C1C27257  13.606  23.965   8.660 -0.1467 -0.2214 -0.0301
 1136BOLB   C2C27258  13.656  23.577   8.888 -0.0826  0.1324 -0.1701
 1136BOLB   C3C27259  13.579  23.534   9.349  0.1561 -0.0589 -0.3012
 1136BOLB   C4C27260  13.385  23.390   9.733  0.1448  0.0239 -0.1902
 1136BOLB   C1D27261  13.517  24.437   8.829 -0.4581 -0.0625  0.0052
 1136BOLB   C2D27262  13.277  24.122   9.128 -0.0874  0.0026  0.2301
 1136BOLB   C3D27263  13.033  23.915   9.378 -0.0379  0.0623 -0.2855
 1136BOLB   C4D27264  12.660  23.828   9.554  0.1651  0.0182 -0.0318
 1137BOLB   NC127265  21.911  16.523  11.736  0.0204 -0.1623 -0.3264
 1137BOLB   PO127266  21.611  16.600  11.566 -0.0335  0.1976  0.0938
 1137BOLB   GL127267  21.865  16.599  11.152  0.0738 -0.2154 -0.1439
 1137BOLB   GL227268  22.200  16.571  11.119 -0.0648 -0.1388  0.2308
 1137BOLB   C1A27269  21.857  16.418  10.691 -0.5496 -0.0218 -0.0832
 1137BOLB   C2A27270  22.000  16.646  10.311  0.3297 -0.0236  0.0954
 1137BOLB   C3A27271  21.878  16.842  10.052 -0.2567 -0.0480 -0.1245
 1137BOLB   C4A27272  22.035  16.779   9.660  0.1993 -0.0885  0.1113
 1137BOLB   C1B27273  22.365  16.683  10.688  0.1226  0.1812 -0.1850
 1137BOLB   C2B27274  22.700  16.791  10.408 -0.2169 -0.0288 -0.0174
 1137BOLB   C3B27275  22.901  16.618  10.171 -0.1451 -0.2017 -0.2401
 1137BOLB   C4B27276  23.289  16.473   9.895 -0.1573 -0.1171  0.1814
 1137BOLB   NC227277  22.699  16.507   7.123  0.1478 -0.0131 -0.0634
 1137BOLB   PO227278  22.660  16.535   7.527 -0.1183 -0.0040  0.0564
 1137BOLB   GL327279  22.736  16.528   7.993 -0.0190  0.0202  0.2353
 1137BOLB   GL427280  22.742  16.221   8.287 -0.4165 -0.0648  0.3116
 1137BOLB   C1C27281  22.719  16.808   8.284  0.0944  0.1318 -0.0487
 1137BOLB   C2C27282  22.655  16.876   8.695  0.2065 -0.4378 -0.0445
 1137BOLB   C3C27283  22.483  16.737   9.032  0.1650  0.2965  0.2017
 1137BOLB   C4C27284  22.362  16.863   9.373 -0.1324  0.5716 -0.2652
 1137BOLB   C1D27285  22.660  16.354   8.720  0.1143 -0.1262  0.1832
 1137BOLB   C2D27286  22.209  16.330   8.983 -0.0603  0.1955  0.0949
 1137BOLB   C3D27287  21.851  16.450   8.728 -0.3089  0.2868  0.1832
 1137BOLB   C4D27288  21.626  16.774   8.777 -0.0368  0.0770 -0.3661
 1138BOLB   NC127289  12.042  22.410  11.649 -0.2457 -0.1575  0.0450
 1138BOLB   PO127290  11.566  22.450  11.747 -0.1382  0.0071  0.3007
 1138BOLB   GL127291  11.720  22.697  11.347  0.1533  0.1592 -0.1707
 1138BOLB   GL227292  11.784  22.488  11.202 -0.0578 -0.0853  0.3306
 1138BOLB   C1A27293  11.866  22.988  11.171  0.2053 -0.0455  0.1705
 1138BOLB   C2A27294  12.132  23.120  10.838 -0.1092 -0.1008  0.0736
 1138BOLB   C3A27295  11.866  23.085  10.492 -0.0326  0.2862 -0.1986
 1138BOLB   C4A27296  11.694  23.240  10.134 -0.0721 -0.1591  0.4205
 1138BOLB   C1B27297  12.066  22.664  10.844 -0.1545  0.0574 -0.1013
 1138BOLB   C2B27298  11.992  22.633  10.502 -0.0378  0.1637  0.2879
 1138BOLB   C3B27299  11.926  22.669  10.036  0.0358 -0.1985  0.0478
 1138BOLB   C4B27300  11.907  22.550   9.727 -0.0366  0.0772  0.0943
 1138BOLB   NC227301  11.575  24.913   7.569 -0.0324 -0.3667 -0.2308
 1138BOLB   PO227302  11.540  24.759   8.047 -0.2964 -0.0488 -0.1462
 1138BOLB   GL327303  11.479  24.507   8.445 -0.1051  0.0492 -0.2739
 1138BOLB   GL427304  11.246  24.678   8.614 -0.0861 -0.1318 -0.2997
 1138BOLB   C1C27305  11.259  24.168   8.744 -0.0463 -0.1538  0.0066
 1138BOLB   C2C27306  11.514  23.957   9.060  0.1535 -0.0557  0.3295
 1138BOLB   C3C27307  11.793  23.831   9.385 -0.1137  0.1431  0.0449
 1138BOLB   C4C27308  11.773  23.524   9.700 -0.1078  0.2477  0.1574
 1138BOLB   C1D27309  11.418  24.584   9.023  0.0826  0.3273 -0.1836
 1138BOLB   C2D27310  11.798  24.502   9.233 -0.1236  0.4292  0.0473
 1138BOLB   C3D27311  12.089  24.256   9.605  0.0821 -0.1915  0.2220
 1138BOLB   C4D27312  12.128  23.909   9.759 -0.0672 -0.3054  0.1022
 1139BOLB   NC127313  10.566   7.150  13.257 -0.1319 -0.2963 -0.0087
 1139BOLB   PO127314  10.502   6.979  12.894  0.0693 -0.0108  0.0564
 1139BOLB   GL127315  10.428   6.911  12.515 -0.1891 -0.2732  0.0754
 1139BOLB   GL227316  10.660   6.706  12.310 -0.3445  0.1509 -0.0744
 1139BOLB   C1A27317  10.358   7.235  12.169  0.0210  0.0122 -0.0894
 1139BOLB   C2A27318  10.639   7.559  12.038 -0.0336 -0.0281  0.1681
 1139BOLB   C3A27319  10.934   7.580  11.671  0.1759 -0.0350 -0.0061
 1139BOLB   C4A27320  11.190   7.464  11.372 -0.2410 -0.2165 -0.2546
 1139BOLB   C1B27321  10.871   7.154  12.315  0.2618  0.0223  0.0066
 1139BOLB   C2B27322  11.197   7.296  12.051 -0.1654 -0.1946 -0.2721
 1139BOLB   C3B27323  11.372   7.659  11.838  0.0025  0.1196 -0.1170
 1139BOLB   C4B27324  11.476   7.852  11.465  0.2605  0.1504  0.1073
 1139BOLB   NC227325  10.930   5.888   9.491  0.0369  0.4963 -0.2726
 1139BOLB   PO227326  10.895   6.318   9.459 -0.1332  0.2945  0.2175
 1139BOLB   GL327327  11.145   6.528   9.703 -0.0681 -0.4141  0.1600
 1139BOLB   GL427328  11.074   6.374   9.968  0.0021  0.0869  0.0903
 1139BOLB   C1C27329  11.494   6.910   9.835 -0.3248 -0.1930 -0.0711
 1139BOLB   C2C27330  11.378   7.135  10.330  0.0284 -0.0564 -0.1218
 1139BOLB   C3C27331  11.467   7.456  10.562  0.1702 -0.0236 -0.1194
 1139BOLB   C4C27332  11.437   7.401  11.020  0.1106  0.2365  0.3327
 1139BOLB   C1D27333  11.303   6.640  10.246  0.0006  0.1203  0.2876
 1139BOLB   C2D27334  11.665   6.695  10.280 -0.4600  0.0663 -0.3547
 1139BOLB   C3D27335  12.142   6.847  10.416 -0.0306  0.0002 -0.0914
 1139BOLB   C4D27336  12.308   7.082  10.846 -0.1163  0.2167 -0.1387
 1140BOLB   NC127337  12.480  21.826  11.071  0.2529 -0.1921 -0.0835
 1140BOLB   PO127338  12.138  22.124  11.274  0.0199 -0.1603  0.2172
 1140BOLB   GL127339  12.087  21.995  10.814 -0.2473  0.1272  0.1020
 1140BOLB   GL227340  12.106  21.642  10.805  0.1334 -0.0788 -0.2833
 1140BOLB   C1A27341  11.782  22.211  10.574 -0.0192  0.2575 -0.2452
 1140BOLB   C2A27342  11.923  22.189  10.123  0.2666 -0.1229  0.2220
 1140BOLB   C3A27343  11.804  22.030   9.734  0.1694 -0.1473  0.3770
 1140BOLB   C4A27344  11.971  21.970   9.330  0.2777 -0.0558 -0.2258
 1140BOLB   C1B27345  11.932  21.727  10.406 -0.2015 -0.2576  0.1021
 1140BOLB   C2B27346  11.790  21.597  10.002  0.3495  0.3055  0.0638
 1140BOLB   C3B27347  11.802  21.507   9.594 -0.2726 -0.2540 -0.1712
 1140BOLB   C4B27348  12.017  21.442   9.249  0.2381  0.2546  0.0900
 1140BOLB   NC227349  12.772  22.156   7.079  0.1082  0.0798 -0.3567
 1140BOLB   PO227350  12.329  22.211   7.126  0.2638 -0.0255 -0.2953
 1140BOLB   GL327351  12.440  22.003   7.502 -0.0085  0.0628 -0.3041
 1140BOLB   GL427352  12.452  21.684   7.174 -0.0503 -0.2673 -0.4187
 1140BOLB   C1C27353  12.355  22.084   7.943 -0.1115  0.1894  0.0242
 1140BOLB   C2C27354  12.409  21.966   8.408  0.0498  0.0735 -0.3561
 1140BOLB   C3C27355  12.383  22.227   8.741 -0.0007  0.1011  0.1820
 1140BOLB   C4C27356  12.154  22.178   9.080  0.0623 -0.0502  0.1170
 1140BOLB   C1D27357  12.300  21.254   7.233  0.1375  0.1594  0.1208
 1140BOLB   C2D27358  12.260  20.916   7.538 -0.1100  0.1726 -0.2077
 1140BOLB   C3D27359  12.387  20.578   7.931 -0.0679 -0.0058  0.1722
 1140BOLB   C4D27360  12.137  20.444   8.293  0.0992 -0.1592  0.4457
 1141BOLB   NC127361  19.670  10.244  14.829  0.0288  0.0734  0.1553
 1141BOLB   PO127362  19.685   9.942  14.513 -0.1384  0.0778 -0.0374
 1141BOLB   GL127363  19.974   9.534  14.645  0.3300 -0.3772  0.0200
 1141BOLB   GL227364  20.298   9.428  14.775 -0.1206 -0.1061  0.4794
 1141BOLB   C1A27365  20.051   9.085  14.519  0.0583 -0.0550  0.0027
 1141BOLB   C2A27366  20.213   8.928  14.164 -0.1828 -0.0283  0.1432
 1141BOLB   C3A27367  20.531   8.738  13.880  0.1632 -0.1289  0.0933
 1141BOLB   C4A27368  20.771   8.352  13.748 -0.4420  0.1011 -0.1987
 1141BOLB   C1B27369  20.590   9.126  14.521 -0.0189 -0.1093  0.4959
 1141BOLB   C2B27370  20.942   8.883  14.356 -0.0733 -0.0369 -0.1211
 1141BOLB   C3B27371  20.998   8.445  14.225  0.4092 -0.0489  0.2842
 1141BOLB   C4B27372  21.012   8.058  14.537 -0.2577  0.0033  0.3874
 1141BOLB   NC227373  22.055   6.211  12.692  0.0516  0.2471 -0.2639
 1141BOLB   PO227374  21.625   6.405  12.708 -0.0447 -0.0095 -0.0592
 1141BOLB   GL327375  21.591   6.642  13.049  0.2820 -0.1610  0.1496
 1141BOLB   GL427376  21.492   6.418  13.397  0.1876 -0.2674 -0.1884
 1141BOLB   C1C27377  21.407   7.012  12.802 -0.0329  0.0605 -0.0673
 1141BOLB   C2C27378  21.210   7.385  12.944  0.0792 -0.2065  0.0945
 1141BOLB   C3C27379  20.927   7.706  12.963 -0.0246 -0.1096 -0.0646
 1141BOLB   C4C27380  20.765   7.931  13.395  0.4146 -0.2004 -0.0897
 1141BOLB   C1D27381  21.305   6.775  13.581  0.0272  0.2638 -0.0351
 1141BOLB   C2D27382  21.464   7.238  13.595 -0.3707 -0.2909  0.1724
 1141BOLB   C3D27383  21.742   7.599  13.578 -0.1261  0.0868 -0.0085
 1141BOLB   C4D27384  21.524   7.974  13.681  0.0326 -0.0040  0.0267
 1142BOLB   NC127385  15.862  14.024  10.601 -0.1745 -0.0147  0.2637
 1142BOLB   PO127386  15.536  13.915  10.365 -0.0432 -0.0994 -0.1959
 1142BOLB   GL127387  15.517  13.829   9.937 -0.4076  0.2566 -0.3045
 1142BOLB   GL227388  15.719  13.930   9.711  0.2844  0.1323 -0.4941
 1142BOLB   C1A27389  15.344  13.903   9.429 -0.2511 -0.1019 -0.0329
 1142BOLB   C2A27390  15.519  14.032   9.055  0.0559  0.3280  0.1639
 1142BOLB   C3A27391  15.783  14.337   8.838 -0.0823 -0.0770  0.0721
 1142BOLB   C4A27392  15.897  14.215   8.496  0.2382  0.0059 -0.1779
 1142BOLB   C1B27393  15.903  13.717   9.365  0.2840 -0.4788 -0.2320
 1142BOLB   C2B27394  15.908  13.644   8.974  0.0564 -0.1585 -0.0195
 1142BOLB   C3B27395  16.012  13.403   8.682 -0.3445  0.2076  0.1007
 1142BOLB   C4B27396  15.809  13.180   8.363 -0.1838  0.1769  0.0479
 1142BOLB   NC227397  16.357  12.551   6.393 -0.1965  0.6272 -0.1734
 1142BOLB   PO227398  15.966  12.765   6.589  0.1437  0.0805  0.0413
 1142BOLB   GL327399  15.778  12.751   7.009 -0.0446 -0.0083 -0.0698
 1142BOLB   GL427400  15.463  12.753   7.059 -0.1518  0.1881 -0.1469
 1142BOLB   C1C27401  15.824  12.872   7.556 -0.0280 -0.0301  0.1632
 1142BOLB   C2C27402  15.723  13.132   7.801  0.0835  0.3913 -0.2426
 1142BOLB   C3C27403  15.779  13.552   7.928  0.1373  0.1545  0.1266
 1142BOLB   C4C27404  16.003  13.938   8.085 -0.2640 -0.0394  0.4909
 1142BOLB   C1D27405  15.232  12.928   7.361 -0.0655 -0.2676 -0.3513
 1142BOLB   C2D27406  15.184  13.203   7.712 -0.0685  0.2237 -0.1821
 1142BOLB   C3D27407  15.201  13.067   8.136  0.1133  0.0235  0.1302
 1142BOLB   C4D27408  15.044  13.226   8.566 -0.2568  0.2315 -0.1393
 1143BOLB   NC127409  16.265  21.515  11.375  0.1564  0.4036 -0.1578
 1143BOLB   PO127410  16.213  21.174  11.155  0.1082 -0.2364  0.0970
 1143BOLB   GL127411  16.146  21.276  10.791  0.2008  0.0370  0.1782
 1143BOLB   GL227412  16.416  21.489  10.818 -0.2932  0.2123  0.0934
 1143BOLB   C1A27413  16.052  21.201  10.357 -0.0495 -0.3560 -0.0752
 1143BOLB   C2A27414  15.911  21.402   9.979  0.3903  0.2308  0.1106
 1143BOLB   C3A27415  16.066  21.643   9.688  0.0058 -0.2868 -0.0950
 1143BOLB   C4A27416  16.219  21.586   9.186 -0.0611  0.1128 -0.0331
 1143BOLB   C1B27417  16.249  21.671  10.416  0.0623  0.1077 -0.1086
 1143BOLB   C2B27418  16.341  21.867  10.118 -0.0883  0.1889  0.1249
 1143BOLB   C3B27419  16.453  22.269   9.828 -0.0710  0.0033  0.1256
 1143BOLB   C4B27420  16.641  22.477   9.534 -0.2254  0.1684  0.0460
 1143BOLB   NC227421  15.475  22.897   7.291  0.3424 -0.4216  0.2688
 1143BOLB   PO227422  15.793  23.130   7.539  0.0304 -0.1757 -0.2438
 1143BOLB   GL327423  15.996  22.841   7.798  0.1300  0.1504  0.0664
 1143BOLB   GL427424  16.046  22.463   7.585  0.0463  0.0913 -0.0763
 1143BOLB   C1C27425  15.923  22.554   8.138 -0.2125  0.2256  0.3274
 1143BOLB   C2C27426  15.834  22.148   8.253  0.0392 -0.1014  0.2151
 1143BOLB   C3C27427  16.101  21.954   8.474 -0.2396  0.1933  0.2646
 1143BOLB   C4C27428  16.152  21.768   8.841 -0.1140 -0.0423 -0.0986
 1143BOLB   C1D27429  16.148  22.047   7.889  0.2970 -0.4204  0.2903
 1143BOLB   C2D27430  16.346  21.616   8.181 -0.0550 -0.2501  0.0559
 1143BOLB   C3D27431  16.384  21.448   8.561  0.1597 -0.0368  0.1878
 1143BOLB   C4D27432  16.204  21.219   8.843 -0.0565  0.2664 -0.2158
 1144BOLB   NC127433  11.552  20.400  10.897 -0.1964 -0.2786 -0.0113
 1144BOLB   PO127434  11.306  20.345  11.174 -0.2556  0.1088  0.1793
 1144BOLB   GL127435  11.116  20.415  10.745  0.0014 -0.0080  0.0686
 1144BOLB   GL227436  10.818  20.313  10.863 -0.1512  0.0788  0.2022
 1144BOLB   C1A27437  11.062  20.557  10.367  0.0273 -0.1508  0.1609
 1144BOLB   C2A27438  10.898  20.236  10.075 -0.0945 -0.1457  0.0622
 1144BOLB   C3A27439  10.858  20.261   9.633 -0.2251  0.0428  0.0730
 1144BOLB   C4A27440  10.999  20.362   9.228  0.2423  0.1181  0.2456
 1144BOLB   C1B27441  10.520  20.302  10.630 -0.0267 -0.2098 -0.0141
 1144BOLB   C2B27442  10.366  20.134  10.305 -0.4162 -0.0370 -0.3196
 1144BOLB   C3B27443  10.272  20.109   9.876  0.1935  0.0300  0.2137
 1144BOLB   C4B27444  10.482  20.083   9.489 -0.1857  0.1629 -0.1330
 1144BOLB   NC227445  10.315  20.634   7.286  0.1930  0.1687  0.1057
 1144BOLB   PO227446  10.585  20.881   7.068 -0.1720 -0.0029  0.0301
 1144BOLB   GL327447  10.805  20.541   7.347  0.1426  0.0073 -0.2253
 1144BOLB   GL427448  11.135  20.509   7.361 -0.0096 -0.1729  0.2975
 1144BOLB   C1C27449  10.829  20.451   7.804  0.3555 -0.0267  0.0352
 1144BOLB   C2C27450  10.865  20.724   8.099  0.1012 -0.0800  0.0110
 1144BOLB   C3C27451  10.969  20.710   8.503  0.1009 -0.0411 -0.0715
 1144BOLB   C4C27452  10.925  20.447   8.887 -0.0722  0.0492  0.0646
 1144BOLB   C1D27453  11.245  20.256   7.739 -0.0036 -0.0704 -0.2249
 1144BOLB   C2D27454  11.316  20.012   8.030 -0.2841  0.1068 -0.0163
 1144BOLB   C3D27455  11.240  19.864   8.358  0.1716  0.0632 -0.1580
 1144BOLB   C4D27456  11.336  20.028   8.823 -0.1679 -0.4723  0.3745
 1145BOLB   NC127457  16.572  15.534  10.624 -0.1767 -0.3271  0.1032
 1145BOLB   PO127458  16.705  15.347  10.304  0.1097  0.0484 -0.2640
 1145BOLB   GL127459  16.876  15.135   9.917 -0.1439  0.2070  0.2391
 1145BOLB   GL227460  17.027  14.771   9.867 -0.0579  0.2465  0.1763
 1145BOLB   C1A27461  16.722  14.731   9.502 -0.3232  0.0208 -0.1920
 1145BOLB   C2A27462  16.709  14.462   9.201 -0.0892  0.0369 -0.2523
 1145BOLB   C3A27463  16.771  14.524   8.782 -0.1608 -0.0256 -0.0863
 1145BOLB   C4A27464  16.810  14.465   8.378  0.0903  0.3175  0.0154
 1145BOLB   C1B27465  17.252  14.752   9.550  0.0339 -0.0894 -0.0523
 1145BOLB   C2B27466  17.212  14.736   9.083 -0.2720 -0.3145 -0.5612
 1145BOLB   C3B27467  17.312  14.600   8.713 -0.1867 -0.0788 -0.1918
 1145BOLB   C4B27468  17.425  14.444   8.329 -0.4280 -0.1423  0.4843
 1145BOLB   NC227469  18.159  13.327   6.755  0.0974 -0.2441 -0.1155
 1145BOLB   PO227470  18.358  13.721   6.741  0.1519  0.0992 -0.2063
 1145BOLB   GL327471  18.245  13.961   7.002  0.1498 -0.2509 -0.2089
 1145BOLB   GL427472  18.266  14.333   6.975 -0.2206 -0.0427 -0.0273
 1145BOLB   C1C27473  17.853  14.027   7.153  0.1240  0.0781 -0.1013
 1145BOLB   C2C27474  17.646  14.469   7.232 -0.1085 -0.0800 -0.3006
 1145BOLB   C3C27475  17.317  14.495   7.591 -0.3584  0.1653 -0.2252
 1145BOLB   C4C27476  16.993  14.645   7.941 -0.1518  0.0750 -0.1014
 1145BOLB   C1D27477  18.234  14.355   7.321  0.2157 -0.2981 -0.3566
 1145BOLB   C2D27478  18.083  14.536   7.695 -0.0865  0.0246  0.1207
 1145BOLB   C3D27479  18.027  14.732   8.051 -0.2022  0.0926 -0.0401
 1145BOLB   C4D27480  17.757  14.903   8.399  0.2067 -0.0183 -0.2936
 1146BOLB   NC127481  19.874  18.536  10.590 -0.0983  0.0096 -0.2207
 1146BOLB   PO127482  20.197  18.261  10.512  0.0658  0.0715 -0.0775
 1146BOLB   GL127483  20.079  18.350  10.150  0.1229 -0.4739  0.0697
 1146BOLB   GL227484  20.154  18.627  10.056  0.3679  0.0440  0.0550
 1146BOLB   C1A27485  20.044  18.252   9.647 -0.2049  0.0108 -0.4795
 1146BOLB   C2A27486  20.060  18.135   9.191 -0.1854  0.1278  0.3400
 1146BOLB   C3A27487  20.001  18.273   8.757  0.2316  0.0819  0.1226
 1146BOLB   C4A27488  19.849  18.159   8.455 -0.2056  0.1426 -0.1734
 1146BOLB   C1B27489  20.323  18.685   9.582  0.2250  0.0288  0.0703
 1146BOLB   C2B27490  20.490  19.030   9.336  0.1441  0.0378 -0.0310
 1146BOLB   C3B27491  20.713  19.376   9.165  0.0733 -0.1622  0.0837
 1146BOLB   C4B27492  20.721  19.747   8.877  0.2598 -0.1886 -0.0579
 1146BOLB   NC227493  20.315  17.370   6.236  0.1169 -0.0217  0.0431
 1146BOLB   PO227494  20.572  17.020   6.385  0.2827  0.0849  0.2457
 1146BOLB   GL327495  20.545  17.226   6.866 -0.0498  0.1160  0.3663
 1146BOLB   GL427496  20.757  17.484   6.946 -0.0604  0.0365 -0.0239
 1146BOLB   C1C27497  20.417  17.025   7.233 -0.3038  0.1697  0.1915
 1146BOLB   C2C27498  20.053  17.179   7.338 -0.1883  0.1388  0.3886
 1146BOLB   C3C27499  19.959  17.551   7.613  0.1042  0.2828 -0.0666
 1146BOLB   C4C27500  20.056  17.896   8.038  0.4057  0.2243  0.0507
 1146BOLB   C1D27501  20.431  17.508   7.290  0.1401  0.1084 -0.0051
 1146BOLB   C2D27502  20.509  17.775   7.610  0.1219 -0.0707  0.0348
 1146BOLB   C3D27503  20.225  18.138   7.600  0.0764  0.2128  0.2592
 1146BOLB   C4D27504  19.807  18.040   7.514 -0.0291 -0.0792  0.1313
 1147BOLB   NC127505  12.520  21.192  11.219  0.0875 -0.0861  0.1347
 1147BOLB   PO127506  12.144  21.274  11.114  0.2267 -0.3419 -0.0059
 1147BOLB   GL127507  11.852  21.172  10.694  0.1338  0.2158 -0.2420
 1147BOLB   GL227508  11.885  20.846  10.586  0.2378  0.1036  0.0233
 1147BOLB   C1A27509  11.905  21.107  10.159  0.0018  0.0601 -0.2820
 1147BOLB   C2A27510  12.009  21.080   9.602  0.1506 -0.1451  0.1236
 1147BOLB   C3A27511  12.257  20.828   9.263  0.3557 -0.1560 -0.0439
 1147BOLB   C4A27512  12.323  20.773   8.827 -0.2795  0.0857 -0.3914
 1147BOLB   C1B27513  11.448  20.890  10.373 -0.1057  0.0959  0.1660
 1147BOLB   C2B27514  11.427  21.291  10.237  0.0659  0.0364  0.1604
 1147BOLB   C3B27515  11.330  21.431   9.814 -0.0611  0.1006 -0.2334
 1147BOLB   C4B27516  11.340  21.440   9.403 -0.0307  0.0551  0.0383
 1147BOLB   NC227517  12.824  21.286   6.745  0.0419 -0.1790 -0.0000
 1147BOLB   PO227518  13.094  21.501   6.900  0.0377 -0.2539  0.1188
 1147BOLB   GL327519  13.006  21.744   7.232 -0.1530  0.2868 -0.4404
 1147BOLB   GL427520  13.283  21.687   7.451  0.0856  0.0468  0.2997
 1147BOLB   C1C27521  12.724  21.596   7.564 -0.3824 -0.2233  0.2322
 1147BOLB   C2C27522  12.584  21.227   7.677 -0.1091 -0.1207  0.3113
 1147BOLB   C3C27523  12.349  21.035   8.031 -0.1548 -0.1447 -0.1412
 1147BOLB   C4C27524  12.318  20.957   8.443  0.1015  0.0232 -0.1036
 1147BOLB   C1D27525  13.265  21.773   7.905  0.1327 -0.0947  0.1698
 1147BOLB   C2D27526  13.234  21.671   8.367 -0.3289 -0.1868  0.1431
 1147BOLB   C3D27527  13.584  21.624   8.647  0.0478  0.0433 -0.1618
 1147BOLB   C4D27528  13.910  21.690   8.772 -0.1801 -0.1030 -0.2104
 1148BOLB   NC127529  16.960  11.428  12.188 -0.1557  0.1104 -0.0009
 1148BOLB   PO127530  16.840  11.672  11.744  0.3962  0.0765 -0.1074
 1148BOLB   GL127531  16.933  11.393  11.391  0.1243 -0.1758 -0.4030
 1148BOLB   GL227532  17.312  11.472  11.324 -0.3985  0.0669 -0.0920
 1148BOLB   C1A27533  16.977  11.145  11.007 -0.0862 -0.0830  0.3181
 1148BOLB   C2A27534  16.889  10.997  10.590 -0.0072 -0.2317  0.0066
 1148BOLB   C3A27535  17.116  10.833  10.171  0.1446 -0.2317 -0.1553
 1148BOLB   C4A27536  17.457  10.991  10.153 -0.0809  0.0714  0.1819
 1148BOLB   C1B27537  17.416  11.353  10.945  0.2134  0.1459 -0.0458
 1148BOLB   C2B27538  17.500  10.999  10.615  0.0928  0.2061 -0.2243
 1148BOLB   C3B27539  17.358  10.566  10.499 -0.1050 -0.2068 -0.2887
 1148BOLB   C4B27540  17.382  10.240  10.313 -0.2180  0.0217  0.0577
 1148BOLB   NC227541  17.190  10.265   7.733  0.2313  0.2097  0.0429
 1148BOLB   PO227542  17.530  10.319   7.703  0.0154  0.1443 -0.1056
 1148BOLB   GL327543  17.604  10.501   8.122  0.0763  0.0933  0.1137
 1148BOLB   GL427544  17.460  10.699   8.151 -0.0094  0.0959 -0.1103
 1148BOLB   C1C27545  17.618  10.418   8.555  0.0134 -0.0138  0.3444
 1148BOLB   C2C27546  17.664  10.638   8.898  0.4613 -0.0570  0.1876
 1148BOLB   C3C27547  17.617  10.771   9.381  0.0305 -0.0273 -0.1766
 1148BOLB   C4C27548  17.616  11.073   9.736 -0.0851 -0.1488  0.0963
 1148BOLB   C1D27549  17.301  11.102   8.436 -0.0783 -0.1601 -0.0493
 1148BOLB   C2D27550  17.109  11.486   8.595  0.2677  0.0042  0.0403
 1148BOLB   C3D27551  16.920  11.824   8.765 -0.0027  0.0789  0.1011
 1148BOLB   C4D27552  16.883  12.200   8.990 -0.0815  0.1014  0.2584
 1149BOLB   NC127553  15.462  16.322  10.562  0.0210 -0.1866 -0.3090
 1149BOLB   PO127554  15.471  16.200  10.154  0.0273 -0.2432 -0.3610
 1149BOLB   GL127555  15.485  16.064   9.756  0.0232 -0.0958 -0.0135
 1149BOLB   GL227556  15.766  16.200   9.559 -0.0058  0.0616 -0.0280
 1149BOLB   C1A27557  15.353  16.071   9.310 -0.0737 -0.1227  0.3022
 1149BOLB   C2A27558  15.542  15.911   8.980 -0.0794 -0.0478 -0.2870
 1149BOLB   C3A27559  15.613  15.945   8.427  0.2471  0.1092  0.0501
 1149BOLB   C4A27560  15.625  16.067   7.966 -0.1126  0.0512 -0.3179
 1149BOLB   C1B27561  15.816  16.292   9.122 -0.0392  0.1254 -0.0293
 1149BOLB   C2B27562  15.685  16.378   8.657 -0.0705  0.0076  0.0266
 1149BOLB   C3B27563  15.740  16.438   8.326 -0.1072 -0.1395 -0.3234
 1149BOLB   C4B27564  15.770  16.494   7.779 -0.0710  0.1956 -0.1067
 1149BOLB   NC227565  16.629  16.334   5.463  0.3167 -0.1939  0.1160
 1149BOLB   PO227566  16.458  16.096   5.875  0.1561  0.1425  0.0838
 1149BOLB   GL327567  16.167  16.091   6.301  0.2214  0.1541  0.4268
 1149BOLB   GL427568  16.101  15.828   6.475 -0.0617 -0.2422 -0.3846
 1149BOLB   C1C27569  16.307  16.098   6.850 -0.0099  0.1213  0.1735
 1149BOLB   C2C27570  16.352  15.784   7.158  0.1743  0.0183  0.3047
 1149BOLB   C3C27571  16.083  15.805   7.341 -0.0037 -0.0181 -0.3143
 1149BOLB   C4C27572  15.891  15.977   7.576  0.1649 -0.0058 -0.1470
 1149BOLB   C1D27573  15.827  16.008   6.856  0.0762 -0.0197 -0.1418
 1149BOLB   C2D27574  15.554  16.210   7.070 -0.1840 -0.0135 -0.1742
 1149BOLB   C3D27575  15.404  16.247   7.510 -0.0227 -0.0156 -0.0444
 1149BOLB   C4D27576  15.072  16.115   7.788  0.0410  0.2983 -0.2471
 1150BOLB   NC127577  14.084  10.562  12.231  0.2703  0.1724 -0.0436
 1150BOLB   PO127578  13.847  10.287  11.982  0.1166 -0.0420 -0.0345
 1150BOLB   GL127579  13.961  10.154  11.498 -0.1005 -0.1612  0.0549
 1150BOLB   GL227580  13.727  10.146  11.417  0.1860 -0.0039  0.0199
 1150BOLB   C1A27581  14.181  10.086  11.142  0.3829  0.1902  0.3641
 1150BOLB   C2A27582  14.487  10.119  10.838  0.3254 -0.1641  0.2533
 1150BOLB   C3A27583  14.514  10.148  10.348 -0.1356  0.0425  0.1553
 1150BOLB   C4A27584  14.605  10.130   9.944  0.0918 -0.2241  0.1489
 1150BOLB   C1B27585  13.613   9.993  11.077  0.5273 -0.2846  0.3870
 1150BOLB   C2B27586  13.603   9.830  10.715  0.2089  0.2287 -0.1751
 1150BOLB   C3B27587  13.310   9.703  10.376 -0.1171 -0.2670  0.1014
 1150BOLB   C4B27588  13.389   9.506  10.064 -0.1987  0.1715  0.2040
 1150BOLB   NC227589  15.615   8.989   7.686 -0.0699 -0.0314 -0.0701
 1150BOLB   PO227590  15.310   9.183   7.828 -0.1393 -0.0069 -0.4353
 1150BOLB   GL327591  15.040   9.347   8.159  0.1680 -0.0827  0.2757
 1150BOLB   GL427592  14.677   9.363   8.319  0.0990  0.2801 -0.0330
 1150BOLB   C1C27593  15.103   9.651   8.412  0.4684  0.0966  0.0625
 1150BOLB   C2C27594  15.147   9.766   8.915 -0.0379 -0.0275  0.0464
 1150BOLB   C3C27595  15.014   9.833   9.277 -0.2433 -0.0369 -0.3716
 1150BOLB   C4C27596  15.012   9.980   9.701 -0.1174 -0.0923 -0.1933
 1150BOLB   C1D27597  14.901   9.293   8.776  0.2180  0.6208  0.2399
 1150BOLB   C2D27598  14.825   9.371   9.223  0.1556  0.0015 -0.2329
 1150BOLB   C3D27599  14.297   9.348   9.389 -0.0799 -0.1045 -0.0304
 1150BOLB   C4D27600  14.032   9.359   9.083  0.1494  0.3233  0.0350
 1151BOLB   NC127601  22.762  22.382  13.682  0.1030  0.0057  0.3374
 1151BOLB   PO127602  22.780  22.648  13.327 -0.0345 -0.0829 -0.1262
 1151BOLB   GL127603  22.579  22.617  12.903 -0.1443 -0.1983  0.4410
 1151BOLB   GL227604  22.587  22.374  12.695  0.2000  0.1132  0.1829
 1151BOLB   C1A27605  22.428  22.818  12.515  0.2006  0.1212 -0.1042
 1151BOLB   C2A27606  22.323  22.895  12.062 -0.3994 -0.4360 -0.0228
 1151BOLB   C3A27607  22.070  23.102  11.692  0.0383 -0.2365 -0.1176
 1151BOLB   C4A27608  21.931  23.339  11.385  0.0489  0.0636  0.1080
 1151BOLB   C1B27609  22.961  22.628  12.540 -0.0390  0.1098  0.1292
 1151BOLB   C2B27610  22.832  22.918  12.239  0.2328 -0.1551 -0.0907
 1151BOLB   C3B27611  22.799  23.285  12.356  0.0626  0.2214  0.0638
 1151BOLB   C4B27612  23.004  23.628  12.528  0.2319  0.2203  0.0691
 1151BOLB   NC227613  21.712  24.866   9.586 -0.0467 -0.0924 -0.0733
 1151BOLB   PO227614  21.328  24.952   9.615 -0.3693 -0.2603 -0.0096
 1151BOLB   GL327615  21.393  24.721   9.945 -0.1998 -0.2185 -0.0621
 1151BOLB   GL427616  21.656  24.889  10.080  0.0966  0.1041 -0.0036
 1151BOLB   C1C27617  21.635  24.411  10.183  0.2373  0.0812 -0.2190
 1151BOLB   C2C27618  21.639  24.003  10.381 -0.3045 -0.2665 -0.0023
 1151BOLB   C3C27619  21.540  23.747  10.680  0.0157 -0.3809  0.0890
 1151BOLB   C4C27620  21.673  23.489  11.010 -0.1771 -0.0109  0.0433
 1151BOLB   C1D27621  21.253  24.855  10.370 -0.0616 -0.1797 -0.4118
 1151BOLB   C2D27622  20.985  24.949  10.723  0.2875  0.0609  0.1497
 1151BOLB   C3D27623  20.783  24.733  11.035 -0.0257  0.3548  0.0102
 1151BOLB   C4D27624  20.715  24.352  11.280  0.0366 -0.0839  0.1796
 1152BOLB   NC127625  14.663  19.473  10.763 -0.1279 -0.1143  0.1129
 1152BOLB   PO127626  14.278  19.329  10.496 -0.2560  0.0059  0.1080
 1152BOLB   GL127627  14.421  19.742  10.212  0.1940 -0.0266 -0.0125
 1152BOLB   GL227628  14.773  20.034  10.057  0.1682  0.2938  0.0919
 1152BOLB   C1A27629  14.187  19.806   9.747 -0.1016 -0.0039  0.0750
 1152BOLB   C2A27630  13.777  19.764   9.548  0.3289  0.0806 -0.0065
 1152BOLB   C3A27631  13.698  19.850   9.190  0.0093  0.0868  0.1354
 1152BOLB   C4A27632  13.927  19.883   8.750  0.3063 -0.1469 -0.0037
 1152BOLB   C1B27633  14.607  20.155   9.724 -0.1189  0.2673  0.1329
 1152BOLB   C2B27634  14.557  20.372   9.360 -0.3332  0.0778  0.3290
 1152BOLB   C3B27635  14.345  20.410   8.985  0.2457  0.0562  0.0410
 1152BOLB   C4B27636  14.212  20.576   8.622  0.0345 -0.0664  0.4856
 1152BOLB   NC227637  14.778  20.375   6.293  0.1037  0.2484  0.4127
 1152BOLB   PO227638  14.425  20.457   6.374 -0.0332  0.0337  0.0952
 1152BOLB   GL327639  14.543  20.599   6.804  0.2768  0.2884 -0.1223
 1152BOLB   GL427640  14.624  20.956   6.755 -0.1624 -0.2371  0.3065
 1152BOLB   C1C27641  14.459  20.438   7.245 -0.1255  0.3164 -0.2061
 1152BOLB   C2C27642  14.436  20.431   7.669 -0.3728  0.0308 -0.1227
 1152BOLB   C3C27643  14.452  20.205   8.107 -0.2386  0.3446  0.0756
 1152BOLB   C4C27644  14.112  20.080   8.422  0.0264 -0.1447 -0.0682
 1152BOLB   C1D27645  14.737  20.939   7.178  0.2911 -0.1206  0.0116
 1152BOLB   C2D27646  14.482  21.265   7.550 -0.3369  0.1654 -0.2901
 1152BOLB   C3D27647  14.158  21.401   7.750  0.1220 -0.0450  0.2522
 1152BOLB   C4D27648  13.848  21.268   7.933  0.0063  0.2142 -0.0245
 1153BOLB   NC127649  18.316  21.144  11.335 -0.1692  0.0358 -0.0626
 1153BOLB   PO127650  18.006  21.284  11.463 -0.0851 -0.1541 -0.2676
 1153BOLB   GL127651  17.999  21.427  10.984 -0.2551 -0.0564 -0.0939
 1153BOLB   GL227652  18.213  21.664  10.913 -0.1415 -0.4063  0.2322
 1153BOLB   C1A27653  17.903  21.465  10.571 -0.0415 -0.0694  0.0951
 1153BOLB   C2A27654  17.913  21.580  10.173  0.0131  0.0793 -0.0079
 1153BOLB   C3A27655  17.888  21.946  10.015 -0.0475  0.2633  0.0402
 1153BOLB   C4A27656  18.061  22.406   9.892 -0.1248  0.0988 -0.0624
 1153BOLB   C1B27657  18.039  22.083  10.827  0.1270  0.2118  0.0832
 1153BOLB   C2B27658  18.226  22.369  10.466  0.2295  0.0840 -0.0873
 1153BOLB   C3B27659  18.522  22.566  10.367  0.0359 -0.1570 -0.1787
 1153BOLB   C4B27660  19.003  22.368  10.428  0.2531  0.0936 -0.0871
 1153BOLB   NC227661  18.096  23.556   8.035 -0.0427 -0.1787 -0.0081
 1153BOLB   PO227662  18.489  23.707   7.942  0.1305  0.0410 -0.3420
 1153BOLB   GL327663  18.528  23.564   8.359 -0.2326  0.2357  0.2500
 1153BOLB   GL427664  18.521  23.170   8.513  0.2938 -0.2705  0.1113
 1153BOLB   C1C27665  18.308  23.619   8.733 -0.0802 -0.3473 -0.0265
 1153BOLB   C2C27666  18.106  23.310   9.130 -0.2818 -0.0951  0.0480
 1153BOLB   C3C27667  17.838  22.985   9.256 -0.2977  0.1242  0.1694
 1153BOLB   C4C27668  17.840  22.853   9.624  0.0113 -0.0132 -0.1832
 1153BOLB   C1D27669  18.262  22.927   8.357  0.0052 -0.0537  0.4508
 1153BOLB   C2D27670  18.134  22.536   8.163 -0.3028 -0.0063 -0.4556
 1153BOLB   C3D27671  18.339  22.116   8.323 -0.1879  0.0306  0.0847
 1153BOLB   C4D27672  18.176  21.734   8.422 -0.0520 -0.0292 -0.0850
 1154BOLB   NC127673  14.333  24.426  13.446 -0.0826 -0.1899 -0.0192
 1154BOLB   PO127674  14.659  24.547  13.687  0.4478 -0.1123  0.0086
 1154BOLB   GL127675  14.667  24.855  13.355 -0.1999 -0.0322 -0.2070
 1154BOLB   GL227676  14.780  25.192  13.465 -0.0237  0.0353  0.1153
 1154BOLB   C1A27677  14.697  25.092  12.964  0.0766 -0.0514 -0.2130
 1154BOLB   C2A27678  14.669  25.283  12.651  0.0910  0.3486  0.0999
 1154BOLB   C3A27679  14.421  25.264  12.342 -0.0916  0.0960  0.0006
 1154BOLB   C4A27680  14.436  25.642  12.082  0.2352 -0.1520 -0.0827
 1154BOLB   C1B27681  14.764  25.568  13.543  0.0419 -0.0008 -0.4167
 1154BOLB   C2B27682  14.508  25.909  13.475  0.0295  0.0293 -0.3285
 1154BOLB   C3B27683  14.306  26.279  13.448  0.4793 -0.1587  0.1973
 1154BOLB   C4B27684  13.994  26.324  13.089  0.0232 -0.4490  0.1315
 1154BOLB   NC227685  14.369  27.768  11.064  0.3003  0.2219  0.1404
 1154BOLB   PO227686  14.781  27.880  11.121  0.2288  0.2635 -0.1208
 1154BOLB   GL327687  14.602  27.631  11.497  0.0127  0.0840 -0.0446
 1154BOLB   GL427688  14.334  27.744  11.657 -0.0529 -0.2019 -0.0298
 1154BOLB   C1C27689  14.654  27.244  11.588 -0.1157 -0.0506 -0.0536
 1154BOLB   C2C27690  14.817  26.828  11.856  0.2885 -0.2208  0.1458
 1154BOLB   C3C27691  14.577  26.475  11.887 -0.2102 -0.0432  0.0141
 1154BOLB   C4C27692  14.616  26.025  12.105  0.3551 -0.2430  0.3686
 1154BOLB   C1D27693  14.036  27.553  11.875  0.0750 -0.0258  0.1245
 1154BOLB   C2D27694  13.961  27.165  12.103  0.0062  0.0038  0.0470
 1154BOLB   C3D27695  13.857  26.904  12.477 -0.0487 -0.3286  0.0510
 1154BOLB   C4D27696  14.189  26.692  12.756 -0.2314  0.1416 -0.1842
 1155BOLB   NC127697   9.993  24.848  12.537  0.0702 -0.3293 -0.0596
 1155BOLB   PO127698  10.352  24.536  12.560  0.1572  0.0267  0.1612
 1155BOLB   GL127699  10.120  24.495  12.116  0.0614  0.3065 -0.0253
 1155BOLB   GL227700  10.145  24.807  11.962  0.1445  0.1920 -0.2601
 1155BOLB   C1A27701  10.131  24.329  11.711  0.0923 -0.1132 -0.0645
 1155BOLB   C2A27702  10.405  24.275  11.404  0.1352  0.3641 -0.3789
 1155BOLB   C3A27703  10.382  24.655  11.036 -0.1274 -0.1665 -0.0420
 1155BOLB   C4A27704  10.423  24.616  10.561 -0.3607 -0.0044  0.0801
 1155BOLB   C1B27705  10.338  24.843  11.589  0.2462  0.0410  0.2069
 1155BOLB   C2B27706  10.453  25.070  11.317  0.0427 -0.3379 -0.1506
 1155BOLB   C3B27707  10.592  25.069  10.883  0.0940  0.0538 -0.1839
 1155BOLB   C4B27708  10.625  25.034  10.434 -0.0743 -0.1994  0.3579
 1155BOLB   NC227709  10.198  25.645   8.532 -0.0119  0.0391 -0.1061
 1155BOLB   PO227710  10.261  25.953   8.942 -0.0452  0.0006 -0.0823
 1155BOLB   GL327711  10.316  25.553   9.119 -0.1289  0.1127 -0.2323
 1155BOLB   GL427712  10.178  25.238   8.973 -0.0390  0.3393  0.0271
 1155BOLB   C1C27713  10.555  25.159   9.265  0.0555 -0.2011  0.0959
 1155BOLB   C2C27714  10.424  24.872   9.526 -0.1549  0.0259 -0.3440
 1155BOLB   C3C27715  10.225  24.602   9.855 -0.0313  0.1399  0.1687
 1155BOLB   C4C27716  10.369  24.560  10.175  0.1288  0.3152 -0.2477
 1155BOLB   C1D27717  10.035  24.842   9.164 -0.1668 -0.4239  0.0637
 1155BOLB   C2D27718   9.920  24.401   8.940  0.1071 -0.0736  0.3745
 1155BOLB   C3D27719   9.963  24.078   8.939 -0.1545 -0.0787 -0.0929
 1155BOLB   C4D27720  10.251  23.743   9.185  0.3871 -0.1078 -0.0056
 1156BOLB   NC127721  16.206  10.877  12.665  0.2270  0.4467  0.3254
 1156BOLB   PO127722  16.526  10.638  12.351  0.0360  0.2210  0.1075
 1156BOLB   GL127723  16.592  10.431  11.973  0.0143  0.1838  0.0915
 1156BOLB   GL227724  16.545  10.692  11.793 -0.1082 -0.0294 -0.3927
 1156BOLB   C1A27725  16.377  10.177  11.607 -0.2185 -0.3007  0.1086
 1156BOLB   C2A27726  16.605   9.993  11.275 -0.0953  0.1637  0.0791
 1156BOLB   C3A27727  16.716   9.775  11.078 -0.2669 -0.1783  0.4425
 1156BOLB   C4A27728  16.917   9.474  10.867  0.0834 -0.1446 -0.0987
 1156BOLB   C1B27729  16.746  10.429  11.532  0.2829 -0.3063 -0.2321
 1156BOLB   C2B27730  17.039  10.182  11.128  0.0827 -0.2219  0.0550
 1156BOLB   C3B27731  17.179  10.076  10.741  0.1641  0.3500  0.0642
 1156BOLB   C4B27732  17.194   9.764  10.406  0.1033 -0.4335  0.1072
 1156BOLB   NC227733  16.793   7.247   8.797 -0.0459 -0.0273 -0.3355
 1156BOLB   PO227734  16.702   7.431   9.261 -0.1724 -0.0432 -0.1399
 1156BOLB   GL327735  16.599   7.592   9.686  0.0767 -0.0229 -0.1491
 1156BOLB   GL427736  16.205   7.678   9.788 -0.1723  0.0369 -0.0072
 1156BOLB   C1C27737  16.671   7.979   9.987  0.2078 -0.1194 -0.0131
 1156BOLB   C2C27738  16.668   8.386  10.162 -0.2997  0.1952 -0.0517
 1156BOLB   C3C27739  16.886   8.655  10.348 -0.3167 -0.0621 -0.2729
 1156BOLB   C4C27740  17.021   9.046  10.569 -0.0568  0.0841  0.1752
 1156BOLB   C1D27741  16.042   8.001  10.067 -0.0037  0.0253 -0.1761
 1156BOLB   C2D27742  15.950   8.350  10.303 -0.2200 -0.2022 -0.1367
 1156BOLB   C3D27743  15.842   8.737  10.630  0.0058  0.0850 -0.2577
 1156BOLB   C4D27744  15.780   8.792  11.097 -0.1307 -0.1149  0.2459
 1157BOLB   NC127745  17.688  20.475  11.498 -0.0313  0.0164 -0.1737
 1157BOLB   PO127746  17.433  20.672  11.120  0.1806  0.0481 -0.2959
 1157BOLB   GL127747  17.600  20.764  10.674  0.0284 -0.1902 -0.3708
 1157BOLB   GL227748  17.522  20.969  10.525 -0.0713  0.1479 -0.1342
 1157BOLB   C1A27749  17.762  20.695  10.227 -0.0618 -0.2388  0.1536
 1157BOLB   C2A27750  17.601  20.838   9.893  0.2136 -0.1356  0.1099
 1157BOLB   C3A27751  17.450  21.212   9.708  0.0167 -0.4538  0.0656
 1157BOLB   C4A27752  17.524  21.497   9.278  0.1414 -0.0865  0.1558
 1157BOLB   C1B27753  17.560  21.219  10.278  0.0526 -0.0814 -0.1110
 1157BOLB   C2B27754  17.129  21.290  10.101  0.0491  0.0648  0.2012
 1157BOLB   C3B27755  16.947  21.628  10.021 -0.2406 -0.3041 -0.0466
 1157BOLB   C4B27756  16.946  22.029   9.767 -0.3383  0.0366  0.1228
 1157BOLB   NC227757  18.245  22.907   7.394 -0.2850  0.1566  0.2828
 1157BOLB   PO227758  18.633  22.857   7.707  0.3527 -0.0023 -0.1246
 1157BOLB   GL327759  18.686  22.598   8.060 -0.3937 -0.3049  0.0062
 1157BOLB   GL427760  19.002  22.702   8.219  0.3863 -0.1500  0.1423
 1157BOLB   C1C27761  18.563  22.510   8.482  0.0816  0.1060  0.0443
 1157BOLB   C2C27762  18.214  22.424   8.688  0.3942  0.0828 -0.3476
 1157BOLB   C3C27763  17.880  22.178   8.885  0.1240  0.0001 -0.1988
 1157BOLB   C4C27764  17.738  21.787   9.052 -0.0512 -0.0530 -0.0858
 1157BOLB   C1D27765  18.970  22.920   8.585  0.1488  0.3639 -0.0233
 1157BOLB   C2D27766  19.004  22.929   8.979  0.0913  0.2632  0.0399
 1157BOLB   C3D27767  19.158  22.997   9.407 -0.2379 -0.1053 -0.0008
 1157BOLB   C4D27768  19.151  23.106   9.807 -0.0586  0.0702  0.2302
 1158BOLB   NC127769  15.145  17.330  10.283  0.2010 -0.1715  0.0323
 1158BOLB   PO127770  14.984  17.761  10.160  0.6014  0.0678 -0.0419
 1158BOLB   GL127771  14.950  17.772   9.693 -0.5078  0.1249 -0.0139
 1158BOLB   GL227772  15.097  18.006   9.585  0.0486 -0.2156 -0.3137
 1158BOLB   C1A27773  14.817  17.743   9.194  0.4088  0.0781 -0.0759
 1158BOLB   C2A27774  14.600  17.660   8.860  0.1729  0.3378 -0.3124
 1158BOLB   C3A27775  14.407  17.750   8.490 -0.3685 -0.4227  0.2694
 1158BOLB   C4A27776  14.194  17.504   8.100 -0.0058 -0.1092 -0.2745
 1158BOLB   C1B27777  15.048  18.153   9.198  0.0804 -0.0009  0.1108
 1158BOLB   C2B27778  14.839  18.186   8.789  0.0795 -0.0958 -0.1956
 1158BOLB   C3B27779  14.473  18.269   8.479  0.1367  0.0665  0.3552
 1158BOLB   C4B27780  14.274  18.501   8.197 -0.1101 -0.0010 -0.1622
 1158BOLB   NC227781  13.756  17.735   5.593  0.0250  0.0032  0.3276
 1158BOLB   PO227782  13.892  18.009   5.858 -0.2580  0.1236 -0.2471
 1158BOLB   GL327783  13.859  18.111   6.200 -0.0415  0.2969  0.1098
 1158BOLB   GL427784  14.205  17.995   6.297 -0.3113  0.0288 -0.1683
 1158BOLB   C1C27785  13.809  17.806   6.611  0.0528  0.2910  0.2495
 1158BOLB   C2C27786  13.631  17.902   7.087  0.1270  0.1505  0.0316
 1158BOLB   C3C27787  13.629  17.680   7.495  0.1753 -0.3597 -0.0182
 1158BOLB   C4C27788  13.869  17.619   7.859 -0.0900  0.1898 -0.1164
 1158BOLB   C1D27789  14.298  18.161   6.587  0.1807  0.1762 -0.3511
 1158BOLB   C2D27790  14.122  18.398   6.998  0.0716 -0.2360 -0.0956
 1158BOLB   C3D27791  14.005  18.502   7.435  0.0408 -0.0497 -0.1124
 1158BOLB   C4D27792  14.354  18.579   7.695 -0.1604 -0.1187 -0.0237
 1159BOLB   NC127793  14.514  13.316  10.738 -0.2161 -0.4200 -0.1514
 1159BOLB   PO127794  14.352  13.314  10.308 -0.1883 -0.1595  0.0146
 1159BOLB   GL127795  14.174  13.452   9.879  0.2714 -0.2801 -0.0313
 1159BOLB   GL227796  14.304  13.674   9.687  0.1365 -0.0086  0.2189
 1159BOLB   C1A27797  13.952  13.157   9.488 -0.1191  0.1567 -0.0410
 1159BOLB   C2A27798  13.949  13.333   8.983  0.2543 -0.0904 -0.1554
 1159BOLB   C3A27799  13.895  13.081   8.729 -0.2296 -0.0501  0.1069
 1159BOLB   C4A27800  13.853  13.114   8.314  0.0723  0.0774  0.2469
 1159BOLB   C1B27801  14.257  13.561   9.374 -0.1042 -0.2754 -0.2746
 1159BOLB   C2B27802  14.514  13.434   9.042 -0.1415  0.1581 -0.0502
 1159BOLB   C3B27803  14.881  13.214   9.014 -0.1376  0.0077  0.0559
 1159BOLB   C4B27804  15.352  12.981   8.842 -0.0614 -0.3806  0.1024
 1159BOLB   NC227805  14.604  11.083   7.089  0.0021 -0.1652  0.2648
 1159BOLB   PO227806  15.047  11.287   6.974  0.1942  0.0543  0.2100
 1159BOLB   GL327807  15.030  11.548   7.233  0.0652 -0.0974 -0.0732
 1159BOLB   GL427808  15.236  11.603   7.474  0.2305  0.1590  0.4798
 1159BOLB   C1C27809  14.862  11.907   7.249 -0.1488  0.2734  0.4396
 1159BOLB   C2C27810  14.504  12.201   7.496 -0.2362 -0.2879  0.0785
 1159BOLB   C3C27811  14.304  12.549   7.718 -0.2134 -0.1889  0.0233
 1159BOLB   C4C27812  14.139  12.891   8.057 -0.2351 -0.0705 -0.0985
 1159BOLB   C1D27813  15.126  11.798   7.830  0.1934  0.0471  0.0487
 1159BOLB   C2D27814  15.239  11.793   8.327 -0.0476  0.0284  0.1845
 1159BOLB   C3D27815  15.297  12.085   8.533  0.0214  0.2465  0.0961
 1159BOLB   C4D27816  15.750  12.223   8.551  0.0036 -0.1842 -0.0222
 1160BOLB   NC127817  11.684   8.209  13.530 -0.0982  0.1463 -0.0039
 1160BOLB   PO127818  11.920   8.037  13.239 -0.2672 -0.1801  0.0745
 1160BOLB   GL127819  12.128   7.827  12.751 -0.2243  0.0843  0.0904
 1160BOLB   GL227820  12.364   7.939  12.647 -0.1242 -0.1235  0.0032
 1160BOLB   C1A27821  12.014   8.019  12.288  0.0511 -0.1292  0.0335
 1160BOLB   C2A27822  12.088   7.971  11.825 -0.2236  0.0137  0.0749
 1160BOLB   C3A27823  12.236   7.613  11.545  0.1712 -0.0123  0.0164
 1160BOLB   C4A27824  12.458   7.331  11.429 -0.2504 -0.1198 -0.0520
 1160BOLB   C1B27825  12.709   7.521  12.369 -0.2493 -0.1707 -0.1288
 1160BOLB   C2B27826  12.978   7.292  12.181 -0.2939 -0.1723 -0.1109
 1160BOLB   C3B27827  13.162   7.304  11.794 -0.3906  0.0855 -0.1327
 1160BOLB   C4B27828  13.393   7.003  11.463  0.0100 -0.1907  0.3309
 1160BOLB   NC227829  11.628   6.524   9.300  0.1273  0.0930 -0.2041
 1160BOLB   PO227830  12.022   6.233   9.472 -0.2327 -0.0590  0.0562
 1160BOLB   GL327831  11.999   6.605   9.620  0.2640  0.0740 -0.0569
 1160BOLB   GL427832  12.093   6.824   9.402 -0.1431 -0.1142 -0.1871
 1160BOLB   C1C27833  12.260   6.793   9.892  0.1179  0.2474  0.2157
 1160BOLB   C2C27834  12.604   6.768  10.097  0.3664 -0.2047 -0.1460
 1160BOLB   C3C27835  12.709   6.924  10.609  0.0222 -0.1097 -0.1717
 1160BOLB   C4C27836  12.750   7.036  11.133  0.3366 -0.0326 -0.0541
 1160BOLB   C1D27837  11.925   7.086   9.699 -0.0429 -0.3648 -0.0756
 1160BOLB   C2D27838  11.904   7.300  10.148  0.0104 -0.0553  0.0156
 1160BOLB   C3D27839  12.388   7.346  10.449  0.2297  0.0045  0.4537
 1160BOLB   C4D27840  12.549   7.712  10.397  0.1655  0.2793  0.3908
 1161BOLB   NC127841  12.503  15.163  10.059  0.4871  0.0209 -0.1710
 1161BOLB   PO127842  12.790  15.210   9.808 -0.3696 -0.3113  0.1399
 1161BOLB   GL127843  12.355  15.052   9.573 -0.1823  0.1298  0.0171
 1161BOLB   GL227844  12.231  15.293   9.434  0.1770 -0.1350  0.1023
 1161BOLB   C1A27845  11.979  14.898   9.248 -0.0160 -0.0924  0.2786
 1161BOLB   C2A27846  11.794  14.638   8.894 -0.2814  0.0968  0.2787
 1161BOLB   C3A27847  11.893  14.591   8.425  0.0755 -0.0646 -0.0569
 1161BOLB   C4A27848  11.723  14.280   8.077 -0.1186 -0.0514 -0.1566
 1161BOLB   C1B27849  12.037  15.485   9.159 -0.0983  0.0878  0.2421
 1161BOLB   C2B27850  12.130  15.531   8.691  0.1483 -0.1816 -0.2697
 1161BOLB   C3B27851  12.096  15.442   8.288  0.2536  0.0004 -0.0839
 1161BOLB   C4B27852  11.834  15.277   7.954  0.1033  0.2554 -0.0074
 1161BOLB   NC227853  11.774  12.740   6.041  0.3163  0.2613 -0.1594
 1161BOLB   PO227854  11.653  12.887   6.477  0.0415 -0.3789  0.3207
 1161BOLB   GL327855  11.636  12.971   6.923  0.1232 -0.0653 -0.0222
 1161BOLB   GL427856  11.739  12.855   7.262  0.0966  0.1310  0.2651
 1161BOLB   C1C27857  11.933  13.237   7.047 -0.0197 -0.0082  0.1225
 1161BOLB   C2C27858  12.209  13.490   7.256 -0.0268 -0.2852  0.0580
 1161BOLB   C3C27859  12.143  13.681   7.655  0.0745  0.2509 -0.2060
 1161BOLB   C4C27860  11.871  14.027   7.899  0.1710  0.3896 -0.3258
 1161BOLB   C1D27861  12.112  12.866   7.423  0.1670 -0.2574 -0.0023
 1161BOLB   C2D27862  12.387  12.754   7.686  0.3089  0.2015 -0.1008
 1161BOLB   C3D27863  12.277  12.541   8.094  0.2934 -0.0719 -0.4111
 1161BOLB   C4D27864  12.173  12.426   8.564 -0.1504 -0.0975  0.3103
 1162BOLB   NC127865  16.745  17.388  10.341 -0.0719 -0.2266  0.2797
 1162BOLB   PO127866  17.094  17.765  10.201  0.0162 -0.2631  0.1739
 1162BOLB   GL127867  17.151  17.929   9.757 -0.1689 -0.0186 -0.1208
 1162BOLB   GL227868  17.230  18.216   9.815 -0.2324 -0.2550 -0.0623
 1162BOLB   C1A27869  16.927  18.121   9.376  0.0117 -0.0658 -0.0362
 1162BOLB   C2A27870  16.811  18.355   8.978 -0.1874  0.1838  0.1879
 1162BOLB   C3A27871  16.749  18.463   8.462  0.0383 -0.1799  0.0429
 1162BOLB   C4A27872  16.585  18.842   8.205 -0.1465  0.1840 -0.0840
 1162BOLB   C1B27873  17.154  18.577   9.616  0.0228  0.0531  0.0573
 1162BOLB   C2B27874  17.271  18.556   9.194  0.0148 -0.0969 -0.2184
 1162BOLB   C3B27875  17.765  18.501   8.978  0.1872 -0.1409 -0.0481
 1162BOLB   C4B27876  18.196  18.362   8.816  0.1656  0.0288 -0.1891
 1162BOLB   NC227877  18.089  19.638   6.266  0.0588 -0.0251 -0.0539
 1162BOLB   PO227878  17.947  19.950   6.518  0.1379  0.2323  0.1538
 1162BOLB   GL327879  17.709  19.666   6.719  0.2835 -0.3539 -0.0629
 1162BOLB   GL427880  17.740  19.365   6.896 -0.2542 -0.0188  0.0901
 1162BOLB   C1C27881  17.450  19.701   7.134 -0.2267 -0.2851 -0.2713
 1162BOLB   C2C27882  17.067  19.602   7.403 -0.3226 -0.0631  0.1814
 1162BOLB   C3C27883  16.741  19.417   7.736  0.2144  0.0091  0.1729
 1162BOLB   C4C27884  16.507  19.114   7.922  0.4034 -0.0862  0.0412
 1162BOLB   C1D27885  17.647  18.967   6.992  0.0382  0.3174  0.2465
 1162BOLB   C2D27886  17.519  18.538   7.014  0.1641 -0.0625  0.1139
 1162BOLB   C3D27887  17.853  18.163   7.025  0.0828  0.3013 -0.2001
 1162BOLB   C4D27888  17.613  17.859   7.354  0.1911 -0.2276 -0.0068
 1163BOLB   NC127889  11.552  24.977  13.697 -0.3302  0.0927  0.1268
 1163BOLB   PO127890  11.862  25.085  13.442  0.0414  0.0753  0.1599
 1163BOLB   GL127891  12.043  25.277  13.050 -0.2826 -0.1814 -0.0024
 1163BOLB   GL227892  12.168  25.083  12.795 -0.3464 -0.0031 -0.2058
 1163BOLB   C1A27893  12.021  25.593  12.727 -0.3394 -0.0299  0.4904
 1163BOLB   C2A27894  12.256  25.806  12.368 -0.1354 -0.3331 -0.1178
 1163BOLB   C3A27895  12.522  25.901  12.020  0.1419  0.1065  0.0837
 1163BOLB   C4A27896  12.783  26.054  11.806 -0.1358 -0.1016  0.0714
 1163BOLB   C1B27897  12.423  25.369  12.548 -0.0087  0.1466  0.1692
 1163BOLB   C2B27898  12.717  25.532  12.235 -0.2266  0.2475 -0.1789
 1163BOLB   C3B27899  13.086  25.622  11.906 -0.3083  0.1330  0.1475
 1163BOLB   C4B27900  13.295  25.804  11.541 -0.0837 -0.3437  0.2901
 1163BOLB   NC227901  13.597  27.514  10.541 -0.0777 -0.1403 -0.1774
 1163BOLB   PO227902  13.709  27.124  10.285 -0.0396 -0.0101 -0.0537
 1163BOLB   GL327903  13.828  26.793  10.471 -0.0572  0.2774 -0.2499
 1163BOLB   GL427904  13.628  26.626  10.397 -0.1209  0.0097 -0.0403
 1163BOLB   C1C27905  13.919  26.731  10.867 -0.0612  0.2488 -0.0288
 1163BOLB   C2C27906  13.800  26.553  11.252 -0.1172  0.0597  0.2705
 1163BOLB   C3C27907  13.370  26.380  11.458  0.5163 -0.0572 -0.2578
 1163BOLB   C4C27908  12.944  26.162  11.458  0.0328 -0.3128  0.0736
 1163BOLB   C1D27909  13.846  26.304  10.608 -0.1342 -0.1881  0.3185
 1163BOLB   C2D27910  14.162  26.019  10.599 -0.0252 -0.1450 -0.1567
 1163BOLB   C3D27911  14.458  25.853  10.855  0.0077 -0.2060  0.1722
 1163BOLB   C4D27912  14.811  25.705  10.916 -0.1001  0.0079 -0.1923
 1164BOLB   NC127913  16.071  15.534  10.513  0.2323 -0.0828 -0.1535
 1164BOLB   PO127914  16.232  15.587  10.202  0.1194  0.0646 -0.1227
 1164BOLB   GL127915  16.369  15.320   9.911  0.3462 -0.0927  0.0700
 1164BOLB   GL227916  16.353  15.012   9.902 -0.0466 -0.0749  0.0381
 1164BOLB   C1A27917  16.606  15.186   9.513 -0.1752  0.1867  0.0574
 1164BOLB   C2A27918  16.853  15.103   9.148 -0.0997  0.3328 -0.1008
 1164BOLB   C3A27919  16.933  15.013   8.726  0.1542 -0.2136 -0.0089
 1164BOLB   C4A27920  17.156  14.929   8.362 -0.2196  0.0533  0.1869
 1164BOLB   C1B27921  16.240  14.807   9.558 -0.1455 -0.1670 -0.1551
 1164BOLB   C2B27922  16.446  14.878   9.148  0.1366  0.3125 -0.0696
 1164BOLB   C3B27923  16.408  15.021   8.659 -0.3978  0.1696  0.0773
 1164BOLB   C4B27924  16.642  14.953   8.312 -0.2426  0.1020 -0.0097
 1164BOLB   NC227925  16.547  14.764   5.965  0.0486  0.0982  0.1163
 1164BOLB   PO227926  16.984  14.884   6.085  0.3446  0.1268 -0.2709
 1164BOLB   GL327927  17.157  14.948   6.449  0.1114 -0.1026  0.0409
 1164BOLB   GL427928  17.238  14.620   6.694 -0.1806 -0.1721 -0.0260
 1164BOLB   C1C27929  17.120  15.267   6.765  0.1573 -0.3107 -0.0283
 1164BOLB   C2C27930  17.269  15.556   7.185 -0.0186  0.1180  0.1274
 1164BOLB   C3C27931  17.152  15.340   7.579 -0.1111 -0.2260  0.0514
 1164BOLB   C4C27932  17.040  15.148   7.942  0.1281 -0.0185 -0.2726
 1164BOLB   C1D27933  17.197  14.753   7.176  0.2595 -0.0727 -0.1013
 1164BOLB   C2D27934  16.974  14.909   7.444 -0.2924 -0.0218  0.0620
 1164BOLB   C3D27935  16.580  15.086   7.690 -0.1506 -0.1853  0.0941
 1164BOLB   C4D27936  16.439  15.233   7.984 -0.1502  0.0683 -0.1512
 1165BOLB   NC127937   9.131   9.384  12.213  0.0047  0.1040  0.2531
 1165BOLB   PO127938   9.610   9.436  12.184 -0.0188  0.0318 -0.2048
 1165BOLB   GL127939   9.713   9.164  11.699  0.2618 -0.0200 -0.2548
 1165BOLB   GL227940   9.452   9.348  11.569 -0.0374 -0.0040  0.0328
 1165BOLB   C1A27941   9.828   9.046  11.389  0.0461  0.4929  0.0093
 1165BOLB   C2A27942   9.724   9.219  11.098 -0.0254  0.1016  0.0859
 1165BOLB   C3A27943   9.538   9.211  10.703 -0.1009  0.0420  0.1162
 1165BOLB   C4A27944   9.430   9.114  10.299 -0.2042 -0.0488 -0.1392
 1165BOLB   C1B27945   9.561   9.638  11.278  0.2280 -0.1294  0.0503
 1165BOLB   C2B27946   9.625   9.758  10.860  0.1555  0.1092 -0.0133
 1165BOLB   C3B27947   9.689   9.619  10.478  0.1259 -0.0738 -0.2366
 1165BOLB   C4B27948   9.830   9.807  10.106  0.0387 -0.2371  0.7006
 1165BOLB   NC227949   9.102   8.157   7.907 -0.3428 -0.1306  0.0342
 1165BOLB   PO227950   9.059   8.602   7.903 -0.0748 -0.0020 -0.2706
 1165BOLB   GL327951   9.089   9.074   8.222 -0.1818 -0.0100  0.2904
 1165BOLB   GL427952   8.753   9.124   8.317 -0.0533  0.0794  0.2365
 1165BOLB   C1C27953   9.232   9.296   8.551  0.1598  0.0021  0.0131
 1165BOLB   C2C27954   9.505   9.301   8.962  0.2942  0.2764  0.0341
 1165BOLB   C3C27955   9.384   9.303   9.424  0.1521 -0.0015 -0.0311
 1165BOLB   C4C27956   9.432   9.116   9.869  0.2603  0.0220  0.2007
 1165BOLB   C1D27957   8.818   9.098   8.807 -0.0652 -0.0041  0.2975
 1165BOLB   C2D27958   9.092   9.014   9.107  0.1574  0.3014  0.1839
 1165BOLB   C3D27959   9.451   8.840   9.312 -0.1292  0.0594  0.0986
 1165BOLB   C4D27960   9.709   8.507   9.161 -0.2251 -0.0387  0.0757
 1166BOLB   NC127961  17.525  13.884  10.851  0.2375 -0.0879 -0.1569
 1166BOLB   PO127962  17.512  13.426  10.869  0.4134 -0.0156  0.1336
 1166BOLB   GL127963  17.629  13.132  10.616 -0.1031  0.0166 -0.0154
 1166BOLB   GL227964  18.015  13.179  10.693  0.3072  0.1480  0.0497
 1166BOLB   C1A27965  17.589  12.777  10.364 -0.0879  0.1195 -0.0479
 1166BOLB   C2A27966  17.953  12.692  10.123 -0.1862 -0.0148  0.2380
 1166BOLB   C3A27967  18.233  12.643   9.805 -0.2819  0.1964 -0.2899
 1166BOLB   C4A27968  18.612  12.452   9.483 -0.2437  0.1453 -0.2090
 1166BOLB   C1B27969  18.171  13.249  10.207 -0.0274 -0.1320 -0.2210
 1166BOLB   C2B27970  18.317  13.324   9.807 -0.2020  0.5752 -0.1216
 1166BOLB   C3B27971  18.234  13.193   9.543 -0.1744  0.0399  0.1745
 1166BOLB   C4B27972  18.389  12.848   9.351  0.1043 -0.4405  0.2617
 1166BOLB   NC227973  18.784  13.018   7.302  0.1326  0.1754  0.2395
 1166BOLB   PO227974  19.006  12.681   7.032 -0.0123 -0.3089 -0.1057
 1166BOLB   GL327975  19.052  12.563   7.406 -0.1956 -0.2830 -0.1720
 1166BOLB   GL427976  18.779  12.376   7.576 -0.0713  0.2763  0.0740
 1166BOLB   C1C27977  19.008  12.576   7.931 -0.2791 -0.0257  0.0919
 1166BOLB   C2C27978  18.838  12.917   8.300 -0.0569  0.1147  0.1751
 1166BOLB   C3C27979  18.715  12.825   8.699  0.0075 -0.2247 -0.0293
 1166BOLB   C4C27980  18.623  12.500   9.043 -0.0801 -0.0837 -0.1902
 1166BOLB   C1D27981  18.539  12.497   7.726  0.2595  0.0803 -0.2365
 1166BOLB   C2D27982  18.476  12.655   8.147  0.0033  0.1350  0.1358
 1166BOLB   C3D27983  18.892  12.470   8.412  0.0633 -0.1382  0.3098
 1166BOLB   C4D27984  19.074  12.487   8.798  0.1178  0.3133  0.1557
 1167BOLB   NC127985  11.585  22.986  11.883 -0.2421  0.0185  0.0085
 1167BOLB   PO127986  11.494  23.327  12.209  0.0092  0.2962 -0.1015
 1167BOLB   GL127987  11.292  23.617  11.953 -0.1604 -0.1231 -0.0831
 1167BOLB   GL227988  11.205  23.876  12.050  0.5591 -0.0197  0.0448
 1167BOLB   C1A27989  11.180  23.712  11.486  0.2006  0.3266  0.2049
 1167BOLB   C2A27990  11.042  23.601  11.014  0.0292 -0.3538  0.0522
 1167BOLB   C3A27991  10.929  23.588  10.655  0.0084  0.0733  0.1458
 1167BOLB   C4A27992  10.882  23.823  10.219  0.2631  0.2177 -0.0652
 1167BOLB   C1B27993  11.134  24.380  12.030  0.1371  0.3117  0.2811
 1167BOLB   C2B27994  11.282  24.618  11.753 -0.1532  0.0351 -0.0914
 1167BOLB   C3B27995  11.470  24.924  11.389 -0.0801 -0.0397  0.4697
 1167BOLB   C4B27996  11.802  25.176  11.133  0.3838 -0.0770  0.1095
 1167BOLB   NC227997  10.557  25.237   8.098  0.1186 -0.0087  0.1309
 1167BOLB   PO227998  10.452  25.269   8.471 -0.1938 -0.0997  0.0023
 1167BOLB   GL327999  10.490  24.873   8.764 -0.0630 -0.0527  0.1475
 1167BOLB   GL428000  10.845  24.893   8.807 -0.1366 -0.0730 -0.3970
 1167BOLB   C1C28001  10.491  24.597   9.073  0.0873 -0.0288 -0.0239
 1167BOLB   C2C28002  10.245  24.257   9.291  0.3174  0.1570  0.0031
 1167BOLB   C3C28003  10.312  24.048   9.614 -0.0423  0.0603 -0.0456
 1167BOLB   C4C28004  10.479  24.117  10.027 -0.1220  0.0054  0.0775
 1167BOLB   C1D28005  10.936  24.447   9.089  0.0227  0.2008 -0.0205
 1167BOLB   C2D28006  11.237  24.236   9.363  0.0593  0.1093 -0.0197
 1167BOLB   C3D28007  11.583  24.254   9.612  0.0256  0.1312 -0.3064
 1167BOLB   C4D28008  11.750  24.211  10.045 -0.1650 -0.0791 -0.1427
 1168BOLB   NC128009  16.227  22.043  12.176 -0.0314  0.2577 -0.3656
 1168BOLB   PO128010  16.422  22.228  11.769  0.1842  0.0636 -0.2473
 1168BOLB   GL128011  16.605  22.512  11.655  0.0555  0.2115 -0.3809
 1168BOLB   GL228012  16.777  22.430  11.379  0.4949 -0.1410  0.0724
 1168BOLB   C1A28013  16.466  22.956  11.461  0.0951 -0.1134  0.2097
 1168BOLB   C2A28014  16.206  23.346  11.440  0.5648 -0.1444 -0.0717
 1168BOLB   C3A28015  16.123  23.621  11.065 -0.0191  0.2693  0.0091
 1168BOLB   C4A28016  16.073  23.936  10.901 -0.0331  0.1680  0.1870
 1168BOLB   C1B28017  16.557  22.623  11.094 -0.2367  0.0894 -0.1066
 1168BOLB   C2B28018  16.507  22.991  10.951 -0.1577  0.0890  0.1591
 1168BOLB   C3B28019  16.797  23.307  10.674 -0.0585  0.2107  0.2710
 1168BOLB   C4B28020  16.663  23.508  10.309  0.1294 -0.0881 -0.2652
 1168BOLB   NC228021  15.926  25.286   9.111  0.0553 -0.0420  0.0209
 1168BOLB   PO228022  16.352  25.430   9.091 -0.3021  0.0328  0.0962
 1168BOLB   GL328023  16.196  25.365   9.520 -0.0062 -0.3188 -0.1556
 1168BOLB   GL428024  16.448  25.471   9.611 -0.1064  0.2532 -0.0023
 1168BOLB   C1C28025  16.151  25.081   9.859 -0.0769  0.0040 -0.0671
 1168BOLB   C2C28026  16.129  24.622  10.033 -0.4237 -0.0036 -0.4077
 1168BOLB   C3C28027  15.872  24.303  10.059 -0.4816  0.0960 -0.2283
 1168BOLB   C4C28028  15.992  24.009  10.466 -0.3910  0.0468 -0.2255
 1168BOLB   C1D28029  16.717  25.429   9.903  0.1168  0.0722 -0.2158
 1168BOLB   C2D28030  16.882  25.089  10.054  0.3179 -0.0601 -0.1216
 1168BOLB   C3D28031  17.228  24.644  10.032 -0.0857  0.2548 -0.1127
 1168BOLB   C4D28032  16.967  24.277  10.217 -0.1379 -0.2828  0.1202
 1169BOLB   NC128033  21.834  16.883  12.066 -0.0969 -0.0527 -0.0515
 1169BOLB   PO128034  22.262  16.533  12.180  0.1489  0.0696  0.3282
 1169BOLB   GL128035  22.469  16.517  11.741 -0.1039  0.0418 -0.1181
 1169BOLB   GL228036  22.407  16.303  11.555  0.1188 -0.3318 -0.2822
 1169BOLB   C1A28037  22.928  16.387  11.570 -0.1727 -0.2306 -0.2891
 1169BOLB   C2A28038  23.251  16.423  11.313  0.1223 -0.0814 -0.0759
 1169BOLB   C3A28039  23.319  16.403  10.949 -0.1993  0.0293  0.1032
 1169BOLB   C4A28040  23.444  16.450  10.521 -0.0073  0.0130  0.0374
 1169BOLB   C1B28041  22.331  16.009  11.218  0.3082  0.2534 -0.0915
 1169BOLB   C2B28042  22.598  15.973  10.850 -0.3163  0.0676 -0.1730
 1169BOLB   C3B28043  22.944  15.717  10.704  0.0864  0.2702  0.2380
 1169BOLB   C4B28044  22.932  15.662  10.198 -0.0192  0.1499  0.0117
 1169BOLB   NC228045  23.913  16.252   7.966 -0.1360 -0.1989  0.2081
 1169BOLB   PO228046  24.161  15.883   8.129 -0.0285  0.0347 -0.0243
 1169BOLB   GL328047  24.018  16.130   8.488 -0.1335 -0.4424 -0.1306
 1169BOLB   GL428048  23.754  15.877   8.693 -0.1774 -0.1523 -0.1859
 1169BOLB   C1C28049  23.976  16.296   8.879  0.1437  0.1040  0.0011
 1169BOLB   C2C28050  23.866  16.322   9.353  0.3782 -0.0623  0.2228
 1169BOLB   C3C28051  23.742  16.255   9.708 -0.4917  0.0602  0.1376
 1169BOLB   C4C28052  23.695  16.164  10.148  0.2233  0.1192 -0.2132
 1169BOLB   C1D28053  23.512  16.080   8.975  0.1845  0.3659  0.1665
 1169BOLB   C2D28054  23.283  16.342   9.326  0.2190  0.0997  0.2648
 1169BOLB   C3D28055  23.441  16.764   9.529  0.3471 -0.1227 -0.0882
 1169BOLB   C4D28056  23.813  16.883   9.813 -0.2090 -0.1509 -0.1012
 1170BOLB   NC128057  12.778   9.752  12.477 -0.1155 -0.1217 -0.0483
 1170BOLB   PO128058  12.633   9.357  12.381  0.3840  0.1304  0.0425
 1170BOLB   GL128059  12.783   8.993  12.182  0.1965 -0.0428 -0.0312
 1170BOLB   GL228060  12.626   9.135  11.870 -0.0767 -0.3076  0.1413
 1170BOLB   C1A28061  12.858   8.646  11.921  0.0485 -0.0479 -0.2255
 1170BOLB   C2A28062  12.893   8.478  11.482 -0.1345  0.0810  0.1639
 1170BOLB   C3A28063  12.822   8.279  11.066 -0.0399 -0.0650  0.0740
 1170BOLB   C4A28064  12.745   8.239  10.695  0.1438 -0.0725  0.2458
 1170BOLB   C1B28065  12.741   8.953  11.508 -0.0895 -0.2762  0.3624
 1170BOLB   C2B28066  12.929   8.793  11.044 -0.2290 -0.1443 -0.3234
 1170BOLB   C3B28067  12.844   8.802  10.642  0.0620 -0.0051  0.0769
 1170BOLB   C4B28068  12.452   8.708  10.601 -0.0828 -0.1896  0.2410
 1170BOLB   NC228069  13.720   6.482   9.284  0.0320  0.0451  0.2302
 1170BOLB   PO228070  13.747   6.899   9.144 -0.1728 -0.1318 -0.2069
 1170BOLB   GL328071  13.452   7.241   9.425  0.2114  0.1365  0.4524
 1170BOLB   GL428072  13.318   7.280   9.249  0.0648  0.1332 -0.0635
 1170BOLB   C1C28073  13.295   7.630   9.653 -0.1710 -0.0490 -0.1981
 1170BOLB   C2C28074  13.215   8.080   9.640  0.0207  0.0333  0.0072
 1170BOLB   C3C28075  12.964   8.282   9.903 -0.2029  0.1752 -0.2020
 1170BOLB   C4C28076  12.757   8.452  10.241 -0.0899 -0.2589  0.1345
 1170BOLB   C1D28077  12.923   7.417   9.385  0.1333 -0.0586  0.1134
 1170BOLB   C2D28078  12.830   7.560   9.725 -0.0196  0.0838 -0.2653
 1170BOLB   C3D28079  12.885   7.755  10.051 -0.0332 -0.2435  0.0532
 1170BOLB   C4D28080  13.042   8.056  10.367 -0.2236  0.4154 -0.1990
 1171BOLB   NC128081  19.598  23.309  12.568  0.0093 -0.2334  0.0116
 1171BOLB   PO128082  19.300  23.431  12.873 -0.0456 -0.0573  0.1649
 1171BOLB   GL128083  19.364  23.740  12.625  0.0891 -0.0540 -0.2365
 1171BOLB   GL228084  19.625  23.873  12.516 -0.2274 -0.3474 -0.3318
 1171BOLB   C1A28085  19.301  24.228  12.392 -0.1239  0.1527 -0.1986
 1171BOLB   C2A28086  19.544  24.551  12.181 -0.1506  0.0913 -0.0093
 1171BOLB   C3A28087  19.945  24.797  12.127  0.0005 -0.0750 -0.0673
 1171BOLB   C4A28088  20.154  25.035  11.938 -0.2203 -0.0294  0.0170
 1171BOLB   C1B28089  19.797  24.030  12.205 -0.0229  0.4684 -0.2638
 1171BOLB   C2B28090  20.119  24.358  12.009 -0.1060  0.4703  0.0715
 1171BOLB   C3B28091  20.210  24.595  11.668  0.1094  0.0518  0.1298
 1171BOLB   C4B28092  20.348  24.746  11.246 -0.6028  0.0984  0.1177
 1171BOLB   NC228093  19.574  27.278  11.148  0.2992 -0.0640  0.0736
 1171BOLB   PO228094  19.792  27.082  10.827 -0.1107 -0.0884  0.2868
 1171BOLB   GL328095  20.003  26.954  11.312  0.0450  0.2587  0.1053
 1171BOLB   GL428096  19.785  27.090  11.606  0.0154  0.0120  0.0087
 1171BOLB   C1C28097  20.145  26.607  11.583  0.2109 -0.0838 -0.1134
 1171BOLB   C2C28098  20.414  26.258  11.505  0.0732  0.0422  0.0988
 1171BOLB   C3C28099  20.576  25.865  11.824  0.3152  0.3634  0.0884
 1171BOLB   C4C28100  20.370  25.463  11.994 -0.3244  0.2951  0.0437
 1171BOLB   C1D28101  19.820  26.803  11.936  0.1784  0.1424  0.0081
 1171BOLB   C2D28102  20.047  26.463  12.047  0.3022 -0.2181 -0.3889
 1171BOLB   C3D28103  20.011  26.099  12.085 -0.2877  0.1023  0.1531
 1171BOLB   C4D28104  20.131  25.784  12.352 -0.0048  0.2288 -0.1151
 1172BOLB   NC128105  18.389  11.699  12.969 -0.5130 -0.3686  0.1507
 1172BOLB   PO128106  18.362  11.592  12.450  0.1692  0.0311  0.1257
 1172BOLB   GL128107  18.353  11.668  11.984  0.3611 -0.0076  0.1979
 1172BOLB   GL228108  18.654  11.608  11.765  0.0892 -0.1890 -0.1862
 1172BOLB   C1A28109  18.214  11.762  11.513  0.0179 -0.2735  0.0917
 1172BOLB   C2A28110  18.127  11.739  11.074 -0.1962 -0.1461 -0.1038
 1172BOLB   C3A28111  18.188  11.561  10.647  0.2646  0.4765  0.1727
 1172BOLB   C4A28112  18.306  11.492  10.351 -0.0859 -0.1038  0.0843
 1172BOLB   C1B28113  18.585  11.458  11.291 -0.1112 -0.2633  0.2978
 1172BOLB   C2B28114  18.861  11.318  10.942 -0.2291  0.0372  0.0048
 1172BOLB   C3B28115  19.003  11.065  10.644  0.1110  0.2000  0.2397
 1172BOLB   C4B28116  18.946  10.673  10.391  0.1885 -0.0009  0.0012
 1172BOLB   NC228117  19.160  10.131   8.650  0.1154 -0.4290  0.1457
 1172BOLB   PO228118  18.964  10.385   8.426  0.1661  0.1173  0.1100
 1172BOLB   GL328119  18.771  10.659   8.798  0.1731 -0.1367 -0.3102
 1172BOLB   GL428120  18.485  10.491   8.655  0.2177 -0.0673 -0.1380
 1172BOLB   C1C28121  18.609  11.073   8.904 -0.4377 -0.1320 -0.0667
 1172BOLB   C2C28122  18.381  11.416   9.154  0.2801 -0.1111 -0.0769
 1172BOLB   C3C28123  18.357  11.591   9.578  0.0824 -0.2694  0.1555
 1172BOLB   C4C28124  18.320  11.523   9.967  0.0133  0.1920 -0.1811
 1172BOLB   C1D28125  18.136  10.809   8.902  0.1632  0.1253  0.2564
 1172BOLB   C2D28126  18.035  11.108   9.232 -0.2003 -0.1752  0.2598
 1172BOLB   C3D28127  17.900  11.540   9.403  0.2102 -0.0779 -0.0431
 1172BOLB   C4D28128  17.743  11.911   9.360 -0.1952  0.1412  0.0214
 1173BOLB   NC128129  10.467  17.237  11.264  0.0807  0.0356  0.0841
 1173BOLB   PO128130  10.581  17.183  10.852 -0.1503  0.1611 -0.0283
 1173BOLB   GL128131  10.311  17.119  10.517 -0.1133 -0.3141 -0.0726
 1173BOLB   GL228132  10.199  17.354  10.382 -0.0288 -0.4380  0.0883
 1173BOLB   C1A28133   9.972  16.848  10.257  0.0138  0.2982 -0.2584
 1173BOLB   C2A28134   9.609  16.903   9.937 -0.2360 -0.0435  0.1060
 1173BOLB   C3A28135   9.314  16.701   9.595  0.0621 -0.2000 -0.5965
 1173BOLB   C4A28136   8.970  16.542   9.400  0.1653  0.0384 -0.2259
 1173BOLB   C1B28137   9.908  17.713  10.207 -0.1841 -0.1543 -0.1670
 1173BOLB   C2B28138   9.700  18.035  10.070 -0.0989  0.3946 -0.1914
 1173BOLB   C3B28139   9.571  18.335   9.879  0.1840  0.1197  0.2450
 1173BOLB   C4B28140   9.345  18.500   9.523  0.3342  0.1032 -0.1032
 1173BOLB   NC228141   8.341  16.517   7.498 -0.2186 -0.0331  0.2765
 1173BOLB   PO228142   7.999  16.758   7.573  0.0529 -0.1609  0.4790
 1173BOLB   GL328143   8.220  16.779   7.936 -0.0343  0.1950  0.2016
 1173BOLB   GL428144   8.558  16.642   7.988 -0.1128  0.1563  0.1802
 1173BOLB   C1C28145   8.036  16.907   8.374  0.1801  0.0102 -0.1449
 1173BOLB   C2C28146   8.175  16.769   8.647  0.0442  0.3097 -0.0936
 1173BOLB   C3C28147   8.416  16.736   9.086  0.1925  0.5335 -0.0643
 1173BOLB   C4C28148   8.670  16.783   9.379  0.3191 -0.0437 -0.0087
 1173BOLB   C1D28149   8.867  16.652   8.252  0.1642 -0.0032 -0.3687
 1173BOLB   C2D28150   9.246  16.876   8.284  0.0178  0.2772 -0.0961
 1173BOLB   C3D28151   9.370  17.027   8.647 -0.0918 -0.4506  0.0712
 1173BOLB   C4D28152   9.404  17.324   8.970 -0.0179 -0.0661 -0.1097
 1174BOLB   NC128153  20.349  19.107  10.853 -0.3246 -0.0023 -0.0110
 1174BOLB   PO128154  20.382  18.756  10.586 -0.0068 -0.0548  0.2694
 1174BOLB   GL128155  20.604  18.734  10.230 -0.1256 -0.0376  0.0575
 1174BOLB   GL228156  20.650  18.391  10.205 -0.4775 -0.0866  0.1535
 1174BOLB   C1A28157  20.739  18.887   9.765 -0.2035  0.1389  0.2564
 1174BOLB   C2A28158  20.999  19.078   9.477 -0.3000 -0.1737 -0.1402
 1174BOLB   C3A28159  21.165  19.514   9.312 -0.0414  0.1263 -0.0338
 1174BOLB   C4A28160  21.303  19.812   8.953  0.2918  0.2298 -0.2538
 1174BOLB   C1B28161  20.697  18.416   9.788 -0.1599 -0.0585  0.0735
 1174BOLB   C2B28162  21.114  18.501   9.682  0.2668  0.1169  0.1371
 1174BOLB   C3B28163  21.304  18.669   9.315 -0.1497 -0.0252  0.0697
 1174BOLB   C4B28164  21.560  18.784   8.914 -0.1551  0.3345 -0.0120
 1174BOLB   NC228165  21.130  20.930   7.136  0.1639 -0.2004 -0.5467
 1174BOLB   PO228166  21.290  21.108   7.542 -0.0680 -0.0965  0.2059
 1174BOLB   GL328167  21.009  21.092   7.782  0.2240 -0.1982  0.2255
 1174BOLB   GL428168  20.864  20.859   7.640 -0.1101 -0.0372  0.1555
 1174BOLB   C1C28169  21.037  21.040   8.226  0.4467 -0.1835 -0.1442
 1174BOLB   C2C28170  21.187  20.719   8.326 -0.1375  0.2459  0.1192
 1174BOLB   C3C28171  21.237  20.499   8.600 -0.1028  0.1622 -0.1532
 1174BOLB   C4C28172  21.413  20.258   8.787  0.1398  0.0967  0.1637
 1174BOLB   C1D28173  20.425  20.563   7.796  0.0790 -0.0692  0.2379
 1174BOLB   C2D28174  20.258  20.159   7.996 -0.1633  0.1376 -0.2929
 1174BOLB   C3D28175  19.949  19.916   8.341 -0.2848  0.1886 -0.0526
 1174BOLB   C4D28176  20.087  19.709   8.757  0.1021  0.1133  0.4480
 1175BOLB   NC128177  17.509  12.365  11.743 -0.0759  0.0060  0.0014
 1175BOLB   PO128178  17.212  12.474  11.382 -0.0811 -0.1207 -0.1407
 1175BOLB   GL128179  17.263  12.111  11.031 -0.0892  0.0060  0.3657
 1175BOLB   GL228180  17.069  11.812  11.075 -0.0772  0.1220  0.1067
 1175BOLB   C1A28181  17.272  11.993  10.627 -0.2207 -0.1150 -0.1121
 1175BOLB   C2A28182  17.260  11.914  10.211 -0.1554  0.0425 -0.1363
 1175BOLB   C3A28183  16.942  11.661   9.845 -0.1172 -0.0815 -0.0249
 1175BOLB   C4A28184  16.732  11.546   9.439 -0.4826 -0.1373  0.0641
 1175BOLB   C1B28185  17.035  11.568  10.700 -0.3815 -0.4322  0.1846
 1175BOLB   C2B28186  17.113  11.407  10.413 -0.2668 -0.1624  0.1454
 1175BOLB   C3B28187  17.388  11.459  10.076  0.2169 -0.0661  0.4393
 1175BOLB   C4B28188  17.445  11.706   9.731  0.0970 -0.2262  0.0991
 1175BOLB   NC228189  15.566  11.566   7.053  0.1239 -0.2361 -0.3782
 1175BOLB   PO228190  15.943  11.492   6.917 -0.2202  0.0199 -0.0914
 1175BOLB   GL328191  16.036  11.562   7.425  0.2507 -0.3063  0.0262
 1175BOLB   GL428192  15.797  11.627   7.611  0.1782 -0.3148 -0.0937
 1175BOLB   C1C28193  16.164  11.233   7.800 -0.2054 -0.2084 -0.1485
 1175BOLB   C2C28194  16.247  11.246   8.214 -0.0527 -0.3927 -0.2259
 1175BOLB   C3C28195  16.455  11.433   8.568 -0.0800  0.1100  0.2060
 1175BOLB   C4C28196  16.544  11.495   9.029  0.1003 -0.0831  0.0101
 1175BOLB   C1D28197  15.580  12.042   7.724 -0.1056  0.0849  0.0265
 1175BOLB   C2D28198  15.323  12.192   8.031  0.0730 -0.2522 -0.0224
 1175BOLB   C3D28199  15.084  12.556   8.016 -0.2268 -0.2934  0.0742
 1175BOLB   C4D28200  14.810  12.680   7.656 -0.1858 -0.0255 -0.0227
 1176BOLB   NC128201  19.569  18.923  10.938 -0.1201  0.0889  0.0601
 1176BOLB   PO128202  19.889  19.237  10.866 -0.0152  0.3272 -0.0997
 1176BOLB   GL128203  19.970  19.410  10.560 -0.0716  0.1842  0.1555
 1176BOLB   GL228204  20.169  19.140  10.305  0.0455 -0.2893 -0.0028
 1176BOLB   C1A28205  20.087  19.643  10.284 -0.0342 -0.2215  0.4949
 1176BOLB   C2A28206  20.123  19.914   9.842 -0.2856  0.1130  0.4808
 1176BOLB   C3A28207  20.178  19.962   9.390  0.0895 -0.0772  0.4071
 1176BOLB   C4A28208  20.430  20.087   9.017  0.3450 -0.1337  0.0861
 1176BOLB   C1B28209  20.188  19.104   9.924  0.2093 -0.0446 -0.0268
 1176BOLB   C2B28210  19.998  19.055   9.564  0.3054  0.2021 -0.1482
 1176BOLB   C3B28211  19.814  19.075   9.177 -0.0529  0.0611  0.0288
 1176BOLB   C4B28212  19.876  19.109   8.668  0.0199  0.1419 -0.1216
 1176BOLB   NC228213  22.040  21.573   7.888 -0.0430  0.2509 -0.0864
 1176BOLB   PO228214  21.864  21.074   7.992  0.2537 -0.0872  0.1352
 1176BOLB   GL328215  21.743  20.701   8.240 -0.1333 -0.2242 -0.2727
 1176BOLB   GL428216  22.041  20.922   8.465 -0.1577  0.2048 -0.1586
 1176BOLB   C1C28217  21.624  20.312   8.315  0.2305 -0.0036  0.2345
 1176BOLB   C2C28218  21.236  20.110   8.321  0.0314  0.1780  0.1720
 1176BOLB   C3C28219  20.835  20.120   8.500  0.2037 -0.0844  0.0671
 1176BOLB   C4C28220  20.703  20.260   8.817 -0.1024 -0.1428  0.2072
 1176BOLB   C1D28221  22.000  20.528   8.750  0.2376 -0.2013  0.0258
 1176BOLB   C2D28222  21.832  20.204   9.056  0.0456  0.4302  0.0633
 1176BOLB   C3D28223  21.582  20.084   9.261  0.1452  0.2604  0.0347
 1176BOLB   C4D28224  21.253  19.928   9.554  0.0224 -0.1580  0.1761
 1177BOLB   NC128225  16.967  10.492  12.689 -0.1931 -0.0040 -0.1217
 1177BOLB   PO128226  17.230  10.125  12.613  0.0029 -0.1768  0.2032
 1177BOLB   GL128227  17.630   9.931  12.327  0.3136  0.1614  0.2375
 1177BOLB   GL228228  17.566  10.017  12.010 -0.1005  0.0548 -0.0857
 1177BOLB   C1A28229  18.030   9.673  12.191 -0.1527 -0.3043  0.0860
 1177BOLB   C2A28230  18.278   9.562  11.859 -0.0881  0.0740  0.2428
 1177BOLB   C3A28231  18.115   9.428  11.472 -0.0587  0.1115 -0.0062
 1177BOLB   C4A28232  18.142   9.069  11.117 -0.0406  0.0597 -0.1881
 1177BOLB   C1B28233  17.741   9.594  11.728 -0.1382 -0.2917 -0.1957
 1177BOLB   C2B28234  17.647   9.449  11.277 -0.1182 -0.1041  0.0165
 1177BOLB   C3B28235  17.846   9.521  10.816  0.0053  0.1645  0.1946
 1177BOLB   C4B28236  18.197   9.797  10.571  0.1256  0.0295 -0.0385
 1177BOLB   NC228237  18.986   6.357  10.691  0.1392 -0.0420 -0.2560
 1177BOLB   PO228238  19.069   6.733  10.794  0.2408 -0.3061 -0.0360
 1177BOLB   GL328239  18.835   7.014  10.930 -0.1976 -0.0944  0.0412
 1177BOLB   GL428240  18.657   6.789  11.187 -0.1696 -0.0648  0.0314
 1177BOLB   C1C28241  18.350   7.180  10.954  0.0902  0.2206  0.0475
 1177BOLB   C2C28242  18.330   7.640  11.008  0.4316 -0.0541 -0.2525
 1177BOLB   C3C28243  18.144   8.045  11.044  0.1233 -0.2467  0.0495
 1177BOLB   C4C28244  18.257   8.575  11.111  0.0306  0.0472 -0.0302
 1177BOLB   C1D28245  18.331   6.976  11.394 -0.0815  0.0741  0.2121
 1177BOLB   C2D28246  18.175   7.367  11.447  0.0653 -0.1318 -0.2046
 1177BOLB   C3D28247  17.917   7.694  11.464  0.0029  0.0776  0.1030
 1177BOLB   C4D28248  18.227   8.149  11.520  0.3596  0.1666 -0.0608
 1178BOLB   NC128249  13.450  22.954  12.941  0.1002 -0.2280 -0.0174
 1178BOLB   PO128250  13.465  23.245  12.512  0.0847 -0.0174 -0.0082
 1178BOLB   GL128251  13.433  23.328  12.088 -0.0278 -0.1033  0.1371
 1178BOLB   GL228252  13.632  23.604  12.086 -0.1181  0.1608 -0.0048
 1178BOLB   C1A28253  13.298  23.464  11.668 -0.1302  0.1684 -0.5503
 1178BOLB   C2A28254  13.415  23.631  11.281 -0.0383  0.0645  0.1239
 1178BOLB   C3A28255  13.452  23.811  10.847  0.3589  0.1887  0.2123
 1178BOLB   C4A28256  13.314  24.063  10.468  0.0830  0.3153  0.0485
 1178BOLB   C1B28257  13.866  23.533  11.673  0.3188  0.2937 -0.2025
 1178BOLB   C2B28258  14.163  23.702  11.421  0.2267  0.1001  0.1312
 1178BOLB   C3B28259  14.139  23.872  10.978 -0.2100  0.3989  0.0338
 1178BOLB   C4B28260  13.885  24.055  10.709  0.2479 -0.0167  0.3058
 1178BOLB   NC228261  12.934  24.245   8.170  0.1536  0.1866 -0.0622
 1178BOLB   PO228262  12.868  24.682   8.237  0.1306  0.0485  0.0366
 1178BOLB   GL328263  13.028  24.560   8.639 -0.3047  0.2036  0.0104
 1178BOLB   GL428264  12.859  24.221   8.722  0.4980  0.4371  0.0893
 1178BOLB   C1C28265  12.978  24.540   9.109  0.1604 -0.0535 -0.1071
 1178BOLB   C2C28266  13.060  24.583   9.428 -0.0877  0.0854  0.1166
 1178BOLB   C3C28267  13.251  24.329   9.713  0.2633 -0.0507 -0.1160
 1178BOLB   C4C28268  13.311  24.243  10.119 -0.4696  0.1905  0.1169
 1178BOLB   C1D28269  12.628  23.977   9.024 -0.1205 -0.4644  0.0406
 1178BOLB   C2D28270  12.328  23.685   9.205 -0.2302 -0.3229  0.0639
 1178BOLB   C3D28271  12.327  23.428   9.638  0.0787 -0.1828 -0.2360
 1178BOLB   C4D28272  12.111  23.206   9.922  0.1412 -0.0441 -0.0633
 1179BOLB   NC128273  12.395  22.067  11.763  0.0818 -0.1581  0.3235
 1179BOLB   PO128274  12.506  22.390  11.460  0.0370  0.1211 -0.1918
 1179BOLB   GL128275  12.526  22.406  10.982  0.0265 -0.1719 -0.3501
 1179BOLB   GL228276  12.830  22.368  10.882  0.0607 -0.1449  0.0090
 1179BOLB   C1A28277  12.372  22.317  10.508  0.0094 -0.1137  0.1758
 1179BOLB   C2A28278  12.369  22.418  10.074 -0.2175  0.2052 -0.0184
 1179BOLB   C3A28279  12.720  22.423   9.862 -0.1880  0.2028 -0.1543
 1179BOLB   C4A28280  12.968  22.497   9.484 -0.3758  0.2874 -0.0902
 1179BOLB   C1B28281  12.816  22.540  10.453  0.1643  0.0071 -0.0051
 1179BOLB   C2B28282  13.090  22.721  10.040  0.4675  0.0032 -0.3928
 1179BOLB   C3B28283  13.214  22.863   9.748  0.1043 -0.0280 -0.0392
 1179BOLB   C4B28284  13.185  23.060   9.379 -0.2632 -0.0801  0.1154
 1179BOLB   NC228285  13.101  23.406   7.053 -0.0034  0.0186 -0.0999
 1179BOLB   PO228286  13.078  23.430   7.483 -0.2311 -0.2788  0.0702
 1179BOLB   GL328287  13.319  23.121   7.573  0.0537  0.1439  0.2171
 1179BOLB   GL428288  12.980  23.031   7.783  0.0868 -0.0664 -0.1282
 1179BOLB   C1C28289  13.421  22.862   7.904 -0.1555 -0.0594 -0.1128
 1179BOLB   C2C28290  13.540  22.744   8.304 -0.1086  0.0426 -0.0778
 1179BOLB   C3C28291  13.432  22.636   8.697  0.0324 -0.1341 -0.1929
 1179BOLB   C4C28292  13.189  22.623   9.113  0.3515 -0.0280 -0.2939
 1179BOLB   C1D28293  12.923  22.911   8.090 -0.0890 -0.2071 -0.0460
 1179BOLB   C2D28294  12.959  22.678   8.455 -0.1225  0.3543 -0.0993
 1179BOLB   C3D28295  12.840  22.415   8.804 -0.3288 -0.4108 -0.1109
 1179BOLB   C4D28296  12.631  22.235   9.171  0.2605 -0.0725  0.1554
 1180BOLB   NC128297  17.103  13.006  11.407  0.2023  0.1659  0.0872
 1180BOLB   PO128298  17.384  13.221  11.363  0.1986  0.2348  0.1339
 1180BOLB   GL128299  17.407  12.966  11.016  0.0829 -0.1238  0.0627
 1180BOLB   GL228300  17.221  12.886  10.866  0.1110 -0.0648 -0.0548
 1180BOLB   C1A28301  17.725  12.753  10.930 -0.2758 -0.0773  0.1499
 1180BOLB   C2A28302  18.133  12.670  10.617 -0.0235 -0.1187 -0.2279
 1180BOLB   C3A28303  18.413  12.569  10.322 -0.1079 -0.2042 -0.1744
 1180BOLB   C4A28304  18.759  12.474   9.984 -0.0002  0.2271  0.3756
 1180BOLB   C1B28305  17.326  12.497  10.653  0.2852  0.1550 -0.1338
 1180BOLB   C2B28306  17.628  12.275  10.402 -0.1851 -0.0314  0.0701
 1180BOLB   C3B28307  17.776  11.868  10.232  0.1325  0.0360 -0.0427
 1180BOLB   C4B28308  17.853  11.484   9.919 -0.2006  0.0500  0.0780
 1180BOLB   NC228309  18.981  11.167   7.968 -0.2231  0.0162  0.0803
 1180BOLB   PO228310  19.388  11.083   8.051 -0.4737 -0.0403  0.0192
 1180BOLB   GL328311  19.205  11.317   8.417 -0.1397  0.1043  0.1405
 1180BOLB   GL428312  18.965  11.536   8.371 -0.0003 -0.0706 -0.0559
 1180BOLB   C1C28313  19.139  11.527   8.848  0.1018  0.0063  0.2439
 1180BOLB   C2C28314  19.305  11.687   9.246  0.0756 -0.0589  0.1165
 1180BOLB   C3C28315  19.255  12.013   9.468  0.0290 -0.0592 -0.2871
 1180BOLB   C4C28316  19.104  12.247   9.835  0.1331  0.0048 -0.1445
 1180BOLB   C1D28317  18.586  11.324   8.497  0.0317  0.3242 -0.0971
 1180BOLB   C2D28318  18.142  11.290   8.691 -0.0287 -0.0320  0.1558
 1180BOLB   C3D28319  17.969  11.630   8.916 -0.3341 -0.0811 -0.2841
 1180BOLB   C4D28320  17.907  12.043   8.825 -0.1797  0.0717  0.3760
 1181BOLB   NC128321  17.927  23.260  13.594  0.2043  0.0101  0.0774
 1181BOLB   PO128322  17.714  23.529  13.291  0.0412  0.1348 -0.1744
 1181BOLB   GL128323  17.994  23.865  12.937 -0.0472  0.2279  0.0143
 1181BOLB   GL228324  18.366  23.825  12.856 -0.2893  0.0272  0.1146
 1181BOLB   C1A28325  18.095  24.325  12.846  0.3433  0.0408  0.0093
 1181BOLB   C2A28326  18.022  24.621  12.635  0.2345  0.1921  0.2383
 1181BOLB   C3A28327  18.222  24.710  12.312 -0.0191 -0.0510  0.3858
 1181BOLB   C4A28328  18.428  25.079  12.100 -0.0398  0.1048  0.1890
 1181BOLB   C1B28329  18.417  24.147  12.478  0.1324  0.0872  0.3114
 1181BOLB   C2B28330  18.172  24.284  12.039  0.1978 -0.2090  0.3264
 1181BOLB   C3B28331  18.192  24.713  11.767 -0.0886  0.1109  0.2550
 1181BOLB   C4B28332  18.344  25.109  11.449 -0.1598  0.4432  0.0512
 1181BOLB   NC228333  19.851  26.110  10.262 -0.2550  0.2464  0.0851
 1181BOLB   PO228334  19.531  26.405  10.520 -0.2731 -0.2540 -0.0012
 1181BOLB   GL328335  19.382  26.012  10.591  0.0553  0.1500 -0.0667
 1181BOLB   GL428336  19.536  25.785  10.510  0.0345  0.1285 -0.1467
 1181BOLB   C1C28337  19.095  25.738  10.956 -0.1059  0.0667 -0.0389
 1181BOLB   C2C28338  18.678  25.549  11.133  0.3697 -0.2371  0.3726
 1181BOLB   C3C28339  18.386  25.662  11.548 -0.1260 -0.1878  0.0528
 1181BOLB   C4C28340  18.383  25.482  11.905 -0.1598  0.1417 -0.1971
 1181BOLB   C1D28341  19.620  25.565  10.801 -0.1104 -0.0672 -0.1523
 1181BOLB   C2D28342  19.630  25.159  11.103 -0.1978 -0.0790  0.4507
 1181BOLB   C3D28343  19.806  24.751  11.413  0.1246 -0.1740 -0.1429
 1181BOLB   C4D28344  19.753  24.433  11.747  0.1936  0.2362 -0.1270
 1182BOLB   NC128345   9.569  11.168  11.940 -0.0159  0.1613 -0.2641
 1182BOLB   PO128346   9.840  11.521  11.697  0.0900  0.3632 -0.2152
 1182BOLB   GL128347   9.709  11.417  11.281 -0.1967  0.1948  0.0055
 1182BOLB   GL228348   9.530  11.633  11.102 -0.0848 -0.0144 -0.2677
 1182BOLB   C1A28349   9.654  11.047  11.024  0.0216  0.3788 -0.1110
 1182BOLB   C2A28350   9.651  11.101  10.516  0.1319  0.0793  0.1142
 1182BOLB   C3A28351   9.816  11.173  10.210  0.1318  0.0564 -0.0196
 1182BOLB   C4A28352   9.792  11.164   9.820 -0.2158 -0.4165  0.1638
 1182BOLB   C1B28353   9.317  11.381  10.771  0.1068 -0.1665  0.2609
 1182BOLB   C2B28354   9.429  11.596  10.344 -0.2009  0.1894 -0.0547
 1182BOLB   C3B28355   9.423  11.514   9.910 -0.0025 -0.0318  0.3080
 1182BOLB   C4B28356   9.532  11.329   9.445  0.4610 -0.0605  0.1694
 1182BOLB   NC228357   8.844   9.066   7.806 -0.0720 -0.0307  0.1103
 1182BOLB   PO228358   8.838   9.515   7.813 -0.1461  0.1381 -0.2737
 1182BOLB   GL328359   9.026   9.723   8.232 -0.0514  0.1023  0.1946
 1182BOLB   GL428360   9.270   9.593   8.186  0.1917 -0.1452 -0.1544
 1182BOLB   C1C28361   9.154   9.961   8.586  0.3592  0.2005 -0.0652
 1182BOLB   C2C28362   9.215  10.208   8.915  0.1468 -0.2506  0.2057
 1182BOLB   C3C28363   9.501  10.586   9.117 -0.1483  0.0377  0.0959
 1182BOLB   C4C28364   9.653  10.831   9.495  0.2617  0.1805  0.2136
 1182BOLB   C1D28365   9.519   9.950   8.239 -0.1674 -0.2619  0.0255
 1182BOLB   C2D28366   9.595  10.265   8.571 -0.0698  0.2665 -0.0255
 1182BOLB   C3D28367   9.832  10.236   8.914 -0.0107 -0.0094 -0.0944
 1182BOLB   C4D28368  10.258  10.113   9.230  0.3541 -0.1548 -0.2055
 1183BOLB   NC128369  10.207   5.724  12.483  0.2646  0.3564 -0.2408
 1183BOLB   PO128370  10.477   5.725  12.205  0.0461  0.1620  0.4927
 1183BOLB   GL128371  10.612   5.984  12.073  0.0966  0.1504  0.2203
 1183BOLB   GL228372  10.830   6.146  12.351 -0.3908 -0.0752  0.0200
 1183BOLB   C1A28373  10.760   6.342  11.867 -0.1527  0.1220  0.3741
 1183BOLB   C2A28374  11.050   6.682  11.917  0.2467  0.5014  0.1453
 1183BOLB   C3A28375  11.481   6.775  11.859  0.1241  0.3533  0.0645
 1183BOLB   C4A28376  11.812   6.667  11.601  0.3295 -0.1626 -0.0339
 1183BOLB   C1B28377  11.213   6.319  12.240 -0.2063  0.0821  0.2668
 1183BOLB   C2B28378  11.511   6.606  12.355  0.2300  0.0549  0.3322
 1183BOLB   C3B28379  11.991   6.579  12.399 -0.0158 -0.1193  0.0784
 1183BOLB   C4B28380  12.287   6.702  11.993  0.0343  0.2626  0.1255
 1183BOLB   NC228381  13.037   5.080  10.153  0.4588 -0.0854 -0.0405
 1183BOLB   PO228382  12.864   5.388   9.963  0.0916 -0.2421  0.2465
 1183BOLB   GL328383  12.548   5.690  10.027 -0.2687 -0.2464  0.1663
 1183BOLB   GL428384  12.742   5.907  10.239  0.1316 -0.0320  0.0358
 1183BOLB   C1C28385  12.222   5.808  10.234  0.0953 -0.1235  0.0404
 1183BOLB   C2C28386  12.055   5.863  10.761 -0.1087 -0.1701  0.2648
 1183BOLB   C3C28387  12.000   5.999  11.096  0.3787 -0.0952  0.3088
 1183BOLB   C4C28388  11.983   6.310  11.475  0.0165 -0.0162  0.2754
 1183BOLB   C1D28389  12.644   6.340  10.368 -0.5313  0.1288  0.0243
 1183BOLB   C2D28390  12.471   6.524  10.717  0.0316  0.2940 -0.0859
 1183BOLB   C3D28391  12.321   6.641  11.088 -0.1341  0.0093 -0.0244
 1183BOLB   C4D28392  12.400   6.833  11.463 -0.1970  0.1018  0.2803
 1184BOLB   NC128393  17.016  19.986  10.825 -0.3084 -0.0868 -0.0991
 1184BOLB   PO128394  17.207  19.641  10.609 -0.3789 -0.2012  0.1149
 1184BOLB   GL128395  17.144  19.761  10.165 -0.1159  0.1399 -0.3436
 1184BOLB   GL228396  17.384  19.556  10.004 -0.0320 -0.2470  0.1276
 1184BOLB   C1A28397  17.329  19.965   9.763  0.1490  0.1980 -0.0543
 1184BOLB   C2A28398  17.468  20.108   9.347 -0.2308  0.1860  0.0634
 1184BOLB   C3A28399  17.613  19.982   8.894 -0.1872 -0.3726 -0.0233
 1184BOLB   C4A28400  17.852  20.061   8.585  0.1215  0.2030  0.0217
 1184BOLB   C1B28401  17.610  19.562   9.620 -0.0311  0.1201 -0.4032
 1184BOLB   C2B28402  17.947  19.664   9.247 -0.2119 -0.2675  0.0156
 1184BOLB   C3B28403  18.088  19.979   9.056 -0.0532  0.1476  0.3174
 1184BOLB   C4B28404  18.354  20.247   8.782 -0.1831  0.0739  0.0350
 1184BOLB   NC228405  18.752  21.885   6.932  0.1286  0.0657  0.0063
 1184BOLB   PO228406  18.904  21.601   7.084  0.1975  0.0797  0.1680
 1184BOLB   GL328407  18.787  21.474   7.548  0.0096  0.0676  0.0655
 1184BOLB   GL428408  18.991  21.407   7.728 -0.4007 -0.1447  0.3430
 1184BOLB   C1C28409  18.396  21.258   7.582 -0.0053  0.2525  0.3316
 1184BOLB   C2C28410  18.205  20.934   7.853  0.2033 -0.0504 -0.0228
 1184BOLB   C3C28411  18.010  20.559   7.934 -0.1579 -0.1844  0.1946
 1184BOLB   C4C28412  18.072  20.265   8.301 -0.0649 -0.0711  0.0597
 1184BOLB   C1D28413  19.090  21.141   7.919 -0.1703 -0.0327  0.1450
 1184BOLB   C2D28414  19.017  20.723   7.964  0.1668  0.1340 -0.0333
 1184BOLB   C3D28415  19.036  20.279   7.868 -0.2493 -0.1241 -0.0431
 1184BOLB   C4D28416  19.028  20.178   7.447 -0.1329 -0.1598 -0.4484
 1185BOLB   NC128417  19.990  17.943  10.792 -0.1836  0.6006 -0.1975
 1185BOLB   PO128418  19.681  17.985  10.609 -0.3136  0.1317 -0.0798
 1185BOLB   GL128419  19.848  17.871  10.212  0.0104 -0.3077  0.0808
 1185BOLB   GL228420  19.665  17.929   9.918 -0.0943  0.2345  0.1463
 1185BOLB   C1A28421  20.227  17.897   9.936 -0.0261 -0.1323 -0.3492
 1185BOLB   C2A28422  20.474  18.033   9.573  0.1690  0.0553  0.2744
 1185BOLB   C3A28423  20.535  18.358   9.261  0.0973  0.2640  0.0132
 1185BOLB   C4A28424  20.807  18.695   9.149  0.0060 -0.0240  0.1399
 1185BOLB   C1B28425  20.002  17.740   9.523  0.0406  0.0221  0.2235
 1185BOLB   C2B28426  20.253  17.630   9.227 -0.1452  0.1493 -0.0244
 1185BOLB   C3B28427  20.317  17.809   8.911 -0.1953  0.0230 -0.0067
 1185BOLB   C4B28428  20.288  17.907   8.507 -0.0101 -0.0987  0.0877
 1185BOLB   NC228429  21.087  19.911   6.713 -0.0777  0.1067 -0.4142
 1185BOLB   PO228430  21.022  19.665   7.190 -0.4593  0.0437 -0.0667
 1185BOLB   GL328431  20.918  19.606   7.650 -0.1894 -0.0417  0.0303
 1185BOLB   GL428432  20.729  19.876   7.653 -0.0548 -0.1376  0.0367
 1185BOLB   C1C28433  20.878  19.674   8.096 -0.0618  0.0137  0.1129
 1185BOLB   C2C28434  21.084  19.689   8.486 -0.0866  0.1566  0.0389
 1185BOLB   C3C28435  21.028  19.335   8.724  0.3069  0.0028  0.0477
 1185BOLB   C4C28436  21.079  19.035   9.018  0.1575  0.0018  0.1583
 1185BOLB   C1D28437  20.762  20.262   8.034 -0.0328 -0.1204 -0.0189
 1185BOLB   C2D28438  20.703  20.554   8.333 -0.0214 -0.1767  0.1408
 1185BOLB   C3D28439  20.511  21.010   8.388 -0.2676  0.0932  0.4546
 1185BOLB   C4D28440  20.321  21.233   8.054 -0.3348 -0.0553  0.1344
 1186BOLB   NC128441  12.680  18.794  10.344 -0.2853  0.1313  0.1215
 1186BOLB   PO128442  12.909  19.078  10.093 -0.1174  0.0915  0.1149
 1186BOLB   GL128443  12.702  19.406   9.799  0.3372 -0.2300 -0.0114
 1186BOLB   GL228444  12.730  19.637   9.999 -0.1319  0.0888  0.4659
 1186BOLB   C1A28445  12.548  19.347   9.400  0.1222  0.1894 -0.1741
 1186BOLB   C2A28446  12.667  19.293   8.970  0.1221  0.1446 -0.0075
 1186BOLB   C3A28447  12.601  19.275   8.537  0.1005 -0.1037  0.0597
 1186BOLB   C4A28448  12.852  19.254   8.107 -0.3438 -0.0496 -0.0887
 1186BOLB   C1B28449  12.597  19.952   9.779 -0.0531 -0.1002  0.1847
 1186BOLB   C2B28450  12.635  19.969   9.394  0.2701 -0.0979 -0.1196
 1186BOLB   C3B28451  12.668  20.018   9.036  0.4374 -0.0348  0.5152
 1186BOLB   C4B28452  12.613  19.755   8.668  0.0347  0.0818  0.0717
 1186BOLB   NC228453  12.506  18.313   5.790 -0.0865 -0.2962 -0.2078
 1186BOLB   PO228454  13.009  18.231   5.925  0.1607  0.0301 -0.5987
 1186BOLB   GL328455  13.194  18.370   6.287  0.1475  0.2229  0.1262
 1186BOLB   GL428456  12.969  18.429   6.485  0.1004 -0.0056  0.1759
 1186BOLB   C1C28457  13.387  18.674   6.773  0.1074  0.1777  0.0310
 1186BOLB   C2C28458  13.452  18.842   7.130  0.0494 -0.4162  0.1244
 1186BOLB   C3C28459  13.132  18.665   7.513 -0.0667 -0.1881 -0.2114
 1186BOLB   C4C28460  13.062  18.962   7.903  0.0214 -0.1075  0.1384
 1186BOLB   C1D28461  12.643  18.168   6.703  0.2217 -0.0896 -0.0816
 1186BOLB   C2D28462  12.272  17.963   7.012 -0.0647  0.0868  0.0048
 1186BOLB   C3D28463  11.960  18.320   7.288  0.0279 -0.1586 -0.4875
 1186BOLB   C4D28464  12.093  18.526   7.630 -0.3920 -0.3323 -0.0875
 1187BOLB   NC128465  11.524  22.353  12.221  0.1778  0.3602  0.1096
 1187BOLB   PO128466  11.241  22.737  12.122 -0.3776  0.1890 -0.0744
 1187BOLB   GL128467  11.226  22.811  11.652 -0.1691  0.2217  0.0131
 1187BOLB   GL228468  10.970  23.047  11.529 -0.4361 -0.3081 -0.1320
 1187BOLB   C1A28469  11.284  22.821  11.142 -0.5067 -0.1523  0.1690
 1187BOLB   C2A28470  11.553  22.821  10.761 -0.0916  0.2275  0.2761
 1187BOLB   C3A28471  11.376  22.926  10.407  0.0110 -0.0905  0.0789
 1187BOLB   C4A28472  11.431  22.850  10.052  0.3496  0.0067 -0.2440
 1187BOLB   C1B28473  10.840  23.100  11.141  0.0810 -0.2404 -0.1193
 1187BOLB   C2B28474  10.931  23.085  10.652 -0.1784 -0.2674  0.0565
 1187BOLB   C3B28475  10.782  23.032  10.241 -0.1027 -0.1479  0.1341
 1187BOLB   C4B28476  10.596  23.032   9.906  0.2030  0.2964 -0.0852
 1187BOLB   NC228477  11.756  23.936   7.771  0.2868  0.2823 -0.1840
 1187BOLB   PO228478  12.135  23.721   7.831 -0.3929  0.0973 -0.0326
 1187BOLB   GL328479  12.289  23.587   8.298  0.3264 -0.4070  0.4239
 1187BOLB   GL428480  12.498  23.839   8.542  0.1979  0.0155  0.1478
 1187BOLB   C1C28481  11.910  23.325   8.430 -0.1722 -0.1990 -0.6810
 1187BOLB   C2C28482  11.632  23.114   8.773  0.0437 -0.2019 -0.0355
 1187BOLB   C3C28483  11.696  22.937   9.169 -0.1961 -0.2034 -0.1976
 1187BOLB   C4C28484  11.678  22.986   9.665 -0.1802 -0.1602  0.1128
 1187BOLB   C1D28485  12.508  23.448   8.726  0.1268  0.0762 -0.3446
 1187BOLB   C2D28486  12.179  23.097   8.828  0.0692 -0.5438 -0.0396
 1187BOLB   C3D28487  11.933  22.637   8.690  0.1250  0.2042  0.1858
 1187BOLB   C4D28488  12.007  22.308   8.294 -0.0255 -0.0247 -0.2343
 1188BOLB   NC128489   9.436  24.410  12.947  0.1992  0.0643 -0.0863
 1188BOLB   PO128490   9.501  24.737  12.716  0.0936 -0.0949 -0.1055
 1188BOLB   GL128491   9.566  24.626  12.255 -0.0069 -0.0993  0.0786
 1188BOLB   GL228492   9.743  24.930  12.138 -0.0341 -0.0352 -0.0168
 1188BOLB   C1A28493   9.695  24.228  11.956  0.3066  0.0638  0.3096
 1188BOLB   C2A28494   9.634  24.117  11.563  0.2469  0.0901 -0.2404
 1188BOLB   C3A28495   9.498  23.989  11.208  0.2425  0.0361  0.0564
 1188BOLB   C4A28496   9.389  23.978  10.842 -0.2588 -0.2895 -0.4772
 1188BOLB   C1B28497   9.804  24.843  11.636 -0.1429 -0.0980 -0.0211
 1188BOLB   C2B28498  10.014  24.908  11.145 -0.1938  0.0277  0.0022
 1188BOLB   C3B28499   9.919  24.686  10.798 -0.2258  0.1039 -0.1006
 1188BOLB   C4B28500   9.836  24.230  10.734 -0.0861  0.0118  0.0496
 1188BOLB   NC228501   9.747  24.776   8.212 -0.2583 -0.0014 -0.1382
 1188BOLB   PO228502   9.476  24.543   8.379 -0.1474 -0.3748  0.0788
 1188BOLB   GL328503   9.346  24.301   8.693  0.1082 -0.0428 -0.0847
 1188BOLB   GL428504   9.172  23.996   8.791 -0.2891  0.2909 -0.0511
 1188BOLB   C1C28505   9.498  24.231   9.073  0.3408 -0.5768 -0.0969
 1188BOLB   C2C28506   9.421  24.103   9.566 -0.0614  0.0902  0.1492
 1188BOLB   C3C28507   9.449  23.917  10.012  0.1106  0.2674 -0.0516
 1188BOLB   C4C28508   9.557  23.882  10.431 -0.1136 -0.0286  0.0319
 1188BOLB   C1D28509   9.213  23.773   9.127  0.2962 -0.1286 -0.1951
 1188BOLB   C2D28510   9.280  23.447   9.273 -0.1121  0.3598  0.1561
 1188BOLB   C3D28511   9.168  23.104   9.532 -0.0383  0.2853  0.0887
 1188BOLB   C4D28512   8.892  22.903   9.821  0.2317  0.1456  0.1040
 1189BOLB   NC128513  17.762  11.097  12.320  0.4626  0.0291 -0.0248
 1189BOLB   PO128514  18.098  11.215  12.255  0.2353 -0.1738  0.3202
 1189BOLB   GL128515  18.522  11.137  12.017  0.0354  0.0256  0.2261
 1189BOLB   GL228516  18.783  11.303  12.268 -0.0033 -0.1978 -0.0655
 1189BOLB   C1A28517  18.539  10.974  11.723 -0.0967 -0.1681  0.2006
 1189BOLB   C2A28518  18.606  10.970  11.291 -0.1534  0.0741  0.0686
 1189BOLB   C3A28519  18.491  10.667  10.905 -0.0580  0.0592 -0.2030
 1189BOLB   C4A28520  18.408  10.684  10.481  0.0110  0.2320  0.1122
 1189BOLB   C1B28521  18.990  11.252  11.935 -0.2989  0.1240  0.1365
 1189BOLB   C2B28522  18.978  11.203  11.517 -0.1577 -0.0782 -0.1875
 1189BOLB   C3B28523  19.285  11.187  11.117 -0.1612 -0.3210 -0.1747
 1189BOLB   C4B28524  19.469  10.845  10.903 -0.0816 -0.0269  0.1738
 1189BOLB   NC228525  18.296   9.372   8.537 -0.0056 -0.0091 -0.1498
 1189BOLB   PO228526  18.047   9.625   8.361 -0.0935 -0.1728  0.3259
 1189BOLB   GL328527  17.998   9.716   8.768  0.1283  0.0675 -0.3101
 1189BOLB   GL428528  18.070   9.518   8.934  0.0218  0.0539  0.1351
 1189BOLB   C1C28529  17.878   9.843   9.203 -0.1420  0.0777 -0.1208
 1189BOLB   C2C28530  17.924  10.060   9.650 -0.0253 -0.2021 -0.2230
 1189BOLB   C3C28531  18.150  10.320   9.863  0.1197 -0.1742  0.2983
 1189BOLB   C4C28532  18.163  10.533  10.101  0.5054  0.2789  0.0802
 1189BOLB   C1D28533  18.361   9.765   9.104 -0.1636 -0.0524  0.2800
 1189BOLB   C2D28534  18.481   9.881   9.517 -0.1656 -0.0016  0.0546
 1189BOLB   C3D28535  18.574  10.359   9.653 -0.1193  0.0490  0.0719
 1189BOLB   C4D28536  18.647  10.569  10.048 -0.0206 -0.2448 -0.3475
 1190BOLB   NC128537  21.471  23.917  14.234 -0.0248  0.5902 -0.0668
 1190BOLB   PO128538  21.790  23.989  13.911 -0.1201 -0.1276  0.1188
 1190BOLB   GL128539  22.047  24.218  13.667  0.0119  0.0466 -0.1586
 1190BOLB   GL228540  22.154  24.355  13.898  0.1039  0.1305  0.1888
 1190BOLB   C1A28541  21.915  24.345  13.282  0.0640 -0.1994  0.1863
 1190BOLB   C2A28542  21.835  24.290  12.855  0.3114 -0.0183 -0.3302
 1190BOLB   C3A28543  21.656  24.232  12.501  0.1525  0.0236  0.2047
 1190BOLB   C4A28544  21.484  24.460  12.258  0.3234  0.0825  0.2984
 1190BOLB   C1B28545  21.957  24.723  14.044  0.1386 -0.1970  0.0543
 1190BOLB   C2B28546  21.483  24.818  14.092 -0.0694  0.0338 -0.0304
 1190BOLB   C3B28547  21.095  24.883  14.031 -0.1031 -0.0732  0.2675
 1190BOLB   C4B28548  20.690  25.006  13.936  0.2682 -0.3503 -0.0975
 1190BOLB   NC228549  21.203  26.279  10.050 -0.0785 -0.2761 -0.0239
 1190BOLB   PO228550  20.913  25.987  10.233  0.3125  0.0662  0.0918
 1190BOLB   GL328551  21.122  25.633  10.416 -0.0979 -0.0603 -0.3607
 1190BOLB   GL428552  20.860  25.401  10.475 -0.3014 -0.0933  0.0318
 1190BOLB   C1C28553  21.333  25.330  10.747  0.2400 -0.0024  0.0259
 1190BOLB   C2C28554  21.515  25.235  11.158  0.2480  0.2438  0.0191
 1190BOLB   C3C28555  21.648  24.941  11.473  0.3948  0.1203 -0.1895
 1190BOLB   C4C28556  21.633  24.781  11.931 -0.0187 -0.0957 -0.0527
 1190BOLB   C1D28557  20.549  25.205  10.675  0.1193 -0.1254 -0.0294
 1190BOLB   C2D28558  20.289  24.846  10.808  0.0315  0.0098  0.0335
 1190BOLB   C3D28559  19.947  24.538  10.972  0.1095 -0.3319  0.2538
 1190BOLB   C4D28560  19.587  24.338  11.263 -0.0008  0.0179  0.1561
 1191BOLB   NC128561  14.591  12.572  10.963  0.0486  0.1223 -0.3593
 1191BOLB   PO128562  14.549  12.855  10.564 -0.1127  0.0969  0.1168
 1191BOLB   GL128563  14.714  12.896  10.090  0.1131  0.3359 -0.0868
 1191BOLB   GL228564  14.256  12.971   9.949 -0.1991  0.1181 -0.2985
 1191BOLB   C1A28565  14.990  12.952   9.686 -0.2513 -0.2231 -0.1612
 1191BOLB   C2A28566  15.248  12.827   9.303 -0.1243 -0.2543 -0.0176
 1191BOLB   C3A28567  15.600  12.678   9.204 -0.1738 -0.3181  0.2773
 1191BOLB   C4A28568  15.804  12.364   9.086 -0.1299 -0.1285  0.2685
 1191BOLB   C1B28569  14.340  12.668   9.675  0.2056 -0.1340 -0.1309
 1191BOLB   C2B28570  14.353  12.302   9.502 -0.0606  0.5149 -0.2030
 1191BOLB   C3B28571  14.666  12.022   9.330  0.2302  0.0719 -0.3479
 1191BOLB   C4B28572  14.858  12.176   8.922  0.0782 -0.2019  0.1309
 1191BOLB   NC228573  17.207  11.882   6.918  0.1679 -0.3057 -0.0318
 1191BOLB   PO228574  17.044  11.499   7.220 -0.3824 -0.1001  0.1486
 1191BOLB   GL328575  16.835  11.552   7.541  0.0398 -0.2721  0.2655
 1191BOLB   GL428576  16.506  11.468   7.558 -0.1262 -0.1556  0.0906
 1191BOLB   C1C28577  16.770  11.744   7.938  0.3869 -0.3093  0.1878
 1191BOLB   C2C28578  16.727  11.756   8.335  0.1837  0.0288 -0.1526
 1191BOLB   C3C28579  16.455  11.928   8.671  0.0562  0.2419  0.2335
 1191BOLB   C4C28580  16.065  12.101   8.920 -0.1751  0.1225 -0.1219
 1191BOLB   C1D28581  16.671  11.221   7.862  0.2409 -0.0194  0.0392
 1191BOLB   C2D28582  16.792  11.209   8.318 -0.2672 -0.1935 -0.1369
 1191BOLB   C3D28583  16.810  11.135   8.729 -0.1005 -0.1452  0.3243
 1191BOLB   C4D28584  17.109  11.303   9.063  0.0941 -0.2011  0.2354
 1192BOLB   NC128585  10.978  10.546  12.056  0.2641  0.1980 -0.4435
 1192BOLB   PO128586  10.806  10.622  11.620 -0.1385 -0.1785  0.0905
 1192BOLB   GL128587  10.757  10.350  11.305 -0.0499 -0.3511 -0.1928
 1192BOLB   GL228588  10.553  10.217  11.384 -0.0817 -0.0033  0.2148
 1192BOLB   C1A28589  10.868  10.387  10.904 -0.2144 -0.0698  0.0024
 1192BOLB   C2A28590  11.152  10.184  10.526  0.2461  0.1087  0.0391
 1192BOLB   C3A28591  11.245   9.969  10.099  0.1065 -0.0588  0.0290
 1192BOLB   C4A28592  11.290   9.884   9.690  0.1108 -0.1486 -0.1417
 1192BOLB   C1B28593  10.431  10.117  10.970  0.1297 -0.3539 -0.0199
 1192BOLB   C2B28594  10.625   9.989  10.566 -0.0486 -0.2186 -0.2460
 1192BOLB   C3B28595  10.858   9.713  10.334  0.2643 -0.1814  0.2596
 1192BOLB   C4B28596  10.915   9.595   9.912 -0.1784 -0.0778 -0.2216
 1192BOLB   NC228597  10.022  10.064   7.442 -0.1935  0.0275  0.0483
 1192BOLB   PO228598   9.731   9.761   7.567 -0.1445 -0.1344  0.4342
 1192BOLB   GL328599   9.933   9.928   7.929 -0.0127 -0.1502  0.0092
 1192BOLB   GL428600  10.145  10.142   7.954  0.1203 -0.0964  0.0849
 1192BOLB   C1C28601   9.994   9.900   8.430 -0.1065  0.3611 -0.2695
 1192BOLB   C2C28602  10.324   9.821   8.879  0.0512 -0.0012 -0.1829
 1192BOLB   C3C28603  10.640   9.683   9.199 -0.0519 -0.1241 -0.0626
 1192BOLB   C4C28604  10.964   9.829   9.421  0.1369  0.0384  0.0140
 1192BOLB   C1D28605   9.906  10.490   8.213  0.0668  0.0176 -0.2222
 1192BOLB   C2D28606   9.639  10.784   8.141 -0.0628  0.3337 -0.1328
 1192BOLB   C3D28607   9.346  11.086   8.422  0.0309 -0.1636  0.2405
 1192BOLB   C4D28608   9.113  11.285   8.723 -0.1184 -0.1770  0.2192
 1193BOLB   NC128609  19.049  20.399  11.477 -0.0151 -0.2448 -0.1573
 1193BOLB   PO128610  18.850  20.425  11.143 -0.0188 -0.1362 -0.2980
 1193BOLB   GL128611  18.913  20.710  10.721  0.2019 -0.1160  0.0158
 1193BOLB   GL228612  19.241  20.725  10.629 -0.0324 -0.0428 -0.4144
 1193BOLB   C1A28613  18.734  20.845  10.388  0.0853  0.1335 -0.0004
 1193BOLB   C2A28614  18.551  21.027   9.941  0.1048  0.1424 -0.0015
 1193BOLB   C3A28615  18.434  20.778   9.601  0.1679 -0.0056 -0.0821
 1193BOLB   C4A28616  18.213  20.782   9.132  0.0595 -0.4022  0.0419
 1193BOLB   C1B28617  19.253  20.987  10.488 -0.2295  0.0357 -0.3348
 1193BOLB   C2B28618  19.199  21.175  10.155 -0.0636  0.0481  0.3989
 1193BOLB   C3B28619  19.263  21.303   9.691  0.4025 -0.2330 -0.0670
 1193BOLB   C4B28620  19.294  21.467   9.312 -0.1178 -0.1541  0.1377
 1193BOLB   NC228621  17.335  21.819   7.035  0.2390 -0.0510 -0.3528
 1193BOLB   PO228622  17.522  21.987   7.357 -0.3006  0.0836  0.0667
 1193BOLB   GL328623  17.714  21.858   7.639  0.1284 -0.1661  0.1918
 1193BOLB   GL428624  18.036  22.011   7.518  0.0460 -0.0906 -0.0574
 1193BOLB   C1C28625  17.846  21.673   8.067 -0.0896 -0.0032 -0.3562
 1193BOLB   C2C28626  18.013  21.311   8.169 -0.1605 -0.0383 -0.2506
 1193BOLB   C3C28627  18.165  20.816   8.348 -0.4896 -0.1866  0.0259
 1193BOLB   C4C28628  18.246  20.728   8.713  0.2428  0.0096 -0.1684
 1193BOLB   C1D28629  17.903  22.127   7.983 -0.1528 -0.2790  0.1498
 1193BOLB   C2D28630  17.654  22.413   8.219  0.0454  0.0206 -0.1143
 1193BOLB   C3D28631  17.426  22.405   8.530  0.3657 -0.0786  0.0351
 1193BOLB   C4D28632  17.386  22.367   8.892  0.2460  0.0977 -0.2935
 1194BOLB   NC128633  17.097  23.142  12.748 -0.3403  0.0270 -0.0457
 1194BOLB   PO128634  16.872  23.452  12.835  0.2009 -0.0420  0.0542
 1194BOLB   GL128635  16.807  23.929  12.645 -0.2909  0.1190  0.2288
 1194BOLB   GL228636  16.815  24.165  12.803 -0.1008  0.2558 -0.1703
 1194BOLB   C1A28637  16.651  24.246  12.380  0.3934 -0.0146 -0.0723
 1194BOLB   C2A28638  16.737  24.522  12.020 -0.1904 -0.2293 -0.0213
 1194BOLB   C3A28639  16.687  24.950  11.744 -0.0520 -0.1130 -0.2507
 1194BOLB   C4A28640  16.641  25.126  11.341 -0.2495  0.0295 -0.3118
 1194BOLB   C1B28641  16.872  24.584  12.709 -0.1804 -0.0895 -0.0856
 1194BOLB   C2B28642  16.860  24.801  12.381 -0.0312  0.0457  0.3436
 1194BOLB   C3B28643  16.878  25.229  12.182 -0.4106  0.5081 -0.0002
 1194BOLB   C4B28644  17.105  25.666  12.297  0.2287  0.0039  0.0809
 1194BOLB   NC228645  16.102  26.187   9.405 -0.1399  0.1963  0.0965
 1194BOLB   PO228646  15.905  25.781   9.320  0.1385  0.0710  0.2400
 1194BOLB   GL328647  15.680  25.463   9.484 -0.0238  0.2109  0.2141
 1194BOLB   GL428648  15.426  25.397   9.380 -0.0795  0.0170 -0.0711
 1194BOLB   C1C28649  15.653  25.181   9.790 -0.4962  0.0157  0.3319
 1194BOLB   C2C28650  15.780  24.969  10.209  0.3131  0.3033 -0.1608
 1194BOLB   C3C28651  15.875  25.115  10.691  0.0004 -0.2846 -0.1175
 1194BOLB   C4C28652  16.309  25.221  10.971 -0.1021 -0.0781 -0.3888
 1194BOLB   C1D28653  15.378  24.966   9.400 -0.1582  0.2252  0.3093
 1194BOLB   C2D28654  14.934  24.727   9.428  0.1560 -0.2240 -0.0196
 1194BOLB   C3D28655  14.448  24.815   9.317  0.0449 -0.0694 -0.4268
 1194BOLB   C4D28656  14.073  24.902   9.541  0.3741  0.0670  0.2857
 1195BOLB   NC128657  13.971  23.855  13.485 -0.1510 -0.2255 -0.4191
 1195BOLB   PO128658  13.926  24.248  13.270  0.2127 -0.0901 -0.2304
 1195BOLB   GL128659  14.344  24.365  12.956 -0.3833  0.1733  0.1126
 1195BOLB   GL228660  14.257  24.672  12.994 -0.2013 -0.0170 -0.3514
 1195BOLB   C1A28661  14.757  24.480  12.949 -0.0469 -0.1703  0.1073
 1195BOLB   C2A28662  14.926  24.774  12.620  0.0020  0.0221 -0.1416
 1195BOLB   C3A28663  15.192  25.043  12.458  0.1939  0.2123 -0.1166
 1195BOLB   C4A28664  15.360  25.485  12.278 -0.3232  0.3391  0.0236
 1195BOLB   C1B28665  13.981  24.624  12.659  0.2589 -0.1333 -0.0028
 1195BOLB   C2B28666  13.800  24.646  12.202  0.0653  0.0856  0.0410
 1195BOLB   C3B28667  13.886  24.562  11.934 -0.1623  0.1980 -0.0007
 1195BOLB   C4B28668  13.726  24.531  11.505  0.2822  0.0230 -0.1353
 1195BOLB   NC228669  15.494  26.951  10.505  0.0143  0.0906 -0.2838
 1195BOLB   PO228670  15.412  27.240  10.913  0.0331  0.1288  0.0210
 1195BOLB   GL328671  15.432  27.111  11.241  0.0830 -0.1231 -0.0342
 1195BOLB   GL428672  15.595  27.382  11.430 -0.0836 -0.0215  0.0077
 1195BOLB   C1C28673  15.588  26.756  11.409  0.0897  0.2141  0.0766
 1195BOLB   C2C28674  15.772  26.498  11.764  0.1225 -0.1160 -0.0583
 1195BOLB   C3C28675  15.615  26.347  12.145  0.0515  0.0882  0.4673
 1195BOLB   C4C28676  15.377  25.914  12.202 -0.2241  0.1324  0.1210
 1195BOLB   C1D28677  15.648  27.144  11.678  0.0889 -0.0245  0.2562
 1195BOLB   C2D28678  16.087  26.942  11.799 -0.2608 -0.1541 -0.2972
 1195BOLB   C3D28679  16.365  26.604  11.787  0.3257  0.1672  0.2488
 1195BOLB   C4D28680  16.553  26.397  11.469 -0.1715  0.1379 -0.0130
 1196BOLB   NC128681  21.961  18.964  12.204 -0.0809 -0.0888  0.0618
 1196BOLB   PO128682  22.120  19.244  12.001  0.1703  0.4481  0.3565
 1196BOLB   GL128683  22.117  19.377  11.490 -0.0905 -0.1167 -0.0870
 1196BOLB   GL228684  22.128  19.042  11.344 -0.0147 -0.1760 -0.0437
 1196BOLB   C1A28685  22.325  19.524  11.137  0.1975 -0.3685  0.0076
 1196BOLB   C2A28686  22.159  19.725  10.721 -0.2028  0.0148  0.2101
 1196BOLB   C3A28687  22.031  19.901  10.316 -0.0319 -0.3751  0.0047
 1196BOLB   C4A28688  22.055  19.643   9.864  0.3938 -0.1228  0.2485
 1196BOLB   C1B28689  22.608  18.934  11.297 -0.0865  0.4335  0.0456
 1196BOLB   C2B28690  22.957  19.049  10.985 -0.1222  0.1754  0.2968
 1196BOLB   C3B28691  23.018  19.126  10.610 -0.1410 -0.2082 -0.2512
 1196BOLB   C4B28692  23.131  19.100  10.201  0.3493 -0.1136  0.2794
 1196BOLB   NC228693  23.455  18.370   8.037  0.1510  0.1955  0.1444
 1196BOLB   PO228694  23.476  18.765   8.255  0.0080 -0.0505 -0.0574
 1196BOLB   GL328695  23.153  18.741   8.320 -0.2752  0.1974 -0.1799
 1196BOLB   GL428696  23.143  18.418   8.460 -0.1621 -0.0844  0.2250
 1196BOLB   C1C28697  22.988  18.873   8.708  0.3326 -0.0199  0.1342
 1196BOLB   C2C28698  22.856  19.025   9.131  0.1132  0.1446 -0.0017
 1196BOLB   C3C28699  22.491  19.299   9.229 -0.1076  0.0527 -0.0756
 1196BOLB   C4C28700  22.268  19.499   9.464 -0.2445  0.0103 -0.0440
 1196BOLB   C1D28701  22.928  18.355   8.791  0.2645 -0.1651 -0.3354
 1196BOLB   C2D28702  22.902  18.526   9.175 -0.1437 -0.1679  0.1135
 1196BOLB   C3D28703  22.804  18.313   9.495 -0.1553  0.0945 -0.1971
 1196BOLB   C4D28704  22.640  18.517   9.862 -0.1476 -0.1995  0.1782
 1197BOLB   NC128705  17.961  12.614  12.317  0.0364 -0.1664  0.0346
 1197BOLB   PO128706  18.013  12.475  11.943 -0.0673  0.1978 -0.0221
 1197BOLB   GL128707  17.946  12.495  11.486 -0.0663  0.2254 -0.1343
 1197BOLB   GL228708  18.126  12.680  11.224 -0.0380 -0.1319 -0.0859
 1197BOLB   C1A28709  18.243  12.255  11.354 -0.0393  0.1578  0.0462
 1197BOLB   C2A28710  18.520  11.982  11.162  0.1778 -0.0588 -0.1822
 1197BOLB   C3A28711  18.656  11.781  10.809 -0.0358 -0.1259 -0.1258
 1197BOLB   C4A28712  18.936  11.627  10.455 -0.0887 -0.0546  0.0372
 1197BOLB   C1B28713  18.409  12.456  10.956 -0.1319 -0.2049 -0.1957
 1197BOLB   C2B28714  18.635  12.242  10.707  0.2908 -0.1273 -0.0639
 1197BOLB   C3B28715  18.740  12.066  10.347  0.1535 -0.3379 -0.0736
 1197BOLB   C4B28716  18.707  11.799   9.989  0.2563 -0.5063 -0.2436
 1197BOLB   NC228717  19.240   9.375   9.047  0.4356  0.2664  0.3118
 1197BOLB   PO228718  19.426   9.873   8.997 -0.1687  0.2640 -0.2447
 1197BOLB   GL328719  19.230  10.253   9.142  0.0189 -0.0709  0.0092
 1197BOLB   GL428720  19.270  10.524   8.925  0.3670 -0.2346 -0.2377
 1197BOLB   C1C28721  19.087  10.542   9.418 -0.1397  0.1178 -0.0008
 1197BOLB   C2C28722  19.028  10.712   9.743  0.0784 -0.0343  0.1527
 1197BOLB   C3C28723  18.992  10.975   9.977  0.2451  0.0257 -0.0145
 1197BOLB   C4C28724  18.938  11.366  10.136  0.1785 -0.1487  0.1659
 1197BOLB   C1D28725  19.109  11.042   8.894  0.0873 -0.1403  0.1617
 1197BOLB   C2D28726  18.878  11.327   9.247  0.0020 -0.1441 -0.0272
 1197BOLB   C3D28727  19.046  11.445   9.654  0.1514 -0.2518 -0.0680
 1197BOLB   C4D28728  19.342  11.695  10.006  0.0166 -0.1606 -0.1106
 1198BOLB   NC128729  16.692  21.303  11.907  0.2303 -0.0044  0.3966
 1198BOLB   PO128730  16.546  21.652  11.757  0.0513 -0.3057 -0.3270
 1198BOLB   GL128731  16.369  21.966  11.355 -0.0547 -0.0497  0.1222
 1198BOLB   GL228732  16.636  21.947  11.167  0.2116 -0.3128  0.0374
 1198BOLB   C1A28733  16.213  22.256  11.034  0.0101  0.2880  0.0118
 1198BOLB   C2A28734  16.146  22.660  10.740 -0.1647 -0.0014 -0.2295
 1198BOLB   C3A28735  15.998  22.848  10.426 -0.1320  0.0232  0.0418
 1198BOLB   C4A28736  15.798  23.110  10.127  0.0643 -0.0793 -0.0787
 1198BOLB   C1B28737  16.740  22.158  10.840 -0.1707 -0.0594  0.2321
 1198BOLB   C2B28738  16.750  22.550  10.600 -0.2047  0.2621  0.0851
 1198BOLB   C3B28739  16.476  23.000  10.406  0.0861 -0.1012 -0.0606
 1198BOLB   C4B28740  16.249  23.265  10.220  0.2849  0.3003 -0.0122
 1198BOLB   NC228741  15.842  23.545   7.778 -0.1878  0.0415  0.1458
 1198BOLB   PO228742  16.179  23.818   7.917 -0.2973 -0.1456 -0.0079
 1198BOLB   GL328743  16.037  23.591   8.239  0.0220  0.1191  0.0980
 1198BOLB   GL428744  16.147  23.282   8.064 -0.2109 -0.0248 -0.0008
 1198BOLB   C1C28745  15.759  23.487   8.633 -0.3328  0.1717 -0.1013
 1198BOLB   C2C28746  15.622  23.430   9.097 -0.3981  0.0353 -0.1514
 1198BOLB   C3C28747  15.520  23.298   9.453  0.2209 -0.1468  0.0847
 1198BOLB   C4C28748  15.540  23.231   9.840 -0.1179 -0.2144 -0.1119
 1198BOLB   C1D28749  16.353  23.134   8.355 -0.0704 -0.0516  0.0139
 1198BOLB   C2D28750  16.184  23.201   8.745  0.2543 -0.1297 -0.1642
 1198BOLB   C3D28751  15.820  23.014   8.875  0.1190  0.0845 -0.3468
 1198BOLB   C4D28752  15.404  23.025   8.626 -0.4207 -0.3464  0.0614
 1199BOLB   NC128753  14.538  22.054  11.330 -0.0895 -0.2030 -0.1177
 1199BOLB   PO128754  14.775  21.832  11.173 -0.0073  0.0223  0.2226
 1199BOLB   GL128755  14.590  21.953  10.797  0.3097  0.2336  0.2084
 1199BOLB   GL228756  14.389  22.208  10.885  0.0045 -0.1612 -0.1003
 1199BOLB   C1A28757  14.799  21.910  10.422  0.0942  0.4718  0.0486
 1199BOLB   C2A28758  14.953  22.040  10.021  0.1862  0.0637 -0.1593
 1199BOLB   C3A28759  14.979  22.492   9.806  0.1940 -0.1591  0.0612
 1199BOLB   C4A28760  14.750  22.829   9.510  0.0256  0.3029 -0.2569
 1199BOLB   C1B28761  14.357  22.274  10.375 -0.0942 -0.1958 -0.0602
 1199BOLB   C2B28762  14.499  22.368   9.983  0.1281 -0.0066 -0.2442
 1199BOLB   C3B28763  14.458  22.427   9.601 -0.0724 -0.0933  0.3244
 1199BOLB   C4B28764  14.102  22.499   9.347  0.0828  0.0600  0.4890
 1199BOLB   NC228765  14.686  25.056   8.200 -0.3026  0.1330 -0.3464
 1199BOLB   PO228766  14.640  24.589   8.180  0.2569 -0.2795  0.0452
 1199BOLB   GL328767  14.588  24.286   8.476 -0.2584 -0.0492 -0.2703
 1199BOLB   GL428768  14.689  23.952   8.356 -0.0078  0.0074 -0.0953
 1199BOLB   C1C28769  14.253  23.977   8.636  0.0810  0.1538  0.2132
 1199BOLB   C2C28770  14.189  23.573   8.679 -0.1437  0.0496  0.1638
 1199BOLB   C3C28771  14.525  23.154   8.677  0.1300  0.0390  0.3290
 1199BOLB   C4C28772  14.666  22.866   9.099 -0.0394  0.0852 -0.2059
 1199BOLB   C1D28773  14.723  23.684   8.642 -0.0972 -0.0014 -0.0157
 1199BOLB   C2D28774  14.640  23.469   9.030  0.1726 -0.2066 -0.2273
 1199BOLB   C3D28775  14.389  23.296   9.317  0.1739  0.1432 -0.2884
 1199BOLB   C4D28776  14.271  22.954   9.475  0.0515 -0.2798  0.2306
 1200BOLB   NC128777  20.546  22.198  12.420 -0.0734  0.0585  0.1104
 1200BOLB   PO128778  20.548  22.595  12.581  0.4324  0.0028  0.0877
 1200BOLB   GL128779  20.776  22.772  12.268 -0.0152 -0.1605  0.1246
 1200BOLB   GL228780  20.654  22.892  11.972 -0.1997 -0.4798 -0.0136
 1200BOLB   C1A28781  21.078  23.045  12.122 -0.1199  0.1215 -0.1585
 1200BOLB   C2A28782  21.239  23.440  12.100  0.1780  0.1899 -0.0486
 1200BOLB   C3A28783  21.288  23.787  11.772  0.3629 -0.1976 -0.0053
 1200BOLB   C4A28784  21.110  24.089  11.456 -0.1236 -0.0057 -0.0174
 1200BOLB   C1B28785  20.554  23.016  11.508  0.2440 -0.1328 -0.0557
 1200BOLB   C2B28786  20.541  22.925  11.127  0.0204  0.2393 -0.0467
 1200BOLB   C3B28787  20.412  22.952  10.667 -0.4457 -0.2890 -0.3174
 1200BOLB   C4B28788  20.575  23.217  10.340 -0.1157 -0.0614  0.2443
 1200BOLB   NC228789  20.981  25.299   9.505  0.4085  0.0716 -0.0654
 1200BOLB   PO228790  20.595  25.360   9.535 -0.0793  0.0103 -0.2365
 1200BOLB   GL328791  20.375  25.121   9.920 -0.1043 -0.3553  0.2181
 1200BOLB   GL428792  20.131  25.278   9.895 -0.1354  0.2360 -0.3859
 1200BOLB   C1C28793  20.565  24.889  10.237 -0.0760 -0.1194  0.2798
 1200BOLB   C2C28794  20.720  24.610  10.512  0.0334  0.1725 -0.0288
 1200BOLB   C3C28795  20.865  24.265  10.719 -0.3678 -0.1297  0.2237
 1200BOLB   C4C28796  21.144  24.163  11.026  0.0222 -0.0582 -0.1944
 1200BOLB   C1D28797  20.048  25.090  10.316 -0.2440  0.2435  0.2537
 1200BOLB   C2D28798  19.825  24.956  10.662 -0.2530 -0.1098 -0.0213
 1200BOLB   C3D28799  19.506  24.752  10.821  0.1396 -0.0419 -0.3573
 1200BOLB   C4D28800  19.202  24.715  11.209  0.1564 -0.2202  0.1277
 1201BOLB   NC128801  19.721  15.980  11.451  0.0224 -0.0479  0.1934
 1201BOLB   PO128802  19.982  16.035  11.010  0.4449 -0.2669  0.0942
 1201BOLB   GL128803  20.198  16.013  10.615  0.2134 -0.0082  0.0751
 1201BOLB   GL228804  20.000  15.996  10.312 -0.1481 -0.0905  0.2163
 1201BOLB   C1A28805  20.525  15.878  10.339 -0.2332 -0.1643  0.1200
 1201BOLB   C2A28806  20.855  15.739  10.046  0.3256 -0.1611  0.5878
 1201BOLB   C3A28807  21.126  15.592   9.788  0.1956  0.1591 -0.1050
 1201BOLB   C4A28808  21.361  15.422   9.362  0.0641  0.2007 -0.2793
 1201BOLB   C1B28809  20.149  15.876  10.013  0.1044 -0.3712 -0.0080
 1201BOLB   C2B28810  19.892  15.930   9.557  0.2937 -0.2389 -0.3656
 1201BOLB   C3B28811  19.674  15.928   9.127  0.1263  0.2542 -0.0355
 1201BOLB   C4B28812  19.418  15.674   8.878 -0.1438 -0.2153 -0.2770
 1201BOLB   NC228813  22.223  14.902   7.447  0.0056  0.3781 -0.3007
 1201BOLB   PO228814  22.180  14.444   7.388  0.1709  0.0342 -0.1630
 1201BOLB   GL328815  22.030  14.627   7.786  0.2886  0.0996  0.0539
 1201BOLB   GL428816  21.706  14.857   7.754  0.1417 -0.0510 -0.0559
 1201BOLB   C1C28817  21.950  14.723   8.266  0.2506  0.3109  0.0256
 1201BOLB   C2C28818  21.752  14.564   8.644  0.0150  0.3261 -0.0282
 1201BOLB   C3C28819  21.695  14.599   9.071  0.0154  0.0634 -0.2779
 1201BOLB   C4C28820  21.581  15.039   9.258 -0.3288 -0.0641  0.1569
 1201BOLB   C1D28821  21.714  15.153   8.095  0.1820 -0.1629  0.0942
 1201BOLB   C2D28822  21.588  14.979   8.382  0.1856 -0.2782 -0.1609
 1201BOLB   C3D28823  21.463  14.946   8.794 -0.2167  0.0735 -0.4394
 1201BOLB   C4D28824  21.258  14.634   8.822 -0.0018  0.1493 -0.0567
 1202BOLB   NC128825  14.510  18.075  10.090  0.1953  0.0723 -0.3110
 1202BOLB   PO128826  14.909  18.288   9.920  0.4037 -0.1208  0.0160
 1202BOLB   GL128827  15.179  18.493   9.637  0.0201  0.1725 -0.0025
 1202BOLB   GL228828  14.898  18.554   9.435 -0.0664 -0.0430 -0.1212
 1202BOLB   C1A28829  15.315  18.578   9.226  0.1221 -0.0803  0.2406
 1202BOLB   C2A28830  15.256  18.707   8.784 -0.5448 -0.0436  0.0897
 1202BOLB   C3A28831  15.308  18.978   8.488 -0.2087  0.3839  0.0459
 1202BOLB   C4A28832  15.608  19.295   8.289  0.0236  0.2217 -0.0577
 1202BOLB   C1B28833  14.864  18.674   9.054  0.1451  0.2022  0.0395
 1202BOLB   C2B28834  14.806  18.692   8.572 -0.0436 -0.0333  0.1583
 1202BOLB   C3B28835  14.615  18.938   8.257  0.0322 -0.2765  0.1896
 1202BOLB   C4B28836  14.118  18.938   7.999  0.1024  0.0821  0.2924
 1202BOLB   NC228837  16.248  18.989   5.787 -0.0786  0.1142 -0.1660
 1202BOLB   PO228838  16.300  19.297   6.107 -0.3626 -0.0174  0.1368
 1202BOLB   GL328839  16.186  19.248   6.646  0.0980  0.1424 -0.2511
 1202BOLB   GL428840  15.817  19.303   6.539 -0.0940 -0.0312  0.2450
 1202BOLB   C1C28841  16.048  19.224   7.028 -0.3678 -0.2084 -0.1780
 1202BOLB   C2C28842  16.219  19.331   7.395 -0.1190  0.0975  0.1417
 1202BOLB   C3C28843  16.073  19.525   7.686  0.1794 -0.4275 -0.0162
 1202BOLB   C4C28844  15.732  19.479   7.911  0.1278  0.1278  0.3371
 1202BOLB   C1D28845  15.505  19.290   6.897  0.1631 -0.2409  0.0819
 1202BOLB   C2D28846  15.147  19.440   7.162 -0.1392 -0.0519  0.0217
 1202BOLB   C3D28847  14.939  19.781   7.397  0.1483  0.2391  0.0845
 1202BOLB   C4D28848  14.994  20.135   7.641 -0.1699  0.4262 -0.2056
 1203BOLB   NC128849  14.884  24.113  13.586 -0.1270 -0.0281  0.0786
 1203BOLB   PO128850  15.284  24.171  13.465  0.0263 -0.3036  0.2527
 1203BOLB   GL128851  15.470  24.396  13.084  0.0422  0.3012  0.0211
 1203BOLB   GL228852  15.419  24.163  12.935 -0.2234  0.3957 -0.0745
 1203BOLB   C1A28853  15.623  24.606  12.731 -0.2122  0.3692  0.3565
 1203BOLB   C2A28854  15.892  24.886  12.569 -0.0530  0.2321 -0.1957
 1203BOLB   C3A28855  15.857  25.202  12.304 -0.0889 -0.2389  0.1270
 1203BOLB   C4A28856  15.953  25.445  12.006 -0.0027 -0.0773 -0.1160
 1203BOLB   C1B28857  15.208  24.369  12.631 -0.1334 -0.0886  0.0910
 1203BOLB   C2B28858  15.046  24.427  12.240  0.0423 -0.2090 -0.0560
 1203BOLB   C3B28859  14.829  24.825  12.073 -0.0470  0.1230 -0.2936
 1203BOLB   C4B28860  14.866  25.234  12.169  0.2443 -0.2563  0.0462
 1203BOLB   NC228861  16.381  26.698  10.283  0.2502 -0.0089 -0.2010
 1203BOLB   PO228862  16.127  27.053  10.506 -0.1717  0.0640  0.2104
 1203BOLB   GL328863  16.335  26.833  10.859 -0.2865  0.0887 -0.0532
 1203BOLB   GL428864  16.421  26.866  11.078 -0.0092 -0.1333 -0.2631
 1203BOLB   C1C28865  16.663  26.502  10.890 -0.0138  0.1313 -0.1092
 1203BOLB   C2C28866  16.676  26.037  11.152  0.0897  0.1385  0.3423
 1203BOLB   C3C28867  16.476  25.614  11.402 -0.0993 -0.1345  0.0272
 1203BOLB   C4C28868  16.119  25.596  11.618 -0.0349 -0.0274 -0.1695
 1203BOLB   C1D28869  16.124  26.641  11.355 -0.1396  0.2022  0.1704
 1203BOLB   C2D28870  16.058  26.235  11.431  0.0890 -0.2073  0.0111
 1203BOLB   C3D28871  16.174  26.103  11.813 -0.0822  0.0967  0.2306
 1203BOLB   C4D28872  15.840  25.909  12.118  0.0704  0.2060  0.1085
 1204BOLB   NC128873  19.573  22.994  13.814 -0.1264  0.2261 -0.2107
 1204BOLB   PO128874  19.580  23.329  13.549 -0.1518 -0.0527 -0.0702
 1204BOLB   GL128875  19.472  23.700  13.259  0.1409  0.1531  0.1795
 1204BOLB   GL228876  19.457  24.027  13.447  0.0365 -0.1499  0.0306
 1204BOLB   C1A28877  19.709  24.018  13.061  0.1029 -0.0961 -0.0018
 1204BOLB   C2A28878  19.626  24.407  12.795 -0.2224 -0.1824  0.2743
 1204BOLB   C3A28879  19.476  24.706  12.659 -0.1572 -0.3158  0.1337
 1204BOLB   C4A28880  19.445  25.010  12.373  0.2304 -0.4923  0.2728
 1204BOLB   C1B28881  19.385  24.470  13.265 -0.3584  0.0779 -0.0243
 1204BOLB   C2B28882  19.261  24.850  13.111  0.0369  0.0156  0.0259
 1204BOLB   C3B28883  19.105  25.075  12.803 -0.0962  0.1673 -0.3151
 1204BOLB   C4B28884  18.900  25.278  12.530  0.3759  0.4690 -0.0080
 1204BOLB   NC228885  20.122  26.755  10.866 -0.2285 -0.4151  0.2117
 1204BOLB   PO228886  20.228  26.260  10.616 -0.0046 -0.1190 -0.0624
 1204BOLB   GL328887  19.830  26.146  10.852  0.0056 -0.1959 -0.0537
 1204BOLB   GL428888  19.981  26.197  11.066 -0.1744  0.0235 -0.1294
 1204BOLB   C1C28889  19.516  25.951  11.184 -0.1565 -0.0668 -0.2868
 1204BOLB   C2C28890  19.380  25.642  11.352 -0.2510  0.0580  0.2578
 1204BOLB   C3C28891  19.432  25.294  11.618  0.4001  0.1677  0.1083
 1204BOLB   C4C28892  19.510  25.157  12.041 -0.0268  0.3756  0.0110
 1204BOLB   C1D28893  20.355  25.883  11.203 -0.0394  0.3342 -0.2424
 1204BOLB   C2D28894  20.797  25.837  11.328 -0.1417 -0.0958  0.0309
 1204BOLB   C3D28895  21.093  26.148  11.223  0.4567  0.3125 -0.1027
 1204BOLB   C4D28896  21.399  26.462  11.190 -0.0717 -0.2507 -0.2954
 1205BOLB   NC128897  15.716  21.199  11.075  0.0100 -0.0797  0.0464
 1205BOLB   PO128898  15.474  21.521  11.017  0.1188  0.0721  0.1145
 1205BOLB   GL128899  15.489  21.846  10.825 -0.0240 -0.0397  0.1689
 1205BOLB   GL228900  15.145  21.894  10.792  0.2680  0.3881 -0.0028
 1205BOLB   C1A28901  15.796  22.168  10.518 -0.3443  0.1696  0.0686
 1205BOLB   C2A28902  15.763  22.507  10.215  0.5292 -0.0129  0.0717
 1205BOLB   C3A28903  15.728  22.681   9.825 -0.1223  0.2160 -0.0312
 1205BOLB   C4A28904  15.810  22.896   9.418  0.2115 -0.2881 -0.1600
 1205BOLB   C1B28905  15.274  21.899  10.360  0.0226 -0.0303  0.1076
 1205BOLB   C2B28906  15.365  22.205  10.156  0.0592 -0.1152  0.1322
 1205BOLB   C3B28907  15.393  22.245   9.726 -0.0367 -0.0951 -0.1431
 1205BOLB   C4B28908  15.578  22.430   9.392  0.4559 -0.5130  0.1105
 1205BOLB   NC228909  16.454  22.775   7.426 -0.2166  0.2559  0.1834
 1205BOLB   PO228910  16.889  22.776   7.575  0.2740 -0.2998  0.0477
 1205BOLB   GL328911  16.812  22.932   7.908 -0.0167  0.0872  0.3128
 1205BOLB   GL428912  16.492  22.894   8.001 -0.4786  0.1422  0.1159
 1205BOLB   C1C28913  16.913  23.228   8.263  0.4081  0.2843 -0.1598
 1205BOLB   C2C28914  16.729  23.376   8.634 -0.0154  0.1628  0.0861
 1205BOLB   C3C28915  16.572  23.054   8.969 -0.3233  0.0401 -0.1406
 1205BOLB   C4C28916  16.184  22.785   9.146 -0.1716 -0.2132 -0.0573
 1205BOLB   C1D28917  16.676  22.725   8.441 -0.0235 -0.0880 -0.0194
 1205BOLB   C2D28918  16.586  22.583   8.901  0.0097  0.0600  0.3351
 1205BOLB   C3D28919  16.424  22.223   9.074  0.0309  0.1035 -0.2422
 1205BOLB   C4D28920  15.997  22.096   9.253 -0.1035 -0.0434  0.1579
 1206BOLB   NC128921  13.462  15.892  10.274  0.2846  0.3842  0.1534
 1206BOLB   PO128922  13.445  15.481  10.068 -0.0404 -0.0532  0.0911
 1206BOLB   GL128923  13.472  15.423   9.669 -0.1123 -0.2494 -0.3493
 1206BOLB   GL228924  13.185  15.441   9.506 -0.1486  0.1623 -0.5613
 1206BOLB   C1A28925  13.591  15.493   9.248 -0.0446  0.4325 -0.0133
 1206BOLB   C2A28926  13.682  15.595   8.879  0.1782  0.0346  0.0336
 1206BOLB   C3A28927  13.884  15.635   8.470 -0.3501 -0.2502 -0.2632
 1206BOLB   C4A28928  14.181  15.541   8.082  0.2316 -0.2266 -0.3203
 1206BOLB   C1B28929  13.078  15.196   9.096  0.1515  0.0330 -0.0863
 1206BOLB   C2B28930  13.030  15.078   8.692  0.2508 -0.1720  0.1283
 1206BOLB   C3B28931  12.632  14.934   8.448  0.1512 -0.4903 -0.3476
 1206BOLB   C4B28932  12.238  14.980   8.245 -0.0615 -0.0398  0.2026
 1206BOLB   NC228933  15.069  14.537   6.147 -0.0009 -0.3622 -0.2498
 1206BOLB   PO228934  14.791  14.268   6.101 -0.0190 -0.2583  0.0893
 1206BOLB   GL328935  14.484  14.224   6.491  0.3705  0.1013 -0.1448
 1206BOLB   GL428936  14.156  14.105   6.515  0.0327 -0.1345  0.0965
 1206BOLB   C1C28937  14.698  14.559   6.813  0.1956 -0.0949  0.3374
 1206BOLB   C2C28938  14.689  14.784   7.240  0.3033 -0.1180  0.2968
 1206BOLB   C3C28939  14.647  15.109   7.561 -0.2665 -0.1834  0.3302
 1206BOLB   C4C28940  14.351  15.293   7.887 -0.0841 -0.0170  0.1412
 1206BOLB   C1D28941  14.195  14.326   6.954  0.2616  0.1350  0.4726
 1206BOLB   C2D28942  14.177  14.734   7.292 -0.0898  0.1367 -0.0830
 1206BOLB   C3D28943  14.305  14.812   7.700  0.0545  0.1162 -0.3770
 1206BOLB   C4D28944  14.749  14.903   8.000  0.0368 -0.1094  0.0754
 1207BOLB   NC128945  10.552  21.079  12.142  0.1503  0.0405 -0.2008
 1207BOLB   PO128946  10.222  20.918  11.733  0.3035  0.0213  0.0001
 1207BOLB   GL128947   9.774  21.017  11.653  0.0572 -0.1090 -0.1793
 1207BOLB   GL228948   9.942  21.295  11.448 -0.2466 -0.0402  0.0425
 1207BOLB   C1A28949   9.512  21.055  11.390  0.0180  0.1548  0.0397
 1207BOLB   C2A28950   9.290  21.042  10.958  0.1578  0.0315 -0.4385
 1207BOLB   C3A28951   9.231  21.144  10.536  0.1095  0.1037 -0.1109
 1207BOLB   C4A28952   9.035  20.905  10.127  0.2053  0.0867  0.2663
 1207BOLB   C1B28953   9.649  21.412  11.009  0.1548 -0.2452  0.2446
 1207BOLB   C2B28954   9.731  21.235  10.573 -0.1211  0.2241  0.0877
 1207BOLB   C3B28955   9.618  21.290  10.118  0.1006  0.0392 -0.0061
 1207BOLB   C4B28956   9.525  21.661  10.039  0.0616  0.0530 -0.1111
 1207BOLB   NC228957   7.221  21.131   8.487 -0.1361  0.1502 -0.0341
 1207BOLB   PO228958   6.998  21.215   8.833 -0.0182  0.3512  0.1662
 1207BOLB   GL328959   7.446  21.226   9.024  0.0739 -0.2847 -0.0315
 1207BOLB   GL428960   7.308  20.895   9.067 -0.3770 -0.3846  0.0512
 1207BOLB   C1C28961   7.797  20.998   9.145  0.0349 -0.0327  0.5417
 1207BOLB   C2C28962   8.147  20.954   9.437 -0.0293 -0.1319  0.1534
 1207BOLB   C3C28963   8.345  20.736   9.686  0.1707 -0.1708 -0.1516
 1207BOLB   C4C28964   8.749  20.841   9.861 -0.0633  0.0235  0.2669
 1207BOLB   C1D28965   7.380  20.670   9.364 -0.0114  0.2338 -0.3103
 1207BOLB   C2D28966   7.279  20.569   9.723 -0.3204 -0.1611  0.0422
 1207BOLB   C3D28967   7.152  20.696  10.097 -0.0440 -0.1460  0.0552
 1207BOLB   C4D28968   7.000  21.131  10.383 -0.0683 -0.1942  0.0639
 1208BOLB   NC128969  14.215  14.747   9.978  0.2203  0.0463 -0.0963
 1208BOLB   PO128970  14.503  14.651  10.129 -0.1534 -0.1472  0.1795
 1208BOLB   GL128971  14.651  14.616   9.751  0.0243 -0.1477 -0.0635
 1208BOLB   GL228972  14.464  14.892   9.583 -0.1649  0.2191  0.0361
 1208BOLB   C1A28973  14.888  14.689   9.367  0.0464 -0.2208  0.1136
 1208BOLB   C2A28974  15.035  14.979   9.042 -0.2670 -0.1647 -0.3962
 1208BOLB   C3A28975  15.083  14.744   8.748  0.0276  0.0346  0.0092
 1208BOLB   C4A28976  15.070  14.756   8.313 -0.0633  0.4076 -0.0411
 1208BOLB   C1B28977  14.533  14.924   9.147 -0.1570 -0.1652  0.2998
 1208BOLB   C2B28978  14.581  14.874   8.782 -0.1484 -0.0300  0.0252
 1208BOLB   C3B28979  14.453  14.806   8.401 -0.0710 -0.4678 -0.1459
 1208BOLB   C4B28980  14.597  14.437   8.083 -0.0954 -0.2544  0.2071
 1208BOLB   NC228981  15.938  14.940   6.386  0.0695  0.2468  0.1532
 1208BOLB   PO228982  16.296  15.008   6.277  0.0618 -0.1617  0.1344
 1208BOLB   GL328983  16.281  15.351   6.609 -0.0397  0.1050  0.0835
 1208BOLB   GL428984  16.575  15.522   6.633  0.2260  0.1248  0.3472
 1208BOLB   C1C28985  16.119  15.415   6.954 -0.1677  0.0595 -0.0758
 1208BOLB   C2C28986  15.799  15.089   7.205  0.0206 -0.2419  0.0135
 1208BOLB   C3C28987  15.479  14.880   7.504  0.3438  0.1073 -0.0071
 1208BOLB   C4C28988  15.309  14.707   7.929  0.0663  0.4605  0.1592
 1208BOLB   C1D28989  16.750  15.501   7.048 -0.0482 -0.1326 -0.0399
 1208BOLB   C2D28990  16.639  15.522   7.511 -0.2904 -0.2344  0.0971
 1208BOLB   C3D28991  16.266  15.719   7.782 -0.1208  0.1841 -0.1053
 1208BOLB   C4D28992  15.975  15.674   8.029  0.4846 -0.2076 -0.0898
 1209BOLB   NC128993  11.633  22.088  11.379  0.2266 -0.0027 -0.0077
 1209BOLB   PO128994  11.249  21.808  11.268 -0.4935  0.1597  0.0456
 1209BOLB   GL128995  11.040  21.828  10.949 -0.2363  0.3810  0.0322
 1209BOLB   GL228996  11.043  21.677  10.677  0.0848  0.2499  0.0025
 1209BOLB   C1A28997  10.937  22.192  10.636  0.1231  0.0409 -0.0143
 1209BOLB   C2A28998  10.930  22.179  10.178 -0.0871 -0.1077 -0.1205
 1209BOLB   C3A28999  10.800  21.964   9.796  0.2262  0.0445  0.1630
 1209BOLB   C4A29000  10.710  21.880   9.338 -0.0453  0.0037  0.0259
 1209BOLB   C1B29001  10.962  21.622  10.145  0.0367  0.0387  0.2602
 1209BOLB   C2B29002  10.852  21.495   9.686 -0.2268 -0.2582 -0.1576
 1209BOLB   C3B29003  10.795  21.308   9.271 -0.3359  0.0141  0.0262
 1209BOLB   C4B29004  10.716  21.355   8.797 -0.2359  0.0112  0.0460
 1209BOLB   NC229005  10.930  22.874   7.032 -0.0233 -0.0391  0.1885
 1209BOLB   PO229006  10.994  22.742   7.506 -0.0107 -0.2970  0.0802
 1209BOLB   GL329007  11.265  22.759   7.896  0.1411 -0.4072 -0.1805
 1209BOLB   GL429008  11.161  22.888   8.183 -0.1117  0.2729  0.0307
 1209BOLB   C1C29009  11.506  22.464   8.159 -0.0643  0.2714 -0.0563
 1209BOLB   C2C29010  11.372  22.055   8.331  0.5589 -0.3271 -0.1968
 1209BOLB   C3C29011  11.088  21.713   8.506  0.2070  0.1251 -0.4619
 1209BOLB   C4C29012  11.021  21.665   9.009  0.4334  0.0708 -0.0279
 1209BOLB   C1D29013  11.630  22.927   8.273  0.1732  0.1328  0.0792
 1209BOLB   C2D29014  11.993  22.778   8.144  0.1091 -0.1038 -0.1913
 1209BOLB   C3D29015  12.410  22.638   8.161 -0.2831  0.1655 -0.0988
 1209BOLB   C4D29016  12.657  22.345   8.215  0.2606  0.2880 -0.0549
 1210BOLB   NC129017  14.019  23.203  12.225 -0.1192  0.0052 -0.0659
 1210BOLB   PO129018  13.764  22.912  12.109 -0.0745 -0.3611 -0.1421
 1210BOLB   GL129019  13.634  22.973  11.730  0.0078 -0.0217  0.1583
 1210BOLB   GL229020  13.426  22.786  11.458  0.0700 -0.0320  0.2636
 1210BOLB   C1A29021  13.857  23.103  11.430 -0.2008 -0.2489  0.0177
 1210BOLB   C2A29022  13.786  23.411  11.062 -0.0243 -0.1148 -0.1756
 1210BOLB   C3A29023  13.881  23.554  10.668 -0.1560  0.0533 -0.3996
 1210BOLB   C4A29024  14.005  23.482  10.220 -0.3210 -0.0544 -0.1677
 1210BOLB   C1B29025  13.324  23.184  11.190  0.0543 -0.1067  0.2176
 1210BOLB   C2B29026  13.079  23.438  10.854  0.3999 -0.0931 -0.3939
 1210BOLB   C3B29027  12.981  23.612  10.377 -0.0999  0.2329 -0.1247
 1210BOLB   C4B29028  13.157  23.793  10.014 -0.4500 -0.0358  0.2467
 1210BOLB   NC229029  13.012  25.078   8.483 -0.0002 -0.1245  0.1216
 1210BOLB   PO229030  13.390  25.272   8.606 -0.1850  0.1093 -0.2153
 1210BOLB   GL329031  13.410  24.915   8.854 -0.4457 -0.1594  0.2851
 1210BOLB   GL429032  13.247  24.927   9.136 -0.0157 -0.2514 -0.2540
 1210BOLB   C1C29033  13.864  24.774   9.122 -0.1162  0.0739  0.2141
 1210BOLB   C2C29034  14.133  24.398   9.452  0.1993  0.1045 -0.0972
 1210BOLB   C3C29035  14.201  24.005   9.586 -0.0952 -0.1552 -0.2869
 1210BOLB   C4C29036  14.170  23.746   9.909 -0.0259  0.0733 -0.1863
 1210BOLB   C1D29037  13.513  24.571   9.331  0.0272 -0.2451  0.0478
 1210BOLB   C2D29038  13.662  24.549   9.646 -0.0115  0.0794  0.1154
 1210BOLB   C3D29039  13.789  24.214   9.964 -0.4155 -0.4080  0.0077
 1210BOLB   C4D29040  13.807  24.031  10.182 -0.1000  0.3464  0.0099
 1211BOLB   NC129041  10.984  15.956  11.122 -0.0903 -0.2135  0.1837
 1211BOLB   PO129042  11.103  16.234  10.741 -0.0169  0.0936  0.2239
 1211BOLB   GL129043  11.047  16.446  10.319  0.2190 -0.1220 -0.1099
 1211BOLB   GL229044  11.311  16.531  10.016  0.2913 -0.2390  0.3850
 1211BOLB   C1A29045  10.688  16.168   9.994  0.1325 -0.2709  0.1920
 1211BOLB   C2A29046  10.353  16.082   9.621 -0.3967 -0.3245  0.1936
 1211BOLB   C3A29047  10.022  16.202   9.379 -0.0174 -0.1951 -0.0603
 1211BOLB   C4A29048   9.692  16.103   9.266  0.2044  0.0325  0.2300
 1211BOLB   C1B29049  11.009  16.417   9.659  0.0222  0.1837  0.0376
 1211BOLB   C2B29050  10.708  16.241   9.306  0.2070 -0.0586  0.0858
 1211BOLB   C3B29051  10.377  15.972   9.054  0.3550 -0.0212  0.0569
 1211BOLB   C4B29052  10.035  15.840   8.760  0.0577  0.1091  0.0651
 1211BOLB   NC229053   9.474  16.975   7.013  0.4031  0.3321  0.0122
 1211BOLB   PO229054   9.594  16.704   6.646 -0.0395  0.0911  0.2708
 1211BOLB   GL329055   9.577  16.464   7.022 -0.1756  0.1010 -0.1096
 1211BOLB   GL429056   9.522  16.036   6.967  0.3478  0.0372 -0.1408
 1211BOLB   C1C29057   9.635  16.264   7.537 -0.1548  0.0854  0.0260
 1211BOLB   C2C29058   9.505  16.436   8.006  0.2274 -0.2693 -0.1687
 1211BOLB   C3C29059   9.599  16.430   8.433 -0.0967  0.0924 -0.0395
 1211BOLB   C4C29060   9.522  16.170   8.804 -0.1592  0.0681 -0.2280
 1211BOLB   C1D29061   9.319  15.627   7.144  0.0122 -0.0354 -0.3157
 1211BOLB   C2D29062   9.314  15.471   7.637 -0.1265 -0.1557  0.1795
 1211BOLB   C3D29063   9.137  15.400   8.002  0.0384  0.1424 -0.0422
 1211BOLB   C4D29064   9.012  15.355   8.449 -0.2098 -0.1479  0.2267
 1212BOLB   NC129065  19.772  13.066  12.377 -0.0144  0.0226  0.2123
 1212BOLB   PO129066  19.773  12.732  11.966  0.0687 -0.1396  0.2459
 1212BOLB   GL129067  19.472  12.765  11.554 -0.1255  0.0061 -0.1543
 1212BOLB   GL229068  19.548  13.055  11.336 -0.1148  0.2432 -0.0607
 1212BOLB   C1A29069  19.415  12.579  11.260  0.2303 -0.0657 -0.1237
 1212BOLB   C2A29070  19.468  12.409  10.827  0.1576 -0.1357  0.4842
 1212BOLB   C3A29071  19.643  12.368  10.365  0.0191  0.1728  0.1365
 1212BOLB   C4A29072  19.576  12.270   9.946 -0.0400  0.1161  0.0756
 1212BOLB   C1B29073  19.419  12.979  10.877  0.1500 -0.1547  0.0238
 1212BOLB   C2B29074  19.434  12.797  10.470  0.0524  0.1714 -0.2479
 1212BOLB   C3B29075  19.510  12.744   9.934  0.1592  0.0242 -0.0856
 1212BOLB   C4B29076  19.912  12.783   9.717 -0.1197  0.0640  0.1281
 1212BOLB   NC229077  20.500  11.647   7.544  0.1793 -0.0903 -0.0245
 1212BOLB   PO229078  20.741  11.690   8.008  0.0817 -0.0657 -0.0977
 1212BOLB   GL329079  20.623  11.849   8.355  0.1553  0.2374  0.1858
 1212BOLB   GL429080  20.305  11.775   8.481  0.0518 -0.3669 -0.0247
 1212BOLB   C1C29081  20.561  12.225   8.563 -0.2541  0.0151  0.1226
 1212BOLB   C2C29082  20.317  12.354   8.911  0.2854  0.0507  0.2297
 1212BOLB   C3C29083  19.859  12.370   9.128 -0.2692  0.2612  0.1851
 1212BOLB   C4C29084  19.568  12.380   9.510 -0.4363  0.2758 -0.0361
 1212BOLB   C1D29085  19.956  12.068   8.581  0.2350 -0.1163 -0.0236
 1212BOLB   C2D29086  19.699  12.411   8.599 -0.1973 -0.2080  0.0225
 1212BOLB   C3D29087  19.431  12.721   9.028  0.0547 -0.0429 -0.0943
 1212BOLB   C4D29088  19.562  12.872   9.405  0.2472 -0.4290 -0.1959
 1213BOLB   NC129089  16.078  14.825  10.954  0.1735  0.1119 -0.0581
 1213BOLB   PO129090  15.866  15.093  10.619 -0.0212 -0.0932  0.4265
 1213BOLB   GL129091  15.975  15.004  10.237 -0.1068 -0.3060 -0.1518
 1213BOLB   GL229092  15.873  15.320  10.101  0.1724 -0.3071 -0.2689
 1213BOLB   C1A29093  15.780  14.813   9.944  0.1069 -0.1600 -0.1147
 1213BOLB   C2A29094  15.443  14.607   9.840 -0.0442 -0.1518 -0.1135
 1213BOLB   C3A29095  15.438  14.394   9.573  0.1082  0.0780 -0.1589
 1213BOLB   C4A29096  15.360  14.468   9.101  0.0104 -0.3921 -0.0844
 1213BOLB   C1B29097  15.987  15.294   9.623  0.0361  0.0466  0.0043
 1213BOLB   C2B29098  16.131  15.231   9.276  0.3972 -0.0538  0.4093
 1213BOLB   C3B29099  16.006  15.124   8.866 -0.1210  0.1064  0.0621
 1213BOLB   C4B29100  15.980  14.758   8.647  0.4106  0.4826 -0.0564
 1213BOLB   NC229101  16.502  14.162   6.157  0.3936 -0.1082 -0.0630
 1213BOLB   PO229102  16.179  14.120   6.523  0.0495  0.0153  0.2848
 1213BOLB   GL329103  16.094  14.120   6.957  0.1448  0.1947  0.2914
 1213BOLB   GL429104  16.415  14.286   6.980 -0.2570  0.1585  0.1891
 1213BOLB   C1C29105  15.955  14.445   7.246 -0.0566 -0.3090 -0.1251
 1213BOLB   C2C29106  15.714  14.502   7.764  0.1267 -0.2902 -0.0072
 1213BOLB   C3C29107  15.517  14.472   8.338  0.0856  0.5128 -0.1160
 1213BOLB   C4C29108  15.301  14.364   8.643 -0.0610  0.0425  0.2591
 1213BOLB   C1D29109  16.454  14.574   7.275 -0.1102  0.2052 -0.3429
 1213BOLB   C2D29110  16.613  14.537   7.657 -0.1277 -0.0638 -0.1881
 1213BOLB   C3D29111  16.404  14.642   8.018 -0.1204 -0.0379  0.1827
 1213BOLB   C4D29112  16.039  14.608   8.161 -0.1265 -0.1150 -0.1042
 1214BOLB   NC129113  16.908  10.803  12.095  0.0419  0.1420  0.1384
 1214BOLB   PO129114  17.333  10.838  12.154 -0.1520  0.0449 -0.1557
 1214BOLB   GL129115  17.509  10.806  11.844 -0.0914  0.1127 -0.3162
 1214BOLB   GL229116  17.815  10.933  11.801 -0.0506 -0.0594  0.2363
 1214BOLB   C1A29117  17.718  10.413  11.860  0.0145 -0.2635  0.0362
 1214BOLB   C2A29118  17.932  10.312  11.466 -0.0506  0.0999  0.0880
 1214BOLB   C3A29119  18.085  10.324  11.059  0.1277  0.1006 -0.0135
 1214BOLB   C4A29120  18.187  10.257  10.664  0.0419 -0.0249 -0.0148
 1214BOLB   C1B29121  17.601  10.979  11.428 -0.0128 -0.3929  0.2111
 1214BOLB   C2B29122  17.554  10.756  11.069 -0.1605 -0.2792 -0.0499
 1214BOLB   C3B29123  17.556  10.372  10.973  0.2055 -0.1978  0.3532
 1214BOLB   C4B29124  17.684  10.023  10.656  0.0203 -0.2414  0.3784
 1214BOLB   NC229125  19.793   9.609   8.779 -0.2004 -0.3765  0.0397
 1214BOLB   PO229126  19.731   9.437   9.181  0.2551  0.2068 -0.0142
 1214BOLB   GL329127  19.411   9.598   9.483  0.2732 -0.0208 -0.0797
 1214BOLB   GL429128  19.379   9.330   9.655 -0.2509 -0.0171 -0.0073
 1214BOLB   C1C29129  19.348   9.783   9.890  0.0259  0.1048  0.2059
 1214BOLB   C2C29130  19.227   9.915  10.229 -0.1074 -0.1345 -0.0520
 1214BOLB   C3C29131  18.958  10.174  10.349  0.1562  0.1096  0.0617
 1214BOLB   C4C29132  18.528  10.170  10.425 -0.1757  0.2365  0.0641
 1214BOLB   C1D29133  18.919   9.461   9.832 -0.2106  0.2313 -0.0332
 1214BOLB   C2D29134  18.710   9.876   9.981 -0.2638 -0.1217  0.1304
 1214BOLB   C3D29135  18.275   9.866  10.015  0.0580  0.0610 -0.2200
 1214BOLB   C4D29136  17.882  10.102  10.212  0.0163 -0.0505 -0.0523
 1215BOLB   NC129137  16.508  23.166  12.745  0.0183 -0.0633  0.2865
 1215BOLB   PO129138  16.365  23.005  12.335  0.2354  0.2842 -0.2537
 1215BOLB   GL129139  16.431  23.246  11.941 -0.0502 -0.0059  0.0033
 1215BOLB   GL229140  16.090  23.217  11.864  0.1360  0.0586  0.1759
 1215BOLB   C1A29141  16.466  23.600  11.758 -0.1080  0.4431  0.0351
 1215BOLB   C2A29142  16.368  23.941  11.411  0.0670 -0.4063 -0.1277
 1215BOLB   C3A29143  16.389  24.257  11.138  0.0455 -0.0755  0.3631
 1215BOLB   C4A29144  16.238  24.417  10.730 -0.1798 -0.1378 -0.1675
 1215BOLB   C1B29145  15.981  23.700  11.733  0.1888 -0.1193 -0.1123
 1215BOLB   C2B29146  15.854  23.899  11.334 -0.1977 -0.0183 -0.2705
 1215BOLB   C3B29147  15.758  24.270  11.060 -0.1567  0.1664  0.1881
 1215BOLB   C4B29148  15.724  24.485  10.650 -0.2208  0.3372 -0.1153
 1215BOLB   NC229149  16.933  26.187   9.783  0.1449 -0.0022  0.0782
 1215BOLB   PO229150  17.075  26.427  10.166 -0.4595  0.2581  0.2212
 1215BOLB   GL329151  17.072  26.045  10.322 -0.1626  0.1867 -0.1671
 1215BOLB   GL429152  17.042  25.804  10.108  0.1382 -0.0572  0.0956
 1215BOLB   C1C29153  16.922  25.753  10.563 -0.0420 -0.1861  0.3378
 1215BOLB   C2C29154  16.683  25.407  10.475  0.1309  0.0625 -0.0509
 1215BOLB   C3C29155  16.287  25.054  10.373  0.0357 -0.0354 -0.1035
 1215BOLB   C4C29156  16.144  24.739  10.567  0.1893 -0.0563  0.1036
 1215BOLB   C1D29157  17.212  25.432  10.284 -0.2027 -0.1655  0.0124
 1215BOLB   C2D29158  17.132  25.043  10.522  0.1548 -0.1462 -0.1000
 1215BOLB   C3D29159  17.335  24.618  10.508  0.2135 -0.0032  0.1983
 1215BOLB   C4D29160  17.389  24.485  10.918 -0.0390  0.2440  0.0526
 1216BOLB   NC129161  20.029  23.075  13.438  0.1922 -0.1522  0.0130
 1216BOLB   PO129162  19.790  23.282  13.033  0.2927 -0.0069  0.0731
 1216BOLB   GL129163  20.057  23.570  12.751  0.0274  0.1140  0.0875
 1216BOLB   GL229164  20.440  23.623  12.720  0.1714 -0.2372 -0.2481
 1216BOLB   C1A29165  20.078  24.047  12.640  0.0222 -0.3634  0.1679
 1216BOLB   C2A29166  19.987  24.396  12.520  0.0768 -0.0926  0.3139
 1216BOLB   C3A29167  19.894  24.899  12.585  0.0002 -0.1282  0.3533
 1216BOLB   C4A29168  19.922  25.330  12.321  0.0107  0.0954 -0.0943
 1216BOLB   C1B29169  20.353  23.799  12.340 -0.0459  0.0767  0.0837
 1216BOLB   C2B29170  20.424  23.966  11.964 -0.0216 -0.0625 -0.1836
 1216BOLB   C3B29171  20.668  24.339  11.835 -0.0399 -0.0050  0.0870
 1216BOLB   C4B29172  20.727  24.712  11.612  0.2546 -0.0088 -0.1367
 1216BOLB   NC229173  19.146  28.019  11.089  0.1209 -0.0660 -0.1597
 1216BOLB   PO229174  19.249  27.608  11.379  0.2018 -0.0075 -0.0299
 1216BOLB   GL329175  19.264  27.202  11.578  0.5337  0.2912  0.2197
 1216BOLB   GL429176  19.362  26.866  11.328 -0.0181  0.2121 -0.0582
 1216BOLB   C1C29177  19.215  26.752  11.790  0.0583 -0.0341 -0.1163
 1216BOLB   C2C29178  19.485  26.409  11.976 -0.2095  0.3189  0.2067
 1216BOLB   C3C29179  19.472  26.045  12.207 -0.0475 -0.1843  0.2655
 1216BOLB   C4C29180  19.668  25.661  12.329  0.1336  0.0872  0.2430
 1216BOLB   C1D29181  19.658  26.568  11.447  0.0534 -0.0262  0.0877
 1216BOLB   C2D29182  19.766  26.211  11.627 -0.0820  0.0050 -0.2769
 1216BOLB   C3D29183  19.980  25.809  11.616 -0.1857  0.0802  0.4219
 1216BOLB   C4D29184  19.898  25.552  11.353  0.1158 -0.1369  0.3226
 1217BOLB   NC129185  19.058  12.328  12.145 -0.1403 -0.0968  0.0370
 1217BOLB   PO129186  19.346  12.440  11.893  0.2696  0.1733  0.1368
 1217BOLB   GL129187  19.619  12.249  11.688 -0.0095  0.0295 -0.1095
 1217BOLB   GL229188  19.408  12.029  11.536  0.2439 -0.0908  0.2959
 1217BOLB   C1A29189  19.958  11.988  11.518  0.0654 -0.0736  0.0616
 1217BOLB   C2A29190  20.038  11.672  11.302  0.0342  0.1243  0.0154
 1217BOLB   C3A29191  20.287  11.251  11.122 -0.1509 -0.1958  0.1077
 1217BOLB   C4A29192  20.592  11.098  10.966  0.2501  0.0788  0.1201
 1217BOLB   C1B29193  19.519  11.946  11.157 -0.3240  0.2303 -0.2001
 1217BOLB   C2B29194  19.790  11.696  10.889  0.2662  0.2745 -0.0006
 1217BOLB   C3B29195  20.157  11.476  10.645  0.5363  0.0857 -0.1784
 1217BOLB   C4B29196  20.283  11.620  10.216 -0.1553  0.1532 -0.2261
 1217BOLB   NC229197  20.446   9.952   9.371 -0.0332 -0.1282  0.0419
 1217BOLB   PO229198  20.860  10.229   9.305  0.2078  0.2670 -0.2866
 1217BOLB   GL329199  20.737  10.163   9.743 -0.0865 -0.0434 -0.2780
 1217BOLB   GL429200  20.552  10.110   9.994 -0.1441  0.0589  0.4893
 1217BOLB   C1C29201  21.054  10.206  10.148  0.0233 -0.1546 -0.0682
 1217BOLB   C2C29202  21.183  10.230  10.554 -0.0652 -0.0079 -0.1182
 1217BOLB   C3C29203  21.271  10.471  10.799 -0.2443  0.0383  0.2302
 1217BOLB   C4C29204  20.929  10.754  10.952  0.2271 -0.0886  0.0792
 1217BOLB   C1D29205  20.381  10.333  10.165  0.0830 -0.0937  0.1562
 1217BOLB   C2D29206  20.185  10.699  10.099  0.0082 -0.0694 -0.2667
 1217BOLB   C3D29207  20.494  11.070  10.237 -0.0257 -0.0741  0.0765
 1217BOLB   C4D29208  20.764  11.111  10.517 -0.1794  0.0228 -0.0785
 1218BOLB   NC129209  21.363  18.697  11.589  0.1706  0.1728 -0.2373
 1218BOLB   PO129210  21.026  18.966  11.281 -0.1171  0.0820 -0.0131
 1218BOLB   GL129211  20.986  19.204  10.811 -0.0760  0.1616 -0.0926
 1218BOLB   GL229212  20.724  19.186  10.462 -0.0086 -0.0191  0.0845
 1218BOLB   C1A29213  21.317  19.179  10.450  0.2444 -0.2478  0.0118
 1218BOLB   C2A29214  21.653  19.254  10.133 -0.0141  0.0855 -0.0086
 1218BOLB   C3A29215  21.935  19.089   9.901  0.0848 -0.2349 -0.3584
 1218BOLB   C4A29216  22.035  19.035   9.524  0.0367  0.1557  0.1456
 1218BOLB   C1B29217  20.640  19.235  10.135 -0.0510 -0.0519  0.1423
 1218BOLB   C2B29218  20.586  19.345   9.689 -0.4997 -0.2509  0.0168
 1218BOLB   C3B29219  20.212  19.480   9.483  0.0895  0.1695  0.2752
 1218BOLB   C4B29220  20.202  19.336   9.081 -0.0881 -0.2469 -0.0149
 1218BOLB   NC229221  22.841  19.329   7.438 -0.2990 -0.1839 -0.0154
 1218BOLB   PO229222  23.048  19.641   7.695  0.0053  0.0014 -0.0006
 1218BOLB   GL329223  22.756  19.452   7.928  0.1799 -0.0621 -0.0744
 1218BOLB   GL429224  22.787  19.109   7.883 -0.1128 -0.2331  0.2882
 1218BOLB   C1C29225  22.375  19.465   8.087  0.0780  0.3853  0.2228
 1218BOLB   C2C29226  22.087  19.399   8.442 -0.1744 -0.1224  0.0769
 1218BOLB   C3C29227  21.950  19.314   8.717  0.1716  0.0524  0.1646
 1218BOLB   C4C29228  22.025  19.163   9.164  0.0342  0.0232 -0.0586
 1218BOLB   C1D29229  22.880  19.156   8.318 -0.0783 -0.2980  0.0431
 1218BOLB   C2D29230  22.897  19.342   8.735 -0.2441  0.2871 -0.1127
 1218BOLB   C3D29231  22.836  19.677   8.907  0.5489  0.0424  0.1315
 1218BOLB   C4D29232  22.814  20.083   8.722  0.0808  0.0617  0.3995
 1219BOLB   NC129233   9.913  27.211  11.404 -0.3522 -0.2926 -0.3113
 1219BOLB   PO129234  10.079  27.556  11.422  0.1777  0.2119 -0.3567
 1219BOLB   GL129235  10.351  27.357  11.707  0.0776 -0.0900 -0.3158
 1219BOLB   GL229236  10.628  27.406  11.762 -0.3443  0.2077 -0.2064
 1219BOLB   C1A29237  10.590  26.930  11.755  0.0670 -0.1133 -0.2517
 1219BOLB   C2A29238  10.721  26.407  11.633  0.0043  0.2419  0.2940
 1219BOLB   C3A29239  11.161  26.238  11.723 -0.0751 -0.0250 -0.2017
 1219BOLB   C4A29240  11.583  26.053  11.607  0.0224 -0.0693  0.0909
 1219BOLB   C1B29241  11.008  27.391  11.903  0.2414 -0.1784  0.1253
 1219BOLB   C2B29242  11.321  27.552  11.908  0.1949  0.0932  0.1227
 1219BOLB   C3B29243  11.633  27.435  11.589  0.0441 -0.2201 -0.0032
 1219BOLB   C4B29244  11.559  27.188  11.197  0.2973 -0.0215 -0.1102
 1219BOLB   NC229245  11.086  28.138  10.359  0.0014  0.1209 -0.1975
 1219BOLB   PO229246  11.082  27.730  10.529 -0.1561  0.0135 -0.0433
 1219BOLB   GL329247  11.153  27.220  10.537  0.2859 -0.2187 -0.0303
 1219BOLB   GL429248  11.075  26.953  10.280 -0.0912  0.2229  0.1285
 1219BOLB   C1C29249  11.578  26.938  10.669  0.1465  0.3154 -0.0683
 1219BOLB   C2C29250  11.941  26.831  10.933 -0.2523  0.1937  0.0332
 1219BOLB   C3C29251  12.099  26.374  11.046  0.3214 -0.1235 -0.1262
 1219BOLB   C4C29252  11.943  26.060  11.395 -0.1547  0.0444 -0.0026
 1219BOLB   C1D29253  11.124  26.465  10.374 -0.3463 -0.3131  0.6159
 1219BOLB   C2D29254  11.157  26.240  10.704 -0.0544 -0.1916 -0.0067
 1219BOLB   C3D29255  11.330  25.872  10.831 -0.0848 -0.1198  0.2343
 1219BOLB   C4D29256  11.431  25.469  10.985  0.1969 -0.0859  0.3676
 1220BOLB   NC129257  21.036  16.477  11.660  0.1418  0.3745 -0.0748
 1220BOLB   PO129258  20.938  16.703  11.245  0.2953  0.3770  0.0654
 1220BOLB   GL129259  20.937  16.597  10.730  0.4700  0.0425 -0.3426
 1220BOLB   GL229260  20.596  16.511  10.621  0.2544 -0.2298  0.0327
 1220BOLB   C1A29261  21.003  16.532  10.288 -0.2612  0.0744 -0.1896
 1220BOLB   C2A29262  21.132  16.509   9.923 -0.0994  0.0457  0.1215
 1220BOLB   C3A29263  21.245  16.283   9.485 -0.3418 -0.2027  0.3008
 1220BOLB   C4A29264  21.559  16.151   9.122 -0.1715 -0.1325 -0.0036
 1220BOLB   C1B29265  20.482  16.340  10.247  0.0993 -0.5366 -0.0919
 1220BOLB   C2B29266  20.593  16.144   9.924  0.0753 -0.3857 -0.2704
 1220BOLB   C3B29267  20.831  15.941   9.584  0.1553 -0.1550 -0.1906
 1220BOLB   C4B29268  21.107  15.835   9.349 -0.2714 -0.1671 -0.0861
 1220BOLB   NC229269  23.263  15.193   8.214  0.2864  0.0353  0.1623
 1220BOLB   PO229270  23.123  14.823   7.902  0.2096  0.1092  0.0102
 1220BOLB   GL329271  22.779  15.045   8.040 -0.1748  0.5970  0.1775
 1220BOLB   GL429272  22.516  14.832   8.095 -0.3140 -0.2986 -0.3724
 1220BOLB   C1C29273  22.655  15.225   8.386 -0.1081  0.1439 -0.2505
 1220BOLB   C2C29274  22.482  15.441   8.713 -0.0539 -0.1030 -0.1228
 1220BOLB   C3C29275  22.158  15.620   8.872  0.3783 -0.2558 -0.2460
 1220BOLB   C4C29276  21.812  15.896   8.841  0.1309 -0.1571  0.0594
 1220BOLB   C1D29277  22.455  14.787   8.541  0.0100  0.4184  0.1968
 1220BOLB   C2D29278  22.526  14.933   8.906  0.0621 -0.1771 -0.3818
 1220BOLB   C3D29279  22.681  15.275   9.169 -0.1462  0.3102  0.1553
 1220BOLB   C4D29280  22.933  15.423   9.561 -0.1205  0.1516 -0.0529
 1221BOLB   NC129281  21.332  13.507  13.207 -0.0355  0.0254 -0.0432
 1221BOLB   PO129282  21.698  13.545  13.195  0.0807 -0.1244 -0.0589
 1221BOLB   GL129283  22.105  13.596  12.967 -0.0291  0.1349 -0.0132
 1221BOLB   GL229284  21.941  13.511  12.702 -0.1067  0.1861  0.1288
 1221BOLB   C1A29285  22.561  13.451  12.655  0.0712  0.1702  0.0699
 1221BOLB   C2A29286  22.895  13.312  12.376  0.1593 -0.0226 -0.2140
 1221BOLB   C3A29287  22.970  12.982  12.106 -0.4856  0.0232 -0.0771
 1221BOLB   C4A29288  23.131  12.610  11.890 -0.0757  0.0840  0.0284
 1221BOLB   C1B29289  21.928  13.478  12.231  0.0041  0.2533  0.3067
 1221BOLB   C2B29290  22.184  13.291  11.862  0.1856 -0.0326  0.1453
 1221BOLB   C3B29291  22.190  13.362  11.507 -0.2571  0.0366 -0.1182
 1221BOLB   C4B29292  22.227  13.364  11.107  0.0269 -0.5172 -0.0673
 1221BOLB   NC229293  23.784  11.873   9.911  0.1262 -0.0013  0.0176
 1221BOLB   PO229294  24.184  12.175   9.921  0.1063  0.1631  0.0359
 1221BOLB   GL329295  23.978  12.132  10.325 -0.3713  0.1715 -0.1383
 1221BOLB   GL429296  23.633  12.064  10.302  0.0390  0.3092 -0.2047
 1221BOLB   C1C29297  24.069  12.235  10.690 -0.1171  0.1738  0.0438
 1221BOLB   C2C29298  24.155  12.463  11.042 -0.1361 -0.1145 -0.3507
 1221BOLB   C3C29299  23.852  12.639  11.468 -0.0367  0.0402 -0.1206
 1221BOLB   C4C29300  23.496  12.495  11.699 -0.0932 -0.2355 -0.0106
 1221BOLB   C1D29301  23.389  12.199  10.630 -0.2057  0.0954 -0.1155
 1221BOLB   C2D29302  23.547  12.607  10.524  0.1802  0.1513 -0.1573
 1221BOLB   C3D29303  23.926  12.738  10.498 -0.0033  0.1408 -0.3527
 1221BOLB   C4D29304  24.260  13.017  10.732  0.0447  0.3066 -0.0933
 1222BOLB   NC129305  17.778   9.147  15.220 -0.2375  0.1695  0.2538
 1222BOLB   PO129306  17.669   8.710  15.231 -0.0200  0.0409 -0.0634
 1222BOLB   GL129307  17.847   8.330  15.029  0.0797  0.1056 -0.0724
 1222BOLB   GL229308  17.983   8.347  14.779 -0.1214 -0.4669  0.0809
 1222BOLB   C1A29309  18.003   7.886  14.916  0.0908  0.2076  0.0444
 1222BOLB   C2A29310  18.051   7.725  14.546  0.1813  0.0212 -0.1196
 1222BOLB   C3A29311  18.147   7.361  14.223  0.1359  0.1166  0.2288
 1222BOLB   C4A29312  18.268   7.069  13.979 -0.0048 -0.3058 -0.1087
 1222BOLB   C1B29313  18.359   8.298  14.631  0.2135 -0.0136 -0.2976
 1222BOLB   C2B29314  18.618   8.042  14.447  0.2873 -0.0094  0.0093
 1222BOLB   C3B29315  18.843   7.815  14.224  0.4270 -0.4029  0.0939
 1222BOLB   C4B29316  19.131   7.753  13.901 -0.1145  0.1527  0.0599
 1222BOLB   NC229317  18.828   5.477  12.807 -0.3229 -0.0596  0.3238
 1222BOLB   PO229318  19.021   5.631  12.365 -0.1334  0.2056 -0.1123
 1222BOLB   GL329319  19.006   6.067  12.556 -0.2844  0.2491 -0.2086
 1222BOLB   GL429320  18.931   6.066  12.145  0.2217  0.1589  0.4055
 1222BOLB   C1C29321  18.640   6.332  12.687  0.1706  0.0489  0.2165
 1222BOLB   C2C29322  18.452   6.575  12.897  0.0195 -0.5041  0.1140
 1222BOLB   C3C29323  18.272   6.653  13.326 -0.1133  0.0767  0.0932
 1222BOLB   C4C29324  18.140   6.792  13.702  0.3017  0.0696 -0.0606
 1222BOLB   C1D29325  18.684   6.483  12.223  0.2189 -0.1185 -0.0799
 1222BOLB   C2D29326  18.452   6.842  12.333  0.1817 -0.2470  0.1081
 1222BOLB   C3D29327  18.022   6.943  12.501 -0.1338  0.1801  0.1218
 1222BOLB   C4D29328  17.581   6.719  12.575 -0.4299 -0.1040 -0.0486
 1223BOLB   NC129329  14.672  10.740  11.425 -0.0391  0.3343 -0.0035
 1223BOLB   PO129330  14.699  10.300  11.525  0.1689  0.1529 -0.1931
 1223BOLB   GL129331  14.991  10.027  11.230  0.2107  0.4833 -0.0452
 1223BOLB   GL229332  15.222  10.172  10.941 -0.2230 -0.3047  0.2171
 1223BOLB   C1A29333  14.934   9.756  10.877 -0.1307  0.2356 -0.0143
 1223BOLB   C2A29334  14.773   9.768  10.533 -0.0743 -0.3485  0.0521
 1223BOLB   C3A29335  14.520   9.683  10.128  0.0463 -0.2718  0.1913
 1223BOLB   C4A29336  14.353   9.809   9.680  0.0642  0.3857 -0.0595
 1223BOLB   C1B29337  15.402  10.035  10.549  0.2215 -0.0424 -0.1213
 1223BOLB   C2B29338  15.399   9.865  10.134 -0.0149  0.1181 -0.0942
 1223BOLB   C3B29339  15.628   9.851   9.745 -0.2553 -0.1697  0.1108
 1223BOLB   C4B29340  15.600  10.032   9.360 -0.2439  0.2004 -0.1901
 1223BOLB   NC229341  14.048   9.869   7.563 -0.1753 -0.1682  0.0838
 1223BOLB   PO229342  14.358   9.567   7.735  0.4524  0.1837 -0.3141
 1223BOLB   GL329343  14.478  10.053   7.912  0.0683 -0.1441  0.1796
 1223BOLB   GL429344  14.725  10.349   7.931 -0.1013  0.0695 -0.0992
 1223BOLB   C1C29345  14.613   9.955   8.332  0.2079 -0.0319  0.0118
 1223BOLB   C2C29346  14.650   9.779   8.585  0.1001  0.0597 -0.0564
 1223BOLB   C3C29347  14.537   9.764   9.059  0.0917 -0.0391  0.1198
 1223BOLB   C4C29348  14.266   9.839   9.407 -0.2043 -0.0482 -0.1698
 1223BOLB   C1D29349  14.602  10.444   8.331  0.0923  0.1036 -0.1593
 1223BOLB   C2D29350  14.618  10.734   8.738  0.0545  0.1323  0.1315
 1223BOLB   C3D29351  14.736  10.693   9.242 -0.1599  0.2710 -0.0029
 1223BOLB   C4D29352  14.597  10.804   9.705 -0.4165 -0.0664 -0.0873
 1224BOLB   NC129353  16.859   8.932  13.336  0.2144  0.0090 -0.1350
 1224BOLB   PO129354  17.265   9.095  13.453  0.1482 -0.3176  0.1996
 1224BOLB   GL129355  17.332   8.772  13.157  0.2570 -0.0325 -0.1300
 1224BOLB   GL229356  17.697   8.703  13.130  0.0062  0.0291  0.3419
 1224BOLB   C1A29357  17.314   8.409  13.123 -0.3686  0.1116 -0.2174
 1224BOLB   C2A29358  17.479   8.152  12.835  0.2453 -0.0213 -0.0181
 1224BOLB   C3A29359  17.918   8.089  12.848  0.1467  0.1199 -0.0001
 1224BOLB   C4A29360  18.243   8.013  12.726  0.0056  0.0163 -0.1526
 1224BOLB   C1B29361  17.753   8.544  12.761  0.0902 -0.0946 -0.1628
 1224BOLB   C2B29362  17.946   8.313  12.378  0.0176  0.1300  0.1207
 1224BOLB   C3B29363  18.250   8.386  12.033 -0.1115 -0.1414 -0.2010
 1224BOLB   C4B29364  18.307   8.625  11.642  0.1805 -0.0333  0.3477
 1224BOLB   NC229365  18.615   7.702   9.912  0.0609  0.0928 -0.4433
 1224BOLB   PO229366  18.656   7.316  10.256 -0.4257  0.0850  0.0875
 1224BOLB   GL329367  18.717   7.461  10.585 -0.1531  0.3794  0.1152
 1224BOLB   GL429368  18.581   7.737  10.515 -0.0123 -0.1108  0.2351
 1224BOLB   C1C29369  18.875   7.578  10.976 -0.1867  0.0339  0.0986
 1224BOLB   C2C29370  18.631   7.932  11.271 -0.0044  0.1859  0.4893
 1224BOLB   C3C29371  18.644   8.068  11.800 -0.3372  0.1418  0.0907
 1224BOLB   C4C29372  18.392   7.947  12.206  0.0624 -0.1049  0.1230
 1224BOLB   C1D29373  18.359   8.137  10.569  0.0740  0.0908  0.1446
 1224BOLB   C2D29374  18.306   8.580  10.554 -0.1740 -0.0008  0.2907
 1224BOLB   C3D29375  17.945   8.942  10.653  0.4750 -0.1080 -0.1542
 1224BOLB   C4D29376  17.973   9.340  10.389  0.1138  0.5249 -0.2407
 1225BOLB   NC129377  16.771  19.538  10.433 -0.2282  0.2858 -0.2918
 1225BOLB   PO129378  16.697  19.931  10.514  0.1037  0.2700 -0.3851
 1225BOLB   GL129379  16.692  19.902  10.082 -0.0816 -0.0337 -0.0604
 1225BOLB   GL229380  16.513  20.130   9.972 -0.1144  0.1209  0.1039
 1225BOLB   C1A29381  16.832  19.859   9.682  0.4051  0.4198 -0.0361
 1225BOLB   C2A29382  17.005  19.962   9.261 -0.0791 -0.3654 -0.2430
 1225BOLB   C3A29383  17.171  20.095   8.811 -0.1798  0.0544  0.2339
 1225BOLB   C4A29384  17.297  19.932   8.422 -0.2220 -0.4984  0.0211
 1225BOLB   C1B29385  16.505  20.233   9.580 -0.2456 -0.1796  0.1447
 1225BOLB   C2B29386  16.498  20.386   9.238 -0.2893  0.1005  0.0417
 1225BOLB   C3B29387  16.197  20.303   8.962  0.3963 -0.1507 -0.0109
 1225BOLB   C4B29388  16.215  20.035   8.663 -0.1292 -0.1775 -0.0871
 1225BOLB   NC229389  18.713  20.387   6.828 -0.1809 -0.3018  0.0099
 1225BOLB   PO229390  18.849  20.685   6.940  0.2123  0.1460  0.0268
 1225BOLB   GL329391  18.756  20.654   7.288  0.0988  0.1682 -0.4068
 1225BOLB   GL429392  18.733  20.915   7.539 -0.2059 -0.0518  0.0655
 1225BOLB   C1C29393  18.471  20.329   7.441  0.2001  0.0057  0.0885
 1225BOLB   C2C29394  18.150  20.094   7.577 -0.1828 -0.2989  0.0039
 1225BOLB   C3C29395  17.859  20.030   7.876 -0.1019 -0.1875 -0.0904
 1225BOLB   C4C29396  17.560  19.899   8.151  0.0561 -0.0629 -0.2629
 1225BOLB   C1D29397  18.537  20.620   7.836 -0.0366  0.4811  0.2902
 1225BOLB   C2D29398  18.450  20.140   7.933 -0.2566  0.0818 -0.0887
 1225BOLB   C3D29399  18.359  19.823   8.164 -0.2515  0.2507  0.0225
 1225BOLB   C4D29400  18.361  19.737   8.676 -0.0634 -0.0556 -0.1771
 1226BOLB   NC129401  13.300  12.925  10.981 -0.2194  0.1837  0.1061
 1226BOLB   PO129402  13.127  13.011  10.509  0.1640 -0.3047 -0.2367
 1226BOLB   GL129403  12.793  12.822  10.309 -0.0456 -0.0071  0.1979
 1226BOLB   GL229404  12.616  12.558  10.293  0.0799 -0.0548 -0.0216
 1226BOLB   C1A29405  12.728  12.803   9.882  0.2522  0.0317 -0.0977
 1226BOLB   C2A29406  12.499  12.782   9.514  0.3757  0.2789 -0.1542
 1226BOLB   C3A29407  12.694  12.471   9.158  0.1106  0.5117 -0.0801
 1226BOLB   C4A29408  12.716  12.462   8.768 -0.0965 -0.4029  0.2347
 1226BOLB   C1B29409  12.637  12.385   9.927  0.0464  0.0547  0.0518
 1226BOLB   C2B29410  12.601  12.265   9.610 -0.1187 -0.1591  0.1036
 1226BOLB   C3B29411  12.389  12.080   9.237 -0.0628 -0.1046  0.0999
 1226BOLB   C4B29412  12.141  12.026   8.915 -0.1716 -0.0279  0.0263
 1226BOLB   NC229413  11.872  12.389   6.511  0.1623  0.0422  0.0253
 1226BOLB   PO229414  12.252  12.003   6.484  0.3119 -0.0462  0.0742
 1226BOLB   GL329415  12.444  12.247   6.752  0.1346 -0.2394 -0.0230
 1226BOLB   GL429416  12.656  12.157   6.945  0.2081 -0.1518 -0.1663
 1226BOLB   C1C29417  12.482  12.555   7.162  0.1807 -0.0121 -0.1432
 1226BOLB   C2C29418  12.822  12.589   7.550  0.1576 -0.1062  0.4058
 1226BOLB   C3C29419  12.836  12.731   7.932 -0.1392  0.1644  0.4377
 1226BOLB   C4C29420  12.719  12.511   8.339 -0.1555  0.0457  0.3298
 1226BOLB   C1D29421  12.489  12.064   7.336 -0.3966  0.0322 -0.1672
 1226BOLB   C2D29422  12.359  12.186   7.741  0.2995 -0.1109  0.0017
 1226BOLB   C3D29423  12.497  12.101   8.181 -0.0109  0.2538 -0.3787
 1226BOLB   C4D29424  12.928  11.937   8.184 -0.0672 -0.3922  0.0881
 1227BOLB   NC129425  20.415  20.981  11.818  0.2597  0.0698  0.4401
 1227BOLB   PO129426  20.924  20.988  11.853 -0.2829 -0.0254  0.2055
 1227BOLB   GL129427  20.715  21.384  11.611  0.2374  0.0148  0.1187
 1227BOLB   GL229428  20.906  21.645  11.680  0.2449 -0.1496 -0.5829
 1227BOLB   C1A29429  20.563  21.412  11.219 -0.2031  0.0945  0.3809
 1227BOLB   C2A29430  20.859  21.459  10.932 -0.0729 -0.3531  0.1485
 1227BOLB   C3A29431  20.950  21.893  10.647  0.1177  0.1083 -0.3639
 1227BOLB   C4A29432  20.885  21.957  10.191  0.1873  0.3639  0.2104
 1227BOLB   C1B29433  20.722  21.861  11.383 -0.1361  0.1616 -0.5198
 1227BOLB   C2B29434  20.599  22.068  11.054  0.5805 -0.2491 -0.1936
 1227BOLB   C3B29435  20.480  21.926  10.789  0.0845  0.0731 -0.0774
 1227BOLB   C4B29436  20.338  21.952  10.369  0.1436  0.2292 -0.0855
 1227BOLB   NC229437  20.558  23.761   8.380  0.0784  0.1486  0.0188
 1227BOLB   PO229438  20.619  23.424   8.651  0.2398 -0.0482 -0.0060
 1227BOLB   GL329439  20.522  23.207   9.033 -0.0111 -0.1747  0.1657
 1227BOLB   GL429440  20.259  23.026   9.045  0.2623 -0.1812  0.3084
 1227BOLB   C1C29441  20.655  23.095   9.464  0.1083 -0.0156  0.1673
 1227BOLB   C2C29442  20.959  22.748   9.525 -0.0921 -0.0104 -0.2472
 1227BOLB   C3C29443  20.935  22.462   9.744 -0.0758 -0.2685 -0.0919
 1227BOLB   C4C29444  20.689  22.204   9.965  0.0949  0.3226 -0.1758
 1227BOLB   C1D29445  19.790  23.045   9.263  0.1033 -0.5959  0.0709
 1227BOLB   C2D29446  19.656  23.075   9.794  0.0597  0.1704  0.1298
 1227BOLB   C3D29447  19.668  23.049  10.156 -0.0029 -0.1111  0.1329
 1227BOLB   C4D29448  19.866  22.919  10.514 -0.1317 -0.0631 -0.1528
 1228BOLB   NC129449  15.181  22.083  12.163  0.0072  0.0612  0.2850
 1228BOLB   PO129450  15.143  22.497  11.941 -0.3609 -0.1590 -0.1731
 1228BOLB   GL129451  15.067  22.794  11.691  0.3314  0.2692  0.2791
 1228BOLB   GL229452  14.867  23.047  11.669  0.0858  0.1375 -0.1310
 1228BOLB   C1A29453  15.230  22.896  11.321  0.1855  0.0636 -0.0847
 1228BOLB   C2A29454  15.518  23.041  11.020  0.2040 -0.0726 -0.0951
 1228BOLB   C3A29455  15.455  23.193  10.743  0.1231  0.1770  0.2934
 1228BOLB   C4A29456  15.366  23.328  10.375 -0.3776 -0.0885 -0.2529
 1228BOLB   C1B29457  15.040  23.361  11.352  0.2506 -0.1470 -0.1212
 1228BOLB   C2B29458  15.235  23.683  11.064  0.0408 -0.0428 -0.0473
 1228BOLB   C3B29459  15.209  24.150  10.925  0.4538  0.1246 -0.0498
 1228BOLB   C4B29460  15.130  24.496  10.797 -0.2018 -0.2971  0.6056
 1228BOLB   NC229461  14.945  24.163   7.997  0.4124 -0.0936  0.1732
 1228BOLB   PO229462  15.398  24.278   8.194  0.0154  0.2447 -0.0119
 1228BOLB   GL329463  15.412  24.246   8.600 -0.1579  0.0614  0.0113
 1228BOLB   GL429464  15.145  24.232   8.788 -0.0722  0.2882  0.0399
 1228BOLB   C1C29465  15.542  24.023   8.950 -0.0028  0.1605  0.0002
 1228BOLB   C2C29466  15.503  23.902   9.400  0.2111 -0.3412 -0.0084
 1228BOLB   C3C29467  15.295  23.654   9.669  0.1842  0.1073 -0.0608
 1228BOLB   C4C29468  15.263  23.649  10.061  0.5293  0.2014  0.0232
 1228BOLB   C1D29469  14.779  23.991   9.068 -0.0951 -0.0708  0.0045
 1228BOLB   C2D29470  14.444  23.886   9.118 -0.0761 -0.0111 -0.1581
 1228BOLB   C3D29471  14.054  23.645   9.302 -0.3650  0.0079  0.1943
 1228BOLB   C4D29472  13.975  23.171   9.090  0.0074 -0.2410 -0.1417
 1229BOLB   NC129473  14.547  17.430  10.235  0.0723 -0.0344 -0.0562
 1229BOLB   PO129474  14.244  17.632  10.075  0.1121  0.2087  0.0814
 1229BOLB   GL129475  14.424  17.818   9.598  0.1092  0.4520 -0.0768
 1229BOLB   GL229476  14.447  18.143   9.534 -0.0732  0.0698  0.0768
 1229BOLB   C1A29477  14.252  17.929   9.182 -0.1814  0.2412 -0.1863
 1229BOLB   C2A29478  14.261  18.041   8.858  0.2198  0.0282 -0.0117
 1229BOLB   C3A29479  14.006  18.062   8.473  0.0574  0.0745  0.1065
 1229BOLB   C4A29480  13.992  18.018   8.108  0.1289  0.0794  0.1185
 1229BOLB   C1B29481  14.560  18.304   9.175  0.0355 -0.2679 -0.1346
 1229BOLB   C2B29482  14.410  18.705   8.857  0.4541  0.0040  0.1212
 1229BOLB   C3B29483  14.134  19.023   9.052  0.0046  0.2274 -0.1806
 1229BOLB   C4B29484  13.956  19.433   9.022 -0.3941 -0.0815 -0.3549
 1229BOLB   NC229485  14.489  17.939   5.890  0.0146 -0.0577 -0.2888
 1229BOLB   PO229486  14.617  17.486   5.806 -0.3719 -0.0485 -0.2514
 1229BOLB   GL329487  14.503  17.463   6.206 -0.1193  0.0359  0.1062
 1229BOLB   GL429488  14.549  17.104   6.266 -0.1985 -0.0272 -0.0859
 1229BOLB   C1C29489  14.294  17.536   6.574 -0.2755  0.0636 -0.0646
 1229BOLB   C2C29490  14.117  17.704   6.966 -0.1219  0.0737  0.0350
 1229BOLB   C3C29491  14.098  17.945   7.307 -0.1313  0.1954 -0.1021
 1229BOLB   C4C29492  14.015  18.116   7.723 -0.0807 -0.1312  0.0842
 1229BOLB   C1D29493  14.728  16.933   6.670  0.0023 -0.0350  0.0572
 1229BOLB   C2D29494  15.126  17.015   7.001 -0.2066  0.0791 -0.2712
 1229BOLB   C3D29495  15.073  16.849   7.419 -0.0185 -0.0771  0.2242
 1229BOLB   C4D29496  14.960  16.879   7.899 -0.1606  0.0710 -0.2710
 1230BOLB   NC129497  11.620  21.267  11.250 -0.0172 -0.0531 -0.2172
 1230BOLB   PO129498  11.872  21.684  11.214  0.2934 -0.0536  0.0385
 1230BOLB   GL129499  11.535  21.614  10.836  0.0671  0.0383 -0.0658
 1230BOLB   GL229500  11.362  21.322  10.831 -0.1469  0.2206  0.4005
 1230BOLB   C1A29501  11.455  21.859  10.435 -0.1707 -0.1720  0.1096
 1230BOLB   C2A29502  11.348  21.912   9.960  0.0264  0.0427  0.0068
 1230BOLB   C3A29503  11.200  21.906   9.525 -0.0134 -0.0383 -0.0060
 1230BOLB   C4A29504  11.424  21.909   9.186 -0.0237  0.2490 -0.4277
 1230BOLB   C1B29505  11.032  21.196  10.508  0.3151  0.1057 -0.0395
 1230BOLB   C2B29506  11.003  20.955  10.121  0.0628 -0.0057 -0.2062
 1230BOLB   C3B29507  11.095  21.027   9.707  0.2169 -0.2240  0.0726
 1230BOLB   C4B29508  10.969  20.831   9.377  0.3299 -0.1555  0.1927
 1230BOLB   NC229509  12.421  22.962   7.566 -0.1588  0.0785 -0.2042
 1230BOLB   PO229510  11.914  22.985   7.498 -0.0305  0.2948  0.0130
 1230BOLB   GL329511  11.713  22.611   7.721  0.2059  0.1546  0.0645
 1230BOLB   GL429512  11.378  22.386   7.493 -0.0426 -0.2773  0.3850
 1230BOLB   C1C29513  11.885  22.191   7.716 -0.0815  0.1598 -0.2053
 1230BOLB   C2C29514  11.862  21.818   7.989  0.0767  0.0263  0.0838
 1230BOLB   C3C29515  11.983  21.739   8.482 -0.1904  0.1079  0.1734
 1230BOLB   C4C29516  11.750  21.770   8.934 -0.2603  0.2718  0.3025
 1230BOLB   C1D29517  11.427  22.070   7.831 -0.0259  0.1767 -0.1802
 1230BOLB   C2D29518  11.411  21.601   7.870  0.1313 -0.0684 -0.1726
 1230BOLB   C3D29519  11.523  21.195   8.022 -0.2270  0.1429  0.0862
 1230BOLB   C4D29520  11.851  20.858   7.914 -0.1199  0.2663  0.3382
 1231BOLB   NC129521  15.362  10.030  12.278 -0.1553 -0.0633 -0.0038
 1231BOLB   PO129522  15.233   9.632  12.469  0.0964  0.2883 -0.2025
 1231BOLB   GL129523  15.097   9.513  12.004  0.0928  0.1585  0.1401
 1231BOLB   GL229524  14.697   9.432  11.895 -0.1957 -0.1614  0.2301
 1231BOLB   C1A29525  15.224   9.246  11.638  0.0875  0.2659  0.1759
 1231BOLB   C2A29526  15.640   8.941  11.540 -0.1878 -0.2671  0.0042
 1231BOLB   C3A29527  15.860   8.572  11.543 -0.0921  0.3442 -0.1035
 1231BOLB   C4A29528  16.318   8.310  11.477  0.1489 -0.1845 -0.1478
 1231BOLB   C1B29529  14.449   9.373  11.598  0.1970  0.3657 -0.0817
 1231BOLB   C2B29530  14.254   9.258  11.198 -0.1530  0.0955  0.2613
 1231BOLB   C3B29531  14.100   9.187  10.749  0.2443  0.2082  0.0158
 1231BOLB   C4B29532  13.712   9.335  10.609  0.0093  0.2308 -0.1280
 1231BOLB   NC229533  15.952   6.395   9.766  0.1330 -0.0207 -0.0773
 1231BOLB   PO229534  16.062   6.329  10.122  0.1295 -0.1021 -0.0642
 1231BOLB   GL329535  16.082   6.520  10.487 -0.0154  0.0681 -0.0466
 1231BOLB   GL429536  16.144   6.299  10.858 -0.2163 -0.1643 -0.0312
 1231BOLB   C1C29537  16.112   6.794  10.832 -0.0800 -0.2364  0.1951
 1231BOLB   C2C29538  16.106   7.188  10.931  0.1022  0.0719  0.2452
 1231BOLB   C3C29539  16.106   7.626  11.172 -0.3469  0.2220 -0.0683
 1231BOLB   C4C29540  16.371   7.950  11.287  0.1949 -0.0110 -0.2855
 1231BOLB   C1D29541  15.939   6.465  11.222  0.2891  0.0309 -0.0374
 1231BOLB   C2D29542  15.722   6.632  11.603 -0.1015 -0.2271 -0.3517
 1231BOLB   C3D29543  15.384   6.639  11.886 -0.0403  0.1199  0.0518
 1231BOLB   C4D29544  15.360   6.515  12.333  0.0511  0.1999  0.1852
 1232BOLB   NC129545  16.377  11.458  11.893  0.0912  0.0742  0.2109
 1232BOLB   PO129546  16.724  11.150  11.842 -0.4219 -0.1019  0.1544
 1232BOLB   GL129547  16.813  10.902  11.484  0.3429 -0.0464  0.0456
 1232BOLB   GL229548  17.096  10.793  11.539  0.0888 -0.0227  0.0989
 1232BOLB   C1A29549  16.802  10.649  11.117  0.0239 -0.0838 -0.0494
 1232BOLB   C2A29550  16.909  10.517  10.753 -0.2011 -0.0102 -0.1407
 1232BOLB   C3A29551  16.859  10.416  10.353  0.0898 -0.0241  0.1815
 1232BOLB   C4A29552  17.005  10.303   9.923 -0.1059 -0.0884  0.4502
 1232BOLB   C1B29553  17.415  10.489  11.437 -0.0002 -0.2986 -0.2557
 1232BOLB   C2B29554  17.518  10.020  11.513  0.1886  0.1998 -0.5534
 1232BOLB   C3B29555  17.678   9.897  11.093  0.1435 -0.3811 -0.0064
 1232BOLB   C4B29556  18.075   9.798  11.134  0.1124  0.2023 -0.5104
 1232BOLB   NC229557  17.269   9.292   7.687 -0.1574  0.2523  0.0062
 1232BOLB   PO229558  17.376   9.786   7.784 -0.2592  0.2516 -0.1154
 1232BOLB   GL329559  17.377  10.039   8.177 -0.0967 -0.1192 -0.1883
 1232BOLB   GL429560  17.542   9.835   8.400  0.0306  0.2022 -0.2280
 1232BOLB   C1C29561  17.131  10.226   8.552  0.0676  0.2699 -0.1393
 1232BOLB   C2C29562  16.884   9.951   8.818 -0.2138  0.2279  0.0467
 1232BOLB   C3C29563  16.976   9.903   9.261  0.0222  0.2235 -0.1617
 1232BOLB   C4C29564  16.956  10.001   9.600 -0.4678 -0.1726 -0.1732
 1232BOLB   C1D29565  17.533   9.951   8.792  0.0911 -0.0058  0.1003
 1232BOLB   C2D29566  17.462  10.176   9.086 -0.0601 -0.1755 -0.0088
 1232BOLB   C3D29567  17.151  10.400   9.322  0.0942 -0.2014  0.1538
 1232BOLB   C4D29568  17.255  10.722   9.706  0.1799 -0.0912 -0.0967
 1233BOLB   NC129569  10.663  18.997  11.144 -0.0847 -0.2504 -0.2083
 1233BOLB   PO129570  10.676  19.174  10.866  0.1943  0.3405  0.1443
 1233BOLB   GL129571  10.539  19.399  10.564 -0.0707 -0.2574 -0.0518
 1233BOLB   GL229572  10.204  19.254  10.585  0.0881  0.0861 -0.1195
 1233BOLB   C1A29573  10.393  19.612  10.122 -0.3217 -0.1870 -0.0221
 1233BOLB   C2A29574  10.194  19.600   9.767  0.3950  0.0147 -0.0851
 1233BOLB   C3A29575   9.978  19.860   9.448  0.2332  0.0328  0.0802
 1233BOLB   C4A29576   9.602  19.792   9.233 -0.3502  0.2557  0.0014
 1233BOLB   C1B29577   9.982  19.378  10.162 -0.3135 -0.2477  0.2428
 1233BOLB   C2B29578   9.715  19.619   9.901 -0.1323 -0.1690  0.1703
 1233BOLB   C3B29579   9.581  19.837   9.691 -0.1349  0.0923  0.0521
 1233BOLB   C4B29580   9.201  20.086   9.574 -0.1457 -0.1437 -0.0897
 1233BOLB   NC229581   7.635  18.689   7.687  0.0998  0.0316 -0.1088
 1233BOLB   PO229582   7.898  18.810   7.932  0.2493  0.2865  0.1718
 1233BOLB   GL329583   8.277  18.940   8.001 -0.3740 -0.2558 -0.0485
 1233BOLB   GL429584   8.500  18.803   8.101 -0.1115 -0.0244 -0.2621
 1233BOLB   C1C29585   8.550  19.263   8.009  0.0184  0.1095 -0.1352
 1233BOLB   C2C29586   8.651  19.611   8.287  0.1380  0.1409 -0.0298
 1233BOLB   C3C29587   8.836  19.548   8.688  0.0284  0.0154  0.2076
 1233BOLB   C4C29588   9.153  19.697   9.111  0.1593 -0.4875 -0.5961
 1233BOLB   C1D29589   8.554  18.443   8.276 -0.0164  0.0673  0.1088
 1233BOLB   C2D29590   8.619  18.101   8.595 -0.0534 -0.0059 -0.0530
 1233BOLB   C3D29591   8.479  17.760   8.855 -0.4027  0.1918  0.1844
 1233BOLB   C4D29592   8.132  17.579   9.049 -0.0078 -0.1862  0.1387
 1234BOLB   NC129593   9.897  16.700  11.245  0.0346 -0.0274 -0.0921
 1234BOLB   PO129594  10.083  16.990  10.951  0.2389  0.0903 -0.0635
 1234BOLB   GL129595   9.786  17.067  10.660 -0.3889 -0.2481  0.2794
 1234BOLB   GL229596   9.725  17.379  10.510 -0.1546  0.0349  0.1858
 1234BOLB   C1A29597   9.327  17.109  10.628 -0.1342  0.0368 -0.2501
 1234BOLB   C2A29598   9.109  17.188  10.205 -0.3330 -0.1432 -0.2578
 1234BOLB   C3A29599   9.212  17.196   9.835 -0.2720 -0.2947  0.0885
 1234BOLB   C4A29600   9.115  17.066   9.362  0.0198 -0.2195  0.0543
 1234BOLB   C1B29601   9.389  17.670  10.315  0.3324  0.0217  0.1091
 1234BOLB   C2B29602   9.219  17.796   9.980 -0.0722 -0.3537 -0.1722
 1234BOLB   C3B29603   9.148  18.069   9.652  0.1033  0.0407 -0.0181
 1234BOLB   C4B29604   8.899  17.973   9.323 -0.3065 -0.1078 -0.3185
 1234BOLB   NC229605   8.147  17.306   7.202 -0.0083  0.0084 -0.3274
 1234BOLB   PO229606   7.881  17.424   7.514  0.2239 -0.0820  0.0936
 1234BOLB   GL329607   8.008  17.543   7.920  0.1125  0.2909 -0.0485
 1234BOLB   GL429608   7.787  17.579   8.165 -0.1003  0.1318  0.3054
 1234BOLB   C1C29609   8.178  17.360   8.139  0.0363 -0.0072  0.0837
 1234BOLB   C2C29610   8.493  17.042   8.297  0.2180 -0.2577  0.1476
 1234BOLB   C3C29611   8.737  16.915   8.614  0.2207  0.0756  0.0617
 1234BOLB   C4C29612   8.924  16.981   8.957 -0.4117  0.3775  0.1621
 1234BOLB   C1D29613   7.643  17.208   8.438  0.1542 -0.0363  0.0555
 1234BOLB   C2D29614   7.777  17.151   8.765 -0.1296 -0.3155  0.0394
 1234BOLB   C3D29615   8.078  17.066   9.129 -0.1953 -0.4802 -0.2170
 1234BOLB   C4D29616   8.238  16.983   9.530 -0.0700  0.0983 -0.1198
 1235BOLB   NC129617  21.006  23.244  13.356 -0.0946  0.0205  0.1498
 1235BOLB   PO129618  21.065  23.636  13.531 -0.1791  0.2604 -0.0028
 1235BOLB   GL129619  21.428  23.949  13.594 -0.0264  0.1527 -0.2235
 1235BOLB   GL229620  21.805  23.901  13.367 -0.0080  0.2301  0.0499
 1235BOLB   C1A29621  21.446  24.279  13.402  0.1649  0.2121 -0.3001
 1235BOLB   C2A29622  21.400  24.557  13.002  0.1966 -0.1469  0.1244
 1235BOLB   C3A29623  21.222  24.634  12.768 -0.3118 -0.1416  0.4066
 1235BOLB   C4A29624  20.914  24.919  12.574 -0.0033 -0.4880  0.2258
 1235BOLB   C1B29625  21.512  23.924  13.104  0.1275 -0.0362  0.3828
 1235BOLB   C2B29626  21.270  24.002  12.744 -0.3862 -0.0614 -0.1645
 1235BOLB   C3B29627  21.128  24.220  12.530 -0.2054  0.0376  0.0758
 1235BOLB   C4B29628  20.985  24.531  12.211 -0.0929 -0.3943  0.0701
 1235BOLB   NC229629  21.297  27.068  11.832  0.0887  0.0785  0.1026
 1235BOLB   PO229630  20.929  27.057  11.489 -0.0763  0.0681 -0.1482
 1235BOLB   GL329631  21.111  26.628  11.627 -0.3346  0.2906 -0.1099
 1235BOLB   GL429632  21.376  26.600  11.714  0.0944  0.1820 -0.0117
 1235BOLB   C1C29633  20.944  26.291  11.732 -0.1587 -0.0452 -0.0720
 1235BOLB   C2C29634  20.958  26.121  12.107 -0.2135  0.1701  0.4144
 1235BOLB   C3C29635  20.761  25.786  12.369  0.0066  0.0622 -0.0529
 1235BOLB   C4C29636  20.684  25.347  12.685  0.2519  0.3004  0.2619
 1235BOLB   C1D29637  21.278  26.503  12.146  0.2398  0.1234  0.1303
 1235BOLB   C2D29638  21.217  26.215  12.529 -0.2638  0.0408 -0.0070
 1235BOLB   C3D29639  21.112  25.601  12.688 -0.1591  0.1420 -0.2829
 1235BOLB   C4D29640  21.257  25.209  12.870  0.0256  0.1768 -0.1400
 1236BOLB   NC129641  10.943  18.189  11.280  0.0043 -0.0064  0.4377
 1236BOLB   PO129642  10.751  18.533  11.086  0.1005  0.1301  0.0690
 1236BOLB   GL129643  10.490  18.646  10.767 -0.0353  0.2136 -0.2836
 1236BOLB   GL229644  10.173  18.651  10.935  0.4381  0.0736 -0.0297
 1236BOLB   C1A29645  10.426  18.661  10.362  0.0687  0.0506 -0.2230
 1236BOLB   C2A29646  10.056  18.928  10.203  0.1593  0.0114 -0.0083
 1236BOLB   C3A29647   9.712  18.860   9.888  0.2723  0.2791 -0.1195
 1236BOLB   C4A29648   9.424  19.021   9.530 -0.0818  0.0296  0.3754
 1236BOLB   C1B29649   9.851  18.929  10.669  0.2735  0.2312 -0.1700
 1236BOLB   C2B29650   9.579  19.033  10.365  0.0188 -0.0643 -0.1143
 1236BOLB   C3B29651   9.369  19.283   9.987 -0.2068  0.1323 -0.3691
 1236BOLB   C4B29652   9.223  19.509   9.655  0.0357 -0.0389  0.0419
 1236BOLB   NC229653   9.300  19.589   7.075  0.0260 -0.0866 -0.0364
 1236BOLB   PO229654   9.065  19.518   7.391 -0.1169 -0.1208  0.1944
 1236BOLB   GL329655   9.219  19.671   7.783  0.0584 -0.2438  0.4889
 1236BOLB   GL429656   9.048  19.466   8.051 -0.0723 -0.1400  0.0373
 1236BOLB   C1C29657   9.513  19.672   8.048 -0.2373 -0.0361 -0.2407
 1236BOLB   C2C29658   9.729  19.706   8.368 -0.1463  0.1562  0.1234
 1236BOLB   C3C29659   9.621  19.508   8.797 -0.2603  0.1110 -0.1901
 1236BOLB   C4C29660   9.379  19.332   9.194  0.1165  0.2890 -0.0402
 1236BOLB   C1D29661   9.247  19.422   8.434 -0.1206 -0.0271  0.1179
 1236BOLB   C2D29662   9.126  19.160   8.796 -0.2048  0.0536 -0.3279
 1236BOLB   C3D29663   8.954  19.071   9.237 -0.0227 -0.0138 -0.0278
 1236BOLB   C4D29664   8.984  19.016   9.683  0.1229 -0.2951  0.0981
 1237BOLB   NC129665  17.079  22.467  12.198  0.0760  0.2046  0.0290
 1237BOLB   PO129666  17.335  22.761  12.423  0.0378 -0.1299  0.2196
 1237BOLB   GL129667  17.466  23.271  12.393  0.1773  0.0948 -0.1840
 1237BOLB   GL229668  17.212  23.508  12.310 -0.2026 -0.0816 -0.2058
 1237BOLB   C1A29669  17.710  23.557  12.140  0.0957  0.2976  0.3259
 1237BOLB   C2A29670  17.853  23.895  12.049  0.2211 -0.1076  0.2821
 1237BOLB   C3A29671  17.738  24.345  11.805  0.3630  0.2393 -0.3268
 1237BOLB   C4A29672  17.747  24.762  11.720  0.2954  0.1152 -0.1880
 1237BOLB   C1B29673  17.351  23.866  12.275  0.1692  0.0182  0.0117
 1237BOLB   C2B29674  17.356  23.913  11.914  0.1962  0.3268 -0.1590
 1237BOLB   C3B29675  17.175  24.291  11.732 -0.3229 -0.0292 -0.1739
 1237BOLB   C4B29676  17.164  24.539  11.462  0.1326 -0.0442  0.2163
 1237BOLB   NC229677  18.614  26.233  10.377  0.1336  0.1280  0.1757
 1237BOLB   PO229678  18.436  26.456  10.584 -0.2628  0.1569 -0.0715
 1237BOLB   GL329679  18.015  26.345  10.731  0.3361  0.3833 -0.0506
 1237BOLB   GL429680  17.729  26.272  10.576 -0.0617  0.3508 -0.2027
 1237BOLB   C1C29681  18.072  26.304  11.091  0.2199  0.2801 -0.0988
 1237BOLB   C2C29682  17.991  26.004  11.363  0.2104 -0.0310 -0.1513
 1237BOLB   C3C29683  17.868  25.697  11.660  0.0492 -0.1457  0.1040
 1237BOLB   C4C29684  17.679  25.283  11.675  0.1404  0.4790  0.1269
 1237BOLB   C1D29685  17.714  25.972  10.963 -0.0116  0.1014  0.0015
 1237BOLB   C2D29686  17.546  25.703  11.240  0.0125  0.1797  0.1072
 1237BOLB   C3D29687  17.302  25.666  11.579  0.3714 -0.1290 -0.0491
 1237BOLB   C4D29688  16.930  25.489  11.779  0.1738  0.2202  0.0767
 1238BOLB   NC129689  10.074  14.514  11.348  0.1398 -0.2124  0.0782
 1238BOLB   PO129690   9.610  14.264  11.228 -0.0161  0.1569 -0.1409
 1238BOLB   GL129691   9.579  14.252  10.761 -0.1113 -0.0777 -0.0814
 1238BOLB   GL229692   9.322  14.447  10.562 -0.1251 -0.2288  0.3044
 1238BOLB   C1A29693   9.814  14.199  10.381  0.0057  0.0401  0.0317
 1238BOLB   C2A29694   9.713  13.904  10.085  0.1614  0.1322  0.1252
 1238BOLB   C3A29695   9.418  13.621   9.807  0.0798  0.1124 -0.1010
 1238BOLB   C4A29696   9.303  13.654   9.429 -0.0046 -0.0467 -0.1193
 1238BOLB   C1B29697   9.337  14.289  10.135 -0.1301  0.0267 -0.2932
 1238BOLB   C2B29698   9.327  14.131   9.719 -0.1899 -0.1010 -0.0209
 1238BOLB   C3B29699   9.168  14.248   9.277  0.0731  0.2161  0.0759
 1238BOLB   C4B29700   8.856  14.317   8.934  0.0404 -0.4190  0.1339
 1238BOLB   NC229701   9.302  13.662   7.135  0.2274  0.1055  0.5314
 1238BOLB   PO229702   9.169  14.059   7.161 -0.1916 -0.0865 -0.1945
 1238BOLB   GL329703   9.102  13.956   7.570  0.0125  0.0018  0.1702
 1238BOLB   GL429704   8.959  13.695   7.544  0.1305 -0.0253  0.0531
 1238BOLB   C1C29705   9.001  14.083   7.946  0.0007  0.2667  0.0556
 1238BOLB   C2C29706   8.984  14.120   8.389  0.3743  0.3683 -0.0923
 1238BOLB   C3C29707   9.129  13.953   8.741 -0.1048 -0.0941 -0.1150
 1238BOLB   C4C29708   9.105  13.745   9.093  0.0034 -0.0418  0.2220
 1238BOLB   C1D29709   9.050  13.545   7.935 -0.2812  0.1894  0.0544
 1238BOLB   C2D29710   9.271  13.403   8.359 -0.1232  0.0052 -0.0890
 1238BOLB   C3D29711   9.407  13.245   8.724  0.2532  0.0159  0.0831
 1238BOLB   C4D29712   9.665  13.101   8.995 -0.1478 -0.2063 -0.0400
 1239BOLB   NC129713  15.550  22.450  12.183  0.0389 -0.1113  0.1717
 1239BOLB   PO129714  15.860  22.279  11.855  0.1616 -0.1292  0.0168
 1239BOLB   GL129715  15.935  22.250  11.479 -0.1302 -0.0934 -0.0355
 1239BOLB   GL229716  16.139  22.552  11.426  0.3006  0.2317  0.1929
 1239BOLB   C1A29717  15.740  22.436  11.090 -0.1568  0.0418  0.0981
 1239BOLB   C2A29718  15.637  22.721  10.679  0.0705  0.2759  0.0569
 1239BOLB   C3A29719  15.349  22.761  10.396  0.0867  0.3544  0.1606
 1239BOLB   C4A29720  15.189  22.862  10.063 -0.0258 -0.2430 -0.1205
 1239BOLB   C1B29721  15.992  23.002  11.164 -0.0412  0.1610  0.1190
 1239BOLB   C2B29722  16.010  23.243  10.743  0.0319  0.0618  0.0119
 1239BOLB   C3B29723  16.189  23.555  10.589  0.0925 -0.2814  0.1852
 1239BOLB   C4B29724  16.215  23.721  10.110  0.2040  0.4172 -0.0319
 1239BOLB   NC229725  14.840  23.373   7.530  0.0497  0.1528  0.0669
 1239BOLB   PO229726  14.853  23.622   7.843 -0.0608  0.1393 -0.2464
 1239BOLB   GL329727  14.721  23.407   8.205  0.1967 -0.0331  0.1037
 1239BOLB   GL429728  14.493  23.185   8.198 -0.1555 -0.1225  0.0993
 1239BOLB   C1C29729  14.947  23.098   8.432  0.0681 -0.1148 -0.3299
 1239BOLB   C2C29730  15.017  23.128   8.906 -0.0725  0.0154  0.0008
 1239BOLB   C3C29731  15.278  22.971   9.184  0.0460  0.1307 -0.0207
 1239BOLB   C4C29732  15.262  22.820   9.546  0.1249 -0.2550  0.1493
 1239BOLB   C1D29733  14.109  22.941   8.195 -0.3141 -0.1263 -0.0059
 1239BOLB   C2D29734  14.094  22.659   8.547  0.0131  0.2464 -0.0387
 1239BOLB   C3D29735  14.259  22.697   8.933 -0.2958  0.1145 -0.0892
 1239BOLB   C4D29736  14.595  22.371   9.081  0.1132 -0.1053  0.3935
 1240BOLB   NC129737  20.169  19.639  11.073  0.3605  0.1466 -0.1203
 1240BOLB   PO129738  20.244  19.972  11.216  0.2929 -0.0519  0.1551
 1240BOLB   GL129739  20.597  20.032  10.873  0.1019 -0.0183  0.0173
 1240BOLB   GL229740  20.919  19.985  10.914  0.1141 -0.2657  0.1284
 1240BOLB   C1A29741  20.657  20.103  10.440 -0.2442  0.3397 -0.0416
 1240BOLB   C2A29742  20.915  20.137  10.078 -0.2868  0.1035 -0.3240
 1240BOLB   C3A29743  21.375  20.209   9.929  0.2104 -0.2505  0.0297
 1240BOLB   C4A29744  21.552  20.437   9.643 -0.1229 -0.0004 -0.1492
 1240BOLB   C1B29745  21.138  20.286  10.522  0.1761  0.1110  0.1664
 1240BOLB   C2B29746  21.266  20.572  10.191 -0.0401  0.1633  0.0234
 1240BOLB   C3B29747  21.167  20.757   9.925  0.2421  0.0299 -0.1413
 1240BOLB   C4B29748  21.183  21.203   9.678 -0.1116  0.2359 -0.2048
 1240BOLB   NC229749  22.589  22.023   7.954 -0.0655  0.0072  0.0416
 1240BOLB   PO229750  22.220  21.949   8.118 -0.1774 -0.0825  0.4017
 1240BOLB   GL329751  22.353  21.568   8.367  0.1115 -0.2586  0.0265
 1240BOLB   GL429752  22.081  21.442   8.342 -0.1622 -0.0708 -0.1916
 1240BOLB   C1C29753  22.466  21.219   8.655 -0.0348 -0.0055 -0.2767
 1240BOLB   C2C29754  22.334  20.831   8.868 -0.0174 -0.0488  0.1064
 1240BOLB   C3C29755  22.267  20.685   9.258 -0.1851  0.2721  0.2441
 1240BOLB   C4C29756  21.938  20.518   9.575 -0.0482  0.3490  0.1171
 1240BOLB   C1D29757  21.718  21.422   8.509  0.2323 -0.0505  0.1912
 1240BOLB   C2D29758  21.496  21.100   8.640 -0.0356 -0.2405 -0.0660
 1240BOLB   C3D29759  21.032  21.026   8.846  0.0907  0.0566  0.0953
 1240BOLB   C4D29760  20.668  20.861   8.805 -0.1527  0.2471  0.0820
 1241BOLB   NC129761  16.536  22.623  12.731 -0.2234  0.0772  0.0565
 1241BOLB   PO129762  16.856  22.825  12.483  0.0297  0.2148  0.0679
 1241BOLB   GL129763  16.843  23.210  12.288  0.1344  0.0640 -0.0512
 1241BOLB   GL229764  16.680  23.500  12.383 -0.0609 -0.0184  0.0479
 1241BOLB   C1A29765  16.934  23.301  11.888 -0.0238 -0.2176 -0.0895
 1241BOLB   C2A29766  16.998  23.672  11.597  0.2230  0.2460 -0.2961
 1241BOLB   C3A29767  17.085  23.709  11.164  0.0211  0.0581 -0.3774
 1241BOLB   C4A29768  17.122  23.962  10.890  0.0652 -0.0172 -0.0735
 1241BOLB   C1B29769  16.872  23.778  12.097  0.0020 -0.1483 -0.1623
 1241BOLB   C2B29770  16.757  24.064  11.819  0.2067 -0.2683  0.3724
 1241BOLB   C3B29771  16.865  24.089  11.365  0.1475 -0.3508 -0.1272
 1241BOLB   C4B29772  16.924  24.375  11.098 -0.1232 -0.1277 -0.1832
 1241BOLB   NC229773  17.127  25.138   8.433  0.2170  0.1353  0.4060
 1241BOLB   PO229774  17.251  25.070   8.992 -0.3076  0.3896 -0.0609
 1241BOLB   GL329775  17.043  24.644   9.179 -0.2098  0.0284  0.0132
 1241BOLB   GL429776  16.646  24.502   9.116  0.0480 -0.2534 -0.3411
 1241BOLB   C1C29777  17.045  24.182   9.280  0.0154  0.1279  0.2863
 1241BOLB   C2C29778  17.026  23.790   9.546 -0.0332  0.1066 -0.1308
 1241BOLB   C3C29779  17.096  23.560   9.935 -0.1699 -0.3324  0.3270
 1241BOLB   C4C29780  17.048  23.816  10.396  0.3844  0.0708  0.1405
 1241BOLB   C1D29781  16.365  24.435   9.480  0.0136 -0.0378  0.1399
 1241BOLB   C2D29782  16.322  24.226   9.847  0.3775 -0.2242  0.0771
 1241BOLB   C3D29783  16.385  24.228  10.236  0.0050  0.2042  0.0951
 1241BOLB   C4D29784  16.616  24.118  10.559 -0.2549  0.0362 -0.2160
 1242BOLB   NC129785  13.835  14.613  10.268 -0.1092  0.2302  0.1378
 1242BOLB   PO129786  13.366  14.630  10.227  0.1610  0.1855 -0.0631
 1242BOLB   GL129787  13.271  14.558   9.765 -0.1949  0.1658  0.0438
 1242BOLB   GL229788  13.060  14.431   9.697  0.2497  0.1177  0.1129
 1242BOLB   C1A29789  13.215  14.564   9.266  0.0138  0.2610  0.0304
 1242BOLB   C2A29790  13.015  14.727   9.001  0.2185  0.1875 -0.1299
 1242BOLB   C3A29791  12.950  14.581   8.538  0.0912 -0.1851  0.0673
 1242BOLB   C4A29792  13.172  14.403   8.084  0.1038 -0.0731 -0.4176
 1242BOLB   C1B29793  12.820  14.700   9.460  0.2557 -0.2475  0.1308
 1242BOLB   C2B29794  12.621  14.987   9.091 -0.1033 -0.1407  0.0909
 1242BOLB   C3B29795  12.262  15.005   8.802 -0.3155 -0.0756 -0.1007
 1242BOLB   C4B29796  11.821  15.090   8.534 -0.0080 -0.1439 -0.1252
 1242BOLB   NC229797  14.211  14.407   6.070 -0.2511  0.2444 -0.2692
 1242BOLB   PO229798  13.771  14.580   5.978  0.3340  0.1592  0.0672
 1242BOLB   GL329799  13.809  14.489   6.375 -0.1537 -0.1823  0.0422
 1242BOLB   GL429800  14.090  14.650   6.510 -0.2935 -0.0077  0.3956
 1242BOLB   C1C29801  13.780  14.489   6.820  0.0057  0.1813 -0.3752
 1242BOLB   C2C29802  13.769  14.422   7.215  0.0014  0.0261  0.0700
 1242BOLB   C3C29803  13.398  14.499   7.337 -0.4189  0.1757  0.2429
 1242BOLB   C4C29804  13.299  14.410   7.662 -0.0060 -0.0870 -0.3355
 1242BOLB   C1D29805  14.385  14.943   6.837 -0.2275  0.0956  0.1661
 1242BOLB   C2D29806  14.267  15.195   7.194 -0.0366  0.0939  0.1059
 1242BOLB   C3D29807  14.431  15.578   7.341 -0.0625  0.4186  0.2121
 1242BOLB   C4D29808  14.480  16.015   7.272  0.0356 -0.0980 -0.1159
 1243BOLB   NC129809  10.217  11.449  11.276  0.0267 -0.0201  0.1812
 1243BOLB   PO129810  10.530  11.694  11.088  0.0596  0.0082 -0.1768
 1243BOLB   GL129811  10.943  11.670  10.841 -0.0490  0.2254  0.2681
 1243BOLB   GL229812  11.325  11.770  10.966 -0.1608  0.2841 -0.0315
 1243BOLB   C1A29813  11.146  11.678  10.512 -0.2425  0.3748  0.3885
 1243BOLB   C2A29814  11.537  11.674  10.254 -0.1252 -0.0339 -0.2053
 1243BOLB   C3A29815  11.826  11.553   9.944 -0.1866  0.1220  0.0045
 1243BOLB   C4A29816  11.918  11.417   9.579  0.1169  0.1268  0.1737
 1243BOLB   C1B29817  11.588  11.418  10.731  0.2262  0.3039  0.0112
 1243BOLB   C2B29818  11.912  11.343  10.395 -0.1036 -0.2070 -0.1654
 1243BOLB   C3B29819  11.921  11.077  10.033 -0.0272  0.0562  0.1686
 1243BOLB   C4B29820  11.811  10.919   9.581 -0.1837 -0.2587 -0.2761
 1243BOLB   NC229821  11.794  10.593   6.921  0.1498  0.1197  0.3311
 1243BOLB   PO229822  11.729  10.993   7.166 -0.1511  0.0815  0.0626
 1243BOLB   GL329823  11.927  10.962   7.509  0.1094  0.2129  0.0630
 1243BOLB   GL429824  12.271  10.988   7.520 -0.1690 -0.0723 -0.2515
 1243BOLB   C1C29825  11.950  11.205   7.905 -0.0998  0.2792 -0.1106
 1243BOLB   C2C29826  11.877  11.218   8.251 -0.2355  0.3470 -0.0282
 1243BOLB   C3C29827  11.814  11.263   8.714 -0.0358 -0.1058 -0.0148
 1243BOLB   C4C29828  11.832  11.456   9.100  0.1762  0.0758  0.4322
 1243BOLB   C1D29829  12.446  10.939   7.865  0.1221  0.3967  0.1019
 1243BOLB   C2D29830  12.618  10.741   8.263  0.2990  0.1315 -0.1775
 1243BOLB   C3D29831  12.880  10.587   8.676 -0.1825  0.2199 -0.1234
 1243BOLB   C4D29832  13.055  10.397   9.049 -0.2009 -0.0407  0.0088
 1244BOLB   NC129833  10.603   8.903  12.507 -0.0609  0.1312 -0.2884
 1244BOLB   PO129834  10.175   8.461  12.450 -0.1287  0.2129  0.1704
 1244BOLB   GL129835  10.242   8.534  12.038  0.1251 -0.0386  0.1971
 1244BOLB   GL229836  10.129   8.827  11.869  0.0426 -0.2725 -0.1781
 1244BOLB   C1A29837  10.074   8.407  11.570 -0.0880 -0.0872 -0.2738
 1244BOLB   C2A29838  10.121   8.226  11.196 -0.1749 -0.1733 -0.5956
 1244BOLB   C3A29839  10.225   8.274  10.773  0.0945 -0.0225 -0.3134
 1244BOLB   C4A29840  10.379   8.274  10.315 -0.2007 -0.1836 -0.3272
 1244BOLB   C1B29841  10.296   8.807  11.428  0.2700 -0.0253  0.2642
 1244BOLB   C2B29842  10.313   8.673  11.071 -0.2598 -0.1352 -0.1282
 1244BOLB   C3B29843  10.376   8.715  10.633  0.1748  0.3547  0.3818
 1244BOLB   C4B29844  10.244   8.974  10.363  0.0761  0.0771 -0.3040
 1244BOLB   NC229845  10.449   8.194   7.677  0.0509  0.1338 -0.0647
 1244BOLB   PO229846  10.252   8.115   8.072 -0.1327 -0.0160 -0.0893
 1244BOLB   GL329847  10.448   8.315   8.412  0.0564 -0.3353  0.0009
 1244BOLB   GL429848  10.585   8.535   8.154  0.0715  0.3861  0.1091
 1244BOLB   C1C29849  10.469   8.449   8.905 -0.0452  0.0450 -0.0495
 1244BOLB   C2C29850  10.672   8.400   9.273 -0.1750 -0.2774  0.3644
 1244BOLB   C3C29851  10.536   8.385   9.682  0.1405  0.0365  0.1677
 1244BOLB   C4C29852  10.616   8.263   9.981  0.1061  0.0273 -0.4587
 1244BOLB   C1D29853  10.423   8.783   8.519  0.0593 -0.0843 -0.2301
 1244BOLB   C2D29854  10.187   8.949   8.811  0.1938  0.0305  0.0249
 1244BOLB   C3D29855   9.977   8.892   9.181  0.1864 -0.0608 -0.0456
 1244BOLB   C4D29856   9.877   9.058   9.565  0.1315 -0.0462 -0.0222
 1245BOLB   NC129857  21.256  19.973  11.342  0.0484  0.0931  0.3053
 1245BOLB   PO129858  21.544  20.030  11.740  0.0675 -0.4879 -0.0689
 1245BOLB   GL129859  21.890  20.253  11.447  0.1268  0.2256  0.1138
 1245BOLB   GL229860  21.869  20.071  11.206 -0.1069 -0.0021 -0.2995
 1245BOLB   C1A29861  21.822  20.692  11.041 -0.2590 -0.1042 -0.1173
 1245BOLB   C2A29862  21.798  21.069  10.851 -0.0771  0.3432 -0.3129
 1245BOLB   C3A29863  21.724  21.205  10.507  0.1172 -0.0061  0.1291
 1245BOLB   C4A29864  21.636  21.422  10.137  0.0510 -0.1413 -0.1127
 1245BOLB   C1B29865  22.309  20.163  11.133 -0.3708 -0.1167  0.1533
 1245BOLB   C2B29866  22.608  19.944  10.860  0.1197  0.3207 -0.1060
 1245BOLB   C3B29867  22.646  19.430  10.785  0.0511 -0.0565  0.3182
 1245BOLB   C4B29868  22.293  19.084  10.840 -0.0037  0.3400  0.1374
 1245BOLB   NC229869  22.152  23.336   8.523  0.0959  0.2126  0.2330
 1245BOLB   PO229870  22.149  22.854   8.536  0.0696 -0.0040 -0.0010
 1245BOLB   GL329871  22.074  22.558   8.868 -0.4232 -0.0698  0.0344
 1245BOLB   GL429872  22.313  22.711   8.993 -0.0085  0.0938 -0.2083
 1245BOLB   C1C29873  21.955  22.442   9.326  0.0050  0.0256 -0.0334
 1245BOLB   C2C29874  21.755  22.129   9.568  0.0145  0.2426  0.1981
 1245BOLB   C3C29875  21.625  21.798   9.610  0.0388  0.2395  0.0459
 1245BOLB   C4C29876  21.591  21.459   9.784 -0.2947  0.1435  0.1204
 1245BOLB   C1D29877  22.500  22.463   9.300 -0.1619 -0.2721 -0.0295
 1245BOLB   C2D29878  22.519  22.445   9.751  0.1833  0.2166 -0.2918
 1245BOLB   C3D29879  22.489  22.218  10.081  0.3240  0.0391  0.1296
 1245BOLB   C4D29880  22.593  21.904  10.373 -0.0424  0.2089  0.4639
 1246BOLB   NC129881  12.859  11.278  11.532 -0.1559  0.1925  0.1122
 1246BOLB   PO129882  12.454  11.247  11.457 -0.0690 -0.0382 -0.0387
 1246BOLB   GL129883  12.444  11.095  11.061  0.1330 -0.2775  0.2524
 1246BOLB   GL229884  12.715  11.144  10.983  0.0562 -0.1686  0.1566
 1246BOLB   C1A29885  12.282  10.994  10.621  0.2624  0.2585  0.2120
 1246BOLB   C2A29886  12.364  10.950  10.224 -0.2245 -0.1792 -0.0961
 1246BOLB   C3A29887  12.221  10.724   9.870 -0.1112  0.2769  0.1020
 1246BOLB   C4A29888  12.000  10.453   9.550 -0.0115  0.1510  0.0192
 1246BOLB   C1B29889  12.735  11.102  10.483 -0.0177  0.2346  0.0010
 1246BOLB   C2B29890  12.797  11.297  10.095  0.1453  0.1315  0.0222
 1246BOLB   C3B29891  12.740  11.273   9.563 -0.1995  0.3174 -0.3053
 1246BOLB   C4B29892  12.822  11.406   9.141 -0.0505  0.3466  0.1029
 1246BOLB   NC229893  10.671   9.541   7.332 -0.3019  0.1033  0.0534
 1246BOLB   PO229894  11.026   9.458   7.561  0.0909  0.0877  0.2792
 1246BOLB   GL329895  11.005   9.796   7.933  0.0607 -0.2762 -0.0803
 1246BOLB   GL429896  11.091   9.474   8.143 -0.2780 -0.1317  0.2207
 1246BOLB   C1C29897  11.091   9.949   8.331 -0.3166 -0.0774  0.2538
 1246BOLB   C2C29898  11.189  10.123   8.760 -0.0476  0.1361  0.0235
 1246BOLB   C3C29899  11.552  10.405   8.875 -0.0263 -0.1320  0.4135
 1246BOLB   C4C29900  11.625  10.488   9.297 -0.2005  0.1061  0.0455
 1246BOLB   C1D29901  10.778   9.535   8.424  0.1082 -0.1058 -0.2148
 1246BOLB   C2D29902  10.862   9.775   8.769 -0.1569  0.2604 -0.3709
 1246BOLB   C3D29903  10.727  10.157   8.926 -0.1806 -0.3689  0.1308
 1246BOLB   C4D29904  10.666  10.330   9.272 -0.1329 -0.0097  0.2793
 1247BOLB   NC129905  16.654   9.818  13.160 -0.1039  0.2084 -0.2522
 1247BOLB   PO129906  16.350   9.564  13.079 -0.1591  0.0931  0.1167
 1247BOLB   GL129907  16.505   9.218  12.915 -0.0728 -0.1007  0.1797
 1247BOLB   GL229908  16.763   9.409  12.760  0.0193 -0.2307  0.2627
 1247BOLB   C1A29909  16.625   8.777  12.752  0.0630 -0.3429 -0.3299
 1247BOLB   C2A29910  16.934   8.603  12.547  0.1080 -0.1171  0.2657
 1247BOLB   C3A29911  17.253   8.393  12.443  0.0572  0.0799  0.3416
 1247BOLB   C4A29912  17.520   8.061  12.283  0.4401  0.1807  0.0229
 1247BOLB   C1B29913  16.873   9.107  12.356  0.3111 -0.0889  0.1626
 1247BOLB   C2B29914  17.167   8.878  12.100  0.2593  0.2249 -0.0202
 1247BOLB   C3B29915  17.268   8.483  11.920  0.2810 -0.1657  0.0042
 1247BOLB   C4B29916  17.459   8.191  11.801  0.2388  0.5817  0.2906
 1247BOLB   NC229917  19.193   6.674  11.297  0.0633 -0.0870  0.0969
 1247BOLB   PO229918  18.879   6.373  11.257  0.0032 -0.2245  0.0562
 1247BOLB   GL329919  18.869   6.573  11.680  0.0318 -0.0835 -0.0306
 1247BOLB   GL429920  18.491   6.618  11.715  0.2433 -0.1514 -0.0697
 1247BOLB   C1C29921  18.739   7.015  11.910  0.0705  0.0077  0.1210
 1247BOLB   C2C29922  18.541   7.305  12.171 -0.0199 -0.0539  0.1823
 1247BOLB   C3C29923  18.178   7.449  12.341  0.0270  0.3599 -0.2403
 1247BOLB   C4C29924  17.866   7.807  12.393 -0.1624 -0.0977  0.0518
 1247BOLB   C1D29925  18.212   6.973  11.887  0.1016  0.2520  0.1957
 1247BOLB   C2D29926  17.905   7.196  11.907  0.0865  0.1620 -0.0467
 1247BOLB   C3D29927  17.557   7.564  12.024 -0.1598 -0.0105  0.0674
 1247BOLB   C4D29928  17.281   7.605  12.429 -0.0923 -0.1852  0.4234
 1248BOLB   NC129929  13.938  18.828   9.822  0.2705 -0.0779 -0.0808
 1248BOLB   PO129930  13.832  18.455   9.662 -0.2481 -0.3055  0.1341
 1248BOLB   GL129931  13.515  18.400   9.328  0.1974  0.2657 -0.3512
 1248BOLB   GL229932  13.176  18.473   9.509 -0.1137  0.0108 -0.1506
 1248BOLB   C1A29933  13.406  18.649   9.011 -0.1157  0.0007  0.0749
 1248BOLB   C2A29934  13.602  19.023   8.652 -0.0874 -0.1248  0.0535
 1248BOLB   C3A29935  13.780  19.156   8.328 -0.2195  0.0963 -0.0670
 1248BOLB   C4A29936  14.086  19.490   8.409  0.2126  0.1539 -0.2397
 1248BOLB   C1B29937  12.882  18.507   9.140  0.0041  0.1640  0.1472
 1248BOLB   C2B29938  12.916  18.551   8.812 -0.1838 -0.3429  0.3188
 1248BOLB   C3B29939  12.856  18.370   8.405  0.0810  0.0238 -0.0696
 1248BOLB   C4B29940  12.695  18.673   8.174 -0.4643  0.1695  0.0203
 1248BOLB   NC229941  13.496  21.563   6.601  0.1241 -0.2239 -0.1841
 1248BOLB   PO229942  13.853  21.330   6.626  0.2754 -0.0229  0.0227
 1248BOLB   GL329943  13.851  20.992   6.882  0.4589  0.1603 -0.1425
 1248BOLB   GL429944  14.173  20.851   7.018 -0.0251  0.0733  0.0644
 1248BOLB   C1C29945  13.718  20.655   7.134 -0.1737  0.0646 -0.0933
 1248BOLB   C2C29946  13.908  20.387   7.587  0.0612 -0.3391  0.1140
 1248BOLB   C3C29947  14.076  20.155   7.859  0.3875 -0.0937  0.1979
 1248BOLB   C4C29948  14.152  19.755   8.062 -0.3036  0.2359  0.1257
 1248BOLB   C1D29949  14.197  20.777   7.481  0.4267 -0.2234 -0.2007
 1248BOLB   C2D29950  14.069  20.764   7.873 -0.1749 -0.3019  0.0680
 1248BOLB   C3D29951  13.888  20.935   8.263 -0.3144 -0.0153  0.2773
 1248BOLB   C4D29952  13.476  21.050   8.545  0.1965 -0.0533  0.1459
 1249BOLB   NC129953  10.169  15.771  10.800  0.2346 -0.1364 -0.0852
 1249BOLB   PO129954  10.476  16.153  10.929  0.0472 -0.1391 -0.1237
 1249BOLB   GL129955  10.062  16.410  10.831  0.3426  0.1797  0.0652
 1249BOLB   GL229956  10.034  16.620  10.659  0.2284  0.1629 -0.0302
 1249BOLB   C1A29957   9.812  16.220  10.523  0.0492 -0.0983 -0.1496
 1249BOLB   C2A29958   9.714  16.315  10.219  0.0402 -0.1347 -0.1494
 1249BOLB   C3A29959   9.733  16.423   9.816 -0.2134  0.1783  0.3970
 1249BOLB   C4A29960   9.715  16.603   9.360 -0.0922 -0.1599  0.1475
 1249BOLB   C1B29961   9.530  16.667  10.543  0.0357  0.0729  0.2459
 1249BOLB   C2B29962   9.227  16.561  10.205 -0.2507 -0.0538 -0.0487
 1249BOLB   C3B29963   8.887  16.803   9.969 -0.1237 -0.3040  0.0183
 1249BOLB   C4B29964   8.681  17.127   9.821 -0.0633  0.1139 -0.0432
 1249BOLB   NC229965   8.999  17.280   6.886 -0.1122  0.0967  0.5176
 1249BOLB   PO229966   9.302  17.382   7.260 -0.6318  0.2106  0.2033
 1249BOLB   GL329967   9.205  17.544   7.673 -0.1170 -0.1571 -0.0339
 1249BOLB   GL429968   9.272  17.911   7.609 -0.2280  0.0766  0.1438
 1249BOLB   C1C29969   9.393  17.782   8.147 -0.1423  0.1826 -0.3470
 1249BOLB   C2C29970   9.798  17.750   8.336  0.2899 -0.0695 -0.2034
 1249BOLB   C3C29971   9.855  17.306   8.663  0.2610 -0.0142  0.2860
 1249BOLB   C4C29972   9.754  16.996   9.061  0.1310 -0.0058  0.0907
 1249BOLB   C1D29973   9.530  18.186   7.943  0.0787  0.1669 -0.0422
 1249BOLB   C2D29974   9.522  18.150   8.399 -0.0146  0.0285  0.2210
 1249BOLB   C3D29975   9.249  18.272   8.685  0.2518 -0.0723 -0.0445
 1249BOLB   C4D29976   8.886  18.439   8.878 -0.0090  0.1103 -0.1888
 1250BOLB   NC129977  12.016  13.202  10.516  0.0558 -0.0900  0.4652
 1250BOLB   PO129978  12.382  12.997  10.494  0.5395 -0.0396  0.1412
 1250BOLB   GL129979  12.292  12.849  10.119  0.2278 -0.2671  0.2151
 1250BOLB   GL229980  12.124  12.457  10.123 -0.0252  0.3716  0.4146
 1250BOLB   C1A29981  11.926  12.922   9.831 -0.1372 -0.4208  0.0695
 1250BOLB   C2A29982  11.568  12.887   9.608  0.1100 -0.1788  0.1108
 1250BOLB   C3A29983  11.596  12.764   9.163  0.1692 -0.4775 -0.0087
 1250BOLB   C4A29984  11.807  12.709   8.743 -0.0961  0.0095  0.2894
 1250BOLB   C1B29985  12.090  12.454   9.746 -0.0347 -0.1853 -0.0070
 1250BOLB   C2B29986  11.778  12.378   9.424  0.3277  0.2853  0.1225
 1250BOLB   C3B29987  11.649  12.263   8.911 -0.0768  0.1778  0.0408
 1250BOLB   C4B29988  11.763  11.795   8.704 -0.0902  0.3432  0.0444
 1250BOLB   NC229989  11.369  11.281   7.162 -0.2906  0.2282 -0.0153
 1250BOLB   PO229990  11.389  11.499   6.693  0.0211  0.1375 -0.4975
 1250BOLB   GL329991  11.553  11.855   7.011  0.2357 -0.1319 -0.1886
 1250BOLB   GL429992  11.330  11.946   7.148 -0.1231 -0.0271 -0.0683
 1250BOLB   C1C29993  11.952  12.120   7.206  0.3285  0.1749 -0.1029
 1250BOLB   C2C29994  11.936  12.409   7.512  0.1746 -0.1533 -0.0740
 1250BOLB   C3C29995  11.850  12.558   7.852 -0.0252 -0.2960  0.1600
 1250BOLB   C4C29996  11.801  12.845   8.279 -0.0812 -0.0202 -0.1003
 1250BOLB   C1D29997  11.307  12.264   7.471  0.1217  0.0106 -0.1686
 1250BOLB   C2D29998  11.363  12.669   7.533 -0.0413 -0.0480 -0.0955
 1250BOLB   C3D29999  11.474  12.938   7.830 -0.0911 -0.0917 -0.1307
 1250BOLB   C4D30000  11.647  13.270   8.009 -0.0275  0.3315 -0.1288
 1251BOLB   NC130001  19.012  15.830  11.092  0.0785  0.2544 -0.4066
 1251BOLB   PO130002  19.244  15.932  10.659 -0.1051 -0.0701 -0.1695
 1251BOLB   GL130003  19.410  15.782  10.194  0.0005 -0.0968 -0.4121
 1251BOLB   GL230004  19.580  16.022   9.950  0.2754 -0.0942  0.1003
 1251BOLB   C1A30005  19.434  15.607   9.759 -0.2607  0.2120  0.1365
 1251BOLB   C2A30006  19.548  15.483   9.330  0.3267 -0.0343 -0.0433
 1251BOLB   C3A30007  19.892  15.446   9.158  0.1875  0.4653 -0.0300
 1251BOLB   C4A30008  20.020  15.425   8.651 -0.1390 -0.0734  0.1065
 1251BOLB   C1B30009  19.597  16.354   9.585  0.3621 -0.0717  0.1559
 1251BOLB   C2B30010  19.816  16.392   9.208  0.1169 -0.0498  0.1071
 1251BOLB   C3B30011  19.643  16.260   8.700  0.2089  0.0227  0.0918
 1251BOLB   C4B30012  19.528  16.001   8.350  0.0056 -0.2724 -0.1652
 1251BOLB   NC230013  20.279  15.638   6.103 -0.0057  0.0894 -0.1366
 1251BOLB   PO230014  20.615  15.662   6.403  0.3448 -0.3354 -0.3014
 1251BOLB   GL330015  20.630  15.758   6.781 -0.3589 -0.1669  0.0446
 1251BOLB   GL430016  20.418  16.058   6.908 -0.0763  0.2188  0.0987
 1251BOLB   C1C30017  20.577  15.670   7.233  0.3230 -0.0481 -0.1658
 1251BOLB   C2C30018  20.285  15.481   7.531  0.0240  0.0411 -0.0473
 1251BOLB   C3C30019  19.976  15.300   7.891 -0.2264 -0.1901  0.4007
 1251BOLB   C4C30020  19.864  15.181   8.338  0.1760 -0.3294 -0.0874
 1251BOLB   C1D30021  20.442  16.220   7.376  0.0680  0.0728 -0.0907
 1251BOLB   C2D30022  20.470  16.468   7.767 -0.1580  0.2902 -0.1495
 1251BOLB   C3D30023  20.554  16.440   8.190 -0.0980 -0.0287  0.3560
 1251BOLB   C4D30024  20.543  16.414   8.534  0.0298 -0.1242 -0.0122
 1252BOLB   NC130025   8.223   7.905  10.888 -0.0911  0.1758  0.1175
 1252BOLB   PO130026   8.167   8.139  11.247  0.1736  0.1090  0.0565
 1252BOLB   GL130027   8.404   8.350  11.009 -0.0968 -0.0279 -0.1250
 1252BOLB   GL230028   8.296   8.513  10.833  0.1009  0.2274 -0.3505
 1252BOLB   C1A30029   8.707   8.815  10.904  0.2386  0.2660  0.0119
 1252BOLB   C2A30030   8.971   9.063  10.682 -0.2902  0.2898 -0.1311
 1252BOLB   C3A30031   8.884   9.315  10.292 -0.1020 -0.0784 -0.2286
 1252BOLB   C4A30032   9.037   9.424   9.838  0.1706 -0.4314  0.3288
 1252BOLB   C1B30033   8.667   8.223  10.534  0.0262  0.2025 -0.2094
 1252BOLB   C2B30034   8.867   7.888  10.292  0.0264 -0.2650 -0.2215
 1252BOLB   C3B30035   9.238   7.619  10.343 -0.3040  0.0808  0.2549
 1252BOLB   C4B30036   9.141   7.339  10.537 -0.0711 -0.2192  0.1099
 1252BOLB   NC230037   8.477   9.736   7.523 -0.0433 -0.2249  0.1000
 1252BOLB   PO230038   8.426  10.264   7.625 -0.0545 -0.2422 -0.1033
 1252BOLB   GL330039   8.370  10.203   7.989 -0.1620  0.0271 -0.0647
 1252BOLB   GL430040   8.334  10.351   8.361  0.1428 -0.1149  0.1296
 1252BOLB   C1C30041   8.600   9.898   8.300 -0.0683  0.0393 -0.1054
 1252BOLB   C2C30042   8.726   9.571   8.625  0.0535  0.1028  0.0322
 1252BOLB   C3C30043   9.014   9.549   8.978 -0.0112 -0.2005 -0.2621
 1252BOLB   C4C30044   8.899   9.513   9.381  0.0489  0.3477  0.0420
 1252BOLB   C1D30045   8.438  10.749   8.674 -0.0821  0.0618  0.1794
 1252BOLB   C2D30046   8.725  11.030   8.943 -0.1950  0.1491 -0.1694
 1252BOLB   C3D30047   8.633  11.455   8.943 -0.1571 -0.0681 -0.1218
 1252BOLB   C4D30048   8.667  11.852   9.138  0.4338 -0.2690 -0.0496
 1253BOLB   NC130049  15.479   9.250  12.697 -0.0842 -0.0319 -0.0349
 1253BOLB   PO130050  15.568   8.940  13.095 -0.1209  0.1430  0.0086
 1253BOLB   GL130051  15.779   8.787  12.677 -0.0157  0.2455  0.0275
 1253BOLB   GL230052  15.540   8.875  12.381 -0.1069 -0.2011  0.3371
 1253BOLB   C1A30053  16.120   8.630  12.432 -0.0571 -0.0928 -0.0648
 1253BOLB   C2A30054  16.307   8.367  12.005 -0.1323  0.0871 -0.1278
 1253BOLB   C3A30055  16.509   7.979  11.904  0.1472  0.3217  0.3509
 1253BOLB   C4A30056  16.722   7.645  11.691  0.0685 -0.0268 -0.1422
 1253BOLB   C1B30057  15.792   8.641  12.076  0.1164  0.0186  0.0307
 1253BOLB   C2B30058  16.173   8.829  11.866 -0.2136 -0.0353  0.0396
 1253BOLB   C3B30059  16.394   8.820  11.646 -0.0175  0.1491 -0.0876
 1253BOLB   C4B30060  16.696   8.618  11.404 -0.1741 -0.2716 -0.0527
 1253BOLB   NC230061  17.981   7.916   9.330  0.5022  0.0330 -0.0214
 1253BOLB   PO230062  18.148   7.726   9.746  0.1283  0.0174  0.0683
 1253BOLB   GL330063  18.186   7.833  10.206  0.2325  0.0594 -0.0864
 1253BOLB   GL430064  18.196   7.466  10.352  0.0853 -0.1112 -0.0113
 1253BOLB   C1C30065  17.942   7.878  10.610 -0.0020 -0.0136  0.0054
 1253BOLB   C2C30066  17.724   7.791  10.944  0.2624 -0.1373 -0.2685
 1253BOLB   C3C30067  17.346   7.572  11.194  0.1598 -0.0668  0.1348
 1253BOLB   C4C30068  17.122   7.690  11.544 -0.1072  0.2642 -0.0384
 1253BOLB   C1D30069  17.976   7.321  10.714 -0.1047 -0.1769  0.0216
 1253BOLB   C2D30070  17.867   7.090  11.121 -0.2018 -0.1934  0.2753
 1253BOLB   C3D30071  17.648   7.209  11.471 -0.0708  0.0786  0.3214
 1253BOLB   C4D30072  17.360   7.283  11.695 -0.1526 -0.4373  0.3658
 1254BOLB   NC130073  16.895  22.098  11.743  0.0081 -0.1839 -0.1779
 1254BOLB   PO130074  17.333  21.924  11.726  0.1951 -0.0080 -0.1414
 1254BOLB   GL130075  17.519  22.166  11.566 -0.0798 -0.1161  0.0826
 1254BOLB   GL230076  17.237  22.464  11.614 -0.0930  0.2027 -0.2753
 1254BOLB   C1A30077  17.678  22.492  11.311 -0.3129 -0.1174  0.1483
 1254BOLB   C2A30078  17.414  22.845  11.140 -0.1475  0.4366 -0.2965
 1254BOLB   C3A30079  17.646  23.052  10.832  0.2775 -0.2682  0.1596
 1254BOLB   C4A30080  17.793  23.175  10.497  0.3087  0.0605 -0.0483
 1254BOLB   C1B30081  17.069  22.788  11.533 -0.0698 -0.0482  0.0203
 1254BOLB   C2B30082  16.946  23.114  11.327  0.0628  0.0373 -0.0107
 1254BOLB   C3B30083  16.640  23.436  11.174  0.0771 -0.1054 -0.0934
 1254BOLB   C4B30084  16.670  23.729  10.836  0.2439  0.1384 -0.4628
 1254BOLB   NC230085  18.616  24.575   8.689  0.0265  0.2148 -0.1749
 1254BOLB   PO230086  18.271  24.436   8.375 -0.3225 -0.0527 -0.1336
 1254BOLB   GL330087  18.220  24.210   8.713  0.1256  0.3977  0.1441
 1254BOLB   GL430088  17.827  24.150   8.837  0.0504  0.0154  0.1946
 1254BOLB   C1C30089  18.323  23.922   9.137  0.0662  0.0499  0.2910
 1254BOLB   C2C30090  18.054  23.733   9.415  0.0042 -0.2476  0.0453
 1254BOLB   C3C30091  17.894  23.331   9.663  0.0185  0.1014  0.3988
 1254BOLB   C4C30092  17.835  23.223  10.008  0.1217 -0.1953  0.1112
 1254BOLB   C1D30093  17.803  23.707   8.911 -0.0647  0.0494  0.4141
 1254BOLB   C2D30094  17.554  23.408   9.192 -0.1175  0.2138 -0.0532
 1254BOLB   C3D30095  17.361  23.330   9.556 -0.4370 -0.0708 -0.2134
 1254BOLB   C4D30096  17.360  23.142   9.944  0.1332  0.0980 -0.2619
 1255BOLB   NC130097  18.851  19.766  10.860 -0.0731  0.0741  0.1571
 1255BOLB   PO130098  18.831  20.115  10.672  0.3956 -0.0571 -0.2507
 1255BOLB   GL130099  18.811  19.865  10.359  0.0530 -0.1317  0.1378
 1255BOLB   GL230100  19.125  19.806  10.150 -0.1949  0.0667  0.1141
 1255BOLB   C1A30101  18.718  19.883   9.889 -0.0671 -0.2659 -0.0155
 1255BOLB   C2A30102  18.854  20.035   9.570 -0.0211  0.3517 -0.0840
 1255BOLB   C3A30103  19.118  19.884   9.242 -0.0467 -0.1610  0.0428
 1255BOLB   C4A30104  19.370  19.929   8.867 -0.2236  0.1193 -0.1657
 1255BOLB   C1B30105  19.273  19.717   9.718  0.0862 -0.0320  0.0494
 1255BOLB   C2B30106  19.442  19.521   9.411 -0.0161 -0.0617 -0.1282
 1255BOLB   C3B30107  19.762  19.632   9.177 -0.1598 -0.3047 -0.0256
 1255BOLB   C4B30108  19.850  20.120   8.858 -0.1297  0.2497 -0.3003
 1255BOLB   NC230109  20.147  20.649   6.924  0.1624  0.0295  0.2653
 1255BOLB   PO230110  19.701  20.732   7.113 -0.1814 -0.0650  0.0741
 1255BOLB   GL330111  19.845  20.813   7.455 -0.0627  0.2516  0.0869
 1255BOLB   GL430112  20.204  20.916   7.441  0.2413 -0.2162  0.2373
 1255BOLB   C1C30113  19.961  20.968   7.888 -0.1328  0.1644 -0.2131
 1255BOLB   C2C30114  20.091  20.755   8.225  0.2220  0.2736  0.3597
 1255BOLB   C3C30115  19.860  20.449   8.461  0.0728 -0.2147 -0.0117
 1255BOLB   C4C30116  19.426  20.208   8.560  0.1002 -0.1794  0.0166
 1255BOLB   C1D30117  19.967  20.445   7.717 -0.0904 -0.1675 -0.1827
 1255BOLB   C2D30118  19.707  20.285   8.009  0.1397 -0.2387  0.1106
 1255BOLB   C3D30119  19.461  19.892   8.206 -0.1022  0.3114 -0.0606
 1255BOLB   C4D30120  19.347  19.481   8.105  0.0780  0.0519 -0.1454
 1256BOLB   NC130121  21.319  21.887  12.666 -0.0308  0.0332  0.3501
 1256BOLB   PO130122  21.620  22.264  12.820  0.1078 -0.0261  0.1782
 1256BOLB   GL130123  21.500  22.274  12.420  0.2413  0.0232  0.1567
 1256BOLB   GL230124  21.652  22.038  12.266 -0.2152 -0.2329  0.0507
 1256BOLB   C1A30125  21.245  22.504  12.122 -0.3960  0.0714 -0.1569
 1256BOLB   C2A30126  21.172  22.775  11.743  0.3200  0.0431 -0.0871
 1256BOLB   C3A30127  20.980  23.129  11.662  0.0841  0.2271  0.0915
 1256BOLB   C4A30128  20.785  23.379  11.273 -0.1361  0.2776 -0.1684
 1256BOLB   C1B30129  21.708  22.336  11.939 -0.0734  0.0368 -0.0503
 1256BOLB   C2B30130  21.689  22.713  11.624 -0.0004  0.1507  0.0890
 1256BOLB   C3B30131  21.709  22.901  11.242 -0.1386  0.1090  0.1103
 1256BOLB   C4B30132  21.750  23.025  10.906 -0.2332 -0.1313  0.0035
 1256BOLB   NC230133  20.832  24.369   8.793  0.0812  0.0201 -0.0097
 1256BOLB   PO230134  20.698  24.429   9.206  0.0542  0.2362 -0.1898
 1256BOLB   GL330135  20.797  24.281   9.608  0.1711 -0.0387  0.0112
 1256BOLB   GL430136  21.096  24.308   9.904 -0.0557 -0.0081 -0.1823
 1256BOLB   C1C30137  20.616  24.275   9.998  0.2596  0.0334  0.0495
 1256BOLB   C2C30138  20.548  24.163  10.359 -0.5223 -0.3663 -0.2154
 1256BOLB   C3C30139  20.547  23.824  10.745  0.2371 -0.3250 -0.1068
 1256BOLB   C4C30140  20.782  23.815  11.067 -0.1077  0.1746 -0.0427
 1256BOLB   C1D30141  21.109  24.079  10.315 -0.0785  0.0786 -0.0462
 1256BOLB   C2D30142  21.030  23.766  10.570 -0.1289 -0.2304  0.0283
 1256BOLB   C3D30143  20.800  23.288  10.771  0.2774  0.2199 -0.0933
 1256BOLB   C4D30144  20.971  22.878  10.617  0.2029  0.1595 -0.0712
 1257BOLB   NC130145  21.297  12.708  13.390  0.0142 -0.0054 -0.1966
 1257BOLB   PO130146  21.274  12.958  13.138  0.0097 -0.2374 -0.1601
 1257BOLB   GL130147  21.415  12.839  12.801  0.0584  0.2349 -0.2407
 1257BOLB   GL230148  21.728  12.602  12.956 -0.0369  0.3707 -0.1257
 1257BOLB   C1A30149  21.512  12.642  12.451 -0.0085 -0.0944  0.1560
 1257BOLB   C2A30150  21.729  12.393  12.161 -0.0449 -0.2207  0.1021
 1257BOLB   C3A30151  21.900  12.351  11.756 -0.2208  0.0500 -0.0934
 1257BOLB   C4A30152  22.088  11.972  11.605 -0.3629  0.2033  0.0647
 1257BOLB   C1B30153  21.926  12.272  12.658 -0.1751 -0.4131 -0.0611
 1257BOLB   C2B30154  21.945  12.017  12.410 -0.1573 -0.2001 -0.2529
 1257BOLB   C3B30155  22.130  11.700  12.140 -0.1082 -0.1106  0.0445
 1257BOLB   C4B30156  22.470  11.461  12.021  0.0857  0.3926 -0.0334
 1257BOLB   NC230157  23.194  10.988   9.951  0.0690 -0.3623  0.1445
 1257BOLB   PO230158  23.452  10.693  10.254  0.1787 -0.3318 -0.1871
 1257BOLB   GL330159  23.127  10.897  10.493  0.5315 -0.0272  0.0590
 1257BOLB   GL430160  22.853  10.940  10.393 -0.1281 -0.1780 -0.0530
 1257BOLB   C1C30161  23.090  11.139  10.911 -0.0402 -0.4116 -0.0250
 1257BOLB   C2C30162  22.800  11.241  11.234 -0.2317  0.0932 -0.3170
 1257BOLB   C3C30163  22.496  11.223  11.540 -0.1795 -0.2524 -0.1023
 1257BOLB   C4C30164  22.169  11.512  11.689  0.1229  0.0492  0.1049
 1257BOLB   C1D30165  22.482  10.922  10.508  0.0677  0.0362  0.3808
 1257BOLB   C2D30166  22.142  11.209  10.487  0.1285 -0.2190  0.3193
 1257BOLB   C3D30167  21.885  11.585  10.631 -0.0072  0.1467  0.3361
 1257BOLB   C4D30168  21.988  12.004  10.806 -0.0815  0.0427 -0.0854
 1258BOLB   NC130169  13.591  10.663  11.375 -0.2873 -0.3835  0.0689
 1258BOLB   PO130170  14.106  10.672  11.608 -0.1770  0.0042  0.0793
 1258BOLB   GL130171  14.181  10.647  11.167 -0.1642 -0.1279  0.1555
 1258BOLB   GL230172  13.883  10.451  10.999 -0.1476 -0.1743  0.2100
 1258BOLB   C1A30173  14.314  10.598  10.746  0.0324 -0.0996  0.0062
 1258BOLB   C2A30174  14.569  10.667  10.365 -0.0596 -0.1091  0.0828
 1258BOLB   C3A30175  14.918  10.540  10.042  0.0670 -0.2087  0.0103
 1258BOLB   C4A30176  15.080  10.529   9.620 -0.1622  0.0512  0.1886
 1258BOLB   C1B30177  14.003  10.148  10.674 -0.1274 -0.3263  0.3627
 1258BOLB   C2B30178  13.955   9.976  10.376 -0.0441  0.1893  0.1148
 1258BOLB   C3B30179  13.958   9.667  10.082  0.0513  0.2057  0.2149
 1258BOLB   C4B30180  13.809   9.252  10.039  0.0221  0.1968  0.1005
 1258BOLB   NC230181  15.842   9.354   7.943  0.0242  0.1076  0.2240
 1258BOLB   PO230182  16.239   9.379   7.900 -0.1538 -0.2573 -0.1603
 1258BOLB   GL330183  16.132   9.462   8.357  0.0742  0.3930 -0.3585
 1258BOLB   GL430184  16.184   9.244   8.573 -0.1878  0.0690  0.0562
 1258BOLB   C1C30185  15.943   9.690   8.646 -0.0709 -0.2177  0.0708
 1258BOLB   C2C30186  15.760  10.008   8.848  0.0289  0.2240  0.1949
 1258BOLB   C3C30187  15.475  10.268   8.938  0.0028  0.0569 -0.0466
 1258BOLB   C4C30188  15.116  10.321   9.260 -0.1222  0.1231 -0.3902
 1258BOLB   C1D30189  16.067   9.224   8.910 -0.0784 -0.0184  0.1117
 1258BOLB   C2D30190  15.854   9.130   9.280  0.0333  0.1780  0.2483
 1258BOLB   C3D30191  15.845   9.361   9.668  0.0639 -0.0741  0.0645
 1258BOLB   C4D30192  16.054   9.158  10.079  0.0271 -0.0132 -0.0983
 1259BOLB   NC130193  20.443  14.093  11.327 -0.3735 -0.0319  0.1243
 1259BOLB   PO130194  20.367  14.532  11.150  0.1965 -0.2040 -0.4386
 1259BOLB   GL130195  20.605  14.220  10.834  0.0186  0.2889  0.1595
 1259BOLB   GL230196  20.754  13.924  11.022 -0.1670 -0.2332  0.2977
 1259BOLB   C1A30197  20.373  14.108  10.440  0.3578  0.0373  0.0304
 1259BOLB   C2A30198  20.521  13.795  10.047  0.1461  0.2317 -0.0114
 1259BOLB   C3A30199  20.367  13.360   9.942 -0.0689 -0.0131 -0.1207
 1259BOLB   C4A30200  20.379  13.128   9.571  0.0088  0.3920  0.2217
 1259BOLB   C1B30201  20.834  13.738  10.663  0.0511  0.1043  0.3683
 1259BOLB   C2B30202  20.806  13.359  10.558 -0.0019 -0.0756  0.0566
 1259BOLB   C3B30203  20.861  13.211  10.222  0.3060 -0.2062  0.2212
 1259BOLB   C4B30204  20.676  12.901   9.905  0.2979 -0.0984 -0.1710
 1259BOLB   NC230205  21.102  11.014   8.839 -0.1688 -0.3701  0.0359
 1259BOLB   PO230206  20.862  10.852   9.030 -0.0143  0.2889 -0.0086
 1259BOLB   GL330207  20.555  11.186   8.997 -0.1687 -0.0429 -0.3431
 1259BOLB   GL430208  20.570  11.431   8.773 -0.2893  0.2879  0.0288
 1259BOLB   C1C30209  20.413  11.571   9.219 -0.0919 -0.1394 -0.0770
 1259BOLB   C2C30210  20.258  11.949   9.319  0.0500 -0.1967 -0.0097
 1259BOLB   C3C30211  20.416  12.357   9.425  0.0442  0.0659 -0.1147
 1259BOLB   C4C30212  20.580  12.728   9.409 -0.1564  0.2042  0.2728
 1259BOLB   C1D30213  20.668  11.853   8.882  0.1883 -0.2815 -0.1414
 1259BOLB   C2D30214  20.807  11.970   9.333 -0.0179 -0.0685 -0.3353
 1259BOLB   C3D30215  20.978  11.958   9.645  0.1415 -0.2873  0.0506
 1259BOLB   C4D30216  21.102  12.065  10.225 -0.0750  0.1232 -0.0688
 1260BOLB   NC130217   9.935  23.611  12.952 -0.1069 -0.1451  0.0303
 1260BOLB   PO130218   9.886  23.807  12.563  0.0186  0.1547  0.2079
 1260BOLB   GL130219   9.853  23.713  12.083  0.2123  0.1592 -0.1884
 1260BOLB   GL230220   9.626  23.703  11.844 -0.1104  0.0577  0.1126
 1260BOLB   C1A30221  10.182  23.592  11.745 -0.0288  0.0858 -0.1005
 1260BOLB   C2A30222  10.334  23.585  11.260 -0.1334  0.0411  0.0655
 1260BOLB   C3A30223  10.391  23.521  10.801  0.2893 -0.0780 -0.1484
 1260BOLB   C4A30224  10.501  23.493  10.369  0.0005  0.0541 -0.2179
 1260BOLB   C1B30225   9.363  23.565  11.532  0.0032 -0.1464  0.2180
 1260BOLB   C2B30226   9.404  23.357  11.125 -0.1013  0.2383  0.3401
 1260BOLB   C3B30227   9.600  23.468  10.779  0.2854 -0.1234 -0.3292
 1260BOLB   C4B30228   9.982  23.777  10.687 -0.1016  0.3464  0.0590
 1260BOLB   NC230229   9.917  23.520   7.759 -0.0481  0.1242 -0.1033
 1260BOLB   PO230230  10.277  23.730   7.700 -0.1481  0.1926 -0.0309
 1260BOLB   GL330231  10.448  23.638   8.092 -0.1455 -0.0361 -0.2646
 1260BOLB   GL430232  10.780  23.498   8.119 -0.3424 -0.0307  0.1678
 1260BOLB   C1C30233  10.537  23.513   8.552  0.0327 -0.0113 -0.0423
 1260BOLB   C2C30234  10.643  23.374   8.954  0.0802 -0.2132 -0.0980
 1260BOLB   C3C30235  10.674  23.373   9.480  0.0029 -0.0404 -0.0191
 1260BOLB   C4C30236  10.497  23.629   9.866 -0.0003  0.1299 -0.1870
 1260BOLB   C1D30237  10.999  23.289   8.385  0.0336 -0.0660 -0.1469
 1260BOLB   C2D30238  11.064  23.224   8.802  0.0555  0.1020  0.1375
 1260BOLB   C3D30239  11.133  22.962   9.115 -0.0282 -0.1761  0.0628
 1260BOLB   C4D30240  10.894  22.847   9.390 -0.1269  0.4305 -0.0212
 1261BOLB   NC130241  14.856  22.777  12.163 -0.0420  0.0742  0.2431
 1261BOLB   PO130242  15.147  23.009  12.496  0.0587  0.2331 -0.1135
 1261BOLB   GL130243  15.050  23.288  12.139 -0.0831 -0.1188  0.0692
 1261BOLB   GL230244  14.817  23.600  12.279 -0.0294  0.1238 -0.0175
 1261BOLB   C1A30245  15.049  23.587  11.826  0.2461  0.2145  0.1050
 1261BOLB   C2A30246  14.941  23.840  11.474  0.1139 -0.0891 -0.1502
 1261BOLB   C3A30247  14.947  24.290  11.341  0.2625 -0.2238  0.1690
 1261BOLB   C4A30248  14.759  24.555  11.128  0.0914 -0.1791 -0.1985
 1261BOLB   C1B30249  14.825  24.027  12.096 -0.0831  0.0619  0.1665
 1261BOLB   C2B30250  14.589  24.358  11.855 -0.0846 -0.0931  0.1947
 1261BOLB   C3B30251  14.674  24.695  11.616 -0.0943 -0.1547  0.0725
 1261BOLB   C4B30252  14.560  25.068  11.380 -0.0945  0.0262 -0.0332
 1261BOLB   NC230253  14.068  26.103   9.021  0.0916 -0.1987 -0.1241
 1261BOLB   PO230254  14.025  25.812   9.276  0.2496  0.0812 -0.0760
 1261BOLB   GL330255  13.910  25.515   9.607 -0.1610 -0.0641  0.1739
 1261BOLB   GL430256  14.095  25.762   9.881  0.1162 -0.0087  0.1782
 1261BOLB   C1C30257  13.811  25.202   9.878 -0.0045  0.1724 -0.2456
 1261BOLB   C2C30258  13.941  25.080  10.361 -0.4312  0.1312  0.3968
 1261BOLB   C3C30259  14.135  24.992  10.773 -0.1761 -0.4380  0.2322
 1261BOLB   C4C30260  14.324  24.752  11.048  0.3283 -0.1707 -0.0478
 1261BOLB   C1D30261  14.248  25.464  10.279  0.0926  0.1095  0.2701
 1261BOLB   C2D30262  14.543  25.337  10.597  0.0005  0.1462  0.0541
 1261BOLB   C3D30263  14.861  25.000  10.878 -0.0001  0.0346  0.0843
 1261BOLB   C4D30264  15.092  24.911  11.229 -0.0775  0.1377 -0.0113
 1262BOLB   NC130265  18.305  22.303  12.683 -0.1011 -0.0060  0.2687
 1262BOLB   PO130266  18.220  22.323  12.207  0.1208 -0.2144 -0.0343
 1262BOLB   GL130267  18.475  22.671  11.899 -0.2749  0.2632 -0.0604
 1262BOLB   GL230268  18.691  22.932  11.983 -0.2923 -0.2949 -0.1378
 1262BOLB   C1A30269  18.215  22.911  11.770  0.0076  0.1176 -0.0934
 1262BOLB   C2A30270  18.277  23.119  11.395  0.0174  0.1007 -0.1990
 1262BOLB   C3A30271  18.223  23.297  11.116 -0.0881  0.1693 -0.0723
 1262BOLB   C4A30272  18.068  23.295  10.837  0.1747  0.1261  0.1350
 1262BOLB   C1B30273  18.730  22.914  11.476  0.3216 -0.1574 -0.3616
 1262BOLB   C2B30274  18.694  23.027  11.118  0.0101  0.1268 -0.0270
 1262BOLB   C3B30275  19.028  23.307  10.943  0.1568 -0.1399  0.3203
 1262BOLB   C4B30276  19.409  23.407  11.104  0.1264  0.0904 -0.3343
 1262BOLB   NC230277  18.003  25.158   8.977  0.2357  0.2997 -0.0364
 1262BOLB   PO230278  18.261  25.181   9.306  0.3018  0.3421  0.3129
 1262BOLB   GL330279  18.173  25.127   9.740 -0.1350 -0.0536 -0.0579
 1262BOLB   GL430280  18.211  25.261  10.055 -0.0817  0.3441  0.0244
 1262BOLB   C1C30281  17.847  24.791   9.812 -0.0970  0.3046  0.0046
 1262BOLB   C2C30282  17.715  24.396  10.009 -0.2302  0.1483  0.0593
 1262BOLB   C3C30283  17.893  23.989  10.273  0.0431 -0.4302 -0.0675
 1262BOLB   C4C30284  17.983  23.755  10.616 -0.0067  0.3163 -0.0692
 1262BOLB   C1D30285  18.232  25.240  10.551  0.0827  0.1266 -0.2287
 1262BOLB   C2D30286  18.430  25.140  10.931  0.2775 -0.0421 -0.0199
 1262BOLB   C3D30287  18.695  24.753  11.221 -0.0256  0.0360  0.1780
 1262BOLB   C4D30288  18.656  24.413  11.558  0.2398 -0.0320 -0.0816
 1263BOLB   NC130289  10.332  21.685  11.623  0.3060  0.3797 -0.0090
 1263BOLB   PO130290  10.615  21.396  11.786  0.0717  0.1105  0.0800
 1263BOLB   GL130291  10.523  21.369  11.281  0.0897 -0.2093  0.0733
 1263BOLB   GL230292  10.480  21.702  11.131  0.1803 -0.1677  0.1481
 1263BOLB   C1A30293  10.174  21.318  11.045 -0.3571 -0.3500 -0.1922
 1263BOLB   C2A30294  10.160  21.486  10.656  0.0421  0.3102  0.1646
 1263BOLB   C3A30295  10.074  21.626  10.239  0.1445  0.0613 -0.1892
 1263BOLB   C4A30296   9.890  21.742   9.764  0.1567  0.3290  0.1701
 1263BOLB   C1B30297  10.534  21.856  10.686  0.1382  0.2717 -0.0238
 1263BOLB   C2B30298  10.503  21.833  10.245  0.1137 -0.3682  0.1585
 1263BOLB   C3B30299  10.363  21.711   9.848 -0.0036 -0.0366 -0.0744
 1263BOLB   C4B30300  10.330  21.502   9.500 -0.2066 -0.1175  0.0861
 1263BOLB   NC230301   8.745  21.886   7.334 -0.0239  0.0199  0.0893
 1263BOLB   PO230302   8.765  21.750   7.750 -0.2505  0.0719  0.0127
 1263BOLB   GL330303   8.859  21.598   8.046  0.0581  0.1189  0.2013
 1263BOLB   GL430304   8.648  21.364   8.078 -0.3978  0.0986 -0.2127
 1263BOLB   C1C30305   9.117  21.448   8.413 -0.0558  0.0826 -0.3307
 1263BOLB   C2C30306   9.372  21.511   8.737 -0.0963 -0.2061  0.1395
 1263BOLB   C3C30307   9.521  21.735   9.103 -0.0001 -0.2314  0.0659
 1263BOLB   C4C30308   9.598  21.915   9.496  0.2866 -0.2470 -0.4528
 1263BOLB   C1D30309   8.704  21.021   8.263 -0.0048 -0.0799 -0.1421
 1263BOLB   C2D30310   8.953  21.011   8.550 -0.0490 -0.2639 -0.0319
 1263BOLB   C3D30311   9.384  20.966   8.706  0.0583 -0.1078  0.1476
 1263BOLB   C4D30312   9.486  20.943   9.108  0.0244 -0.1925 -0.0260
 1264BOLB   NC130313  24.174  22.370  13.097  0.0391  0.2747 -0.1087
 1264BOLB   PO130314  23.943  22.695  12.865 -0.0394  0.1812  0.1232
 1264BOLB   GL130315  23.633  22.736  12.523 -0.1552  0.0906 -0.0457
 1264BOLB   GL230316  23.481  22.501  12.603  0.0667  0.1970  0.0536
 1264BOLB   C1A30317  23.538  22.717  12.069  0.1836  0.1225  0.1162
 1264BOLB   C2A30318  23.421  22.347  11.765 -0.0559  0.1180 -0.2393
 1264BOLB   C3A30319  23.537  22.094  11.454 -0.0277 -0.0676 -0.0009
 1264BOLB   C4A30320  23.376  22.154  11.048 -0.0657  0.2080  0.1369
 1264BOLB   C1B30321  23.218  22.393  12.204  0.1147  0.2049 -0.0123
 1264BOLB   C2B30322  23.084  22.700  11.839 -0.0615 -0.1786 -0.0218
 1264BOLB   C3B30323  22.786  22.932  11.741 -0.1817 -0.1076 -0.0910
 1264BOLB   C4B30324  22.567  23.263  11.805 -0.1607 -0.0426 -0.1264
 1264BOLB   NC230325  23.985  23.303   9.282 -0.2075 -0.1902 -0.1017
 1264BOLB   PO230326  23.850  22.879   9.158  0.3177  0.3094  0.2103
 1264BOLB   GL330327  23.469  22.835   9.343 -0.0635  0.4581  0.0776
 1264BOLB   GL430328  23.304  22.546   9.259  0.4376 -0.1532 -0.0886
 1264BOLB   C1C30329  23.361  22.757   9.759  0.0088 -0.0052  0.3575
 1264BOLB   C2C30330  23.343  22.570  10.059  0.3328 -0.1389  0.1183
 1264BOLB   C3C30331  23.520  22.522  10.377 -0.0799  0.3108 -0.1598
 1264BOLB   C4C30332  23.481  22.326  10.730 -0.1501  0.1184  0.0192
 1264BOLB   C1D30333  23.397  22.260   9.594  0.1111  0.1054 -0.1979
 1264BOLB   C2D30334  23.280  21.823   9.586  0.0215 -0.0716 -0.1608
 1264BOLB   C3D30335  23.579  21.540   9.518  0.0564 -0.3106 -0.0233
 1264BOLB   C4D30336  23.731  21.198   9.660 -0.0766  0.2384 -0.3185
 1265BOLB   NC130337  19.226  21.133  11.386 -0.2868 -0.2045  0.2850
 1265BOLB   PO130338  19.299  20.688  11.151 -0.0174 -0.4545  0.2725
 1265BOLB   GL130339  19.666  20.702  10.980  0.2979 -0.0010 -0.0958
 1265BOLB   GL230340  19.928  20.904  11.087  0.0161  0.0762 -0.3055
 1265BOLB   C1A30341  19.771  20.930  10.599 -0.0192 -0.0107 -0.2841
 1265BOLB   C2A30342  19.977  21.225  10.348 -0.2419  0.0129  0.0411
 1265BOLB   C3A30343  20.280  21.508  10.103 -0.1219 -0.1054 -0.0208
 1265BOLB   C4A30344  20.332  21.843   9.828 -0.0756  0.2659  0.3032
 1265BOLB   C1B30345  20.165  21.161  10.863  0.0153 -0.3358 -0.0596
 1265BOLB   C2B30346  20.460  21.456  10.580 -0.0898  0.2630  0.0250
 1265BOLB   C3B30347  20.706  21.485  10.364 -0.1756 -0.2482 -0.0986
 1265BOLB   C4B30348  20.707  21.307   9.985 -0.1818  0.2169 -0.1729
 1265BOLB   NC230349  19.927  21.527   7.603  0.0146 -0.0041  0.0769
 1265BOLB   PO230350  19.933  21.930   7.626 -0.1461  0.0157 -0.0910
 1265BOLB   GL330351  20.112  21.862   8.041  0.1170  0.0020  0.1971
 1265BOLB   GL430352  19.975  21.525   8.200  0.1270  0.0492  0.2536
 1265BOLB   C1C30353  20.201  21.912   8.369 -0.0845  0.0195  0.1340
 1265BOLB   C2C30354  20.510  21.895   8.647 -0.2771 -0.0348  0.0715
 1265BOLB   C3C30355  20.524  21.863   9.094 -0.1309 -0.2052  0.0830
 1265BOLB   C4C30356  20.668  21.768   9.433 -0.1821 -0.2216 -0.3750
 1265BOLB   C1D30357  19.981  21.635   8.765  0.3306  0.0430  0.3562
 1265BOLB   C2D30358  20.133  21.604   9.219 -0.0938 -0.2578 -0.1926
 1265BOLB   C3D30359  20.320  21.351   9.541 -0.0918  0.1045  0.0229
 1265BOLB   C4D30360  20.171  21.154   9.786  0.1919 -0.2256 -0.1080
 1266BOLB   NC130361  15.754  20.239  11.048 -0.1200 -0.1411 -0.0670
 1266BOLB   PO130362  15.475  20.175  10.657 -0.0766  0.0983  0.2890
 1266BOLB   GL130363  15.641  20.494  10.381  0.3987 -0.3416 -0.1328
 1266BOLB   GL230364  15.330  20.626  10.202 -0.0800  0.1486  0.2417
 1266BOLB   C1A30365  15.978  20.723  10.179  0.1377 -0.1223  0.0136
 1266BOLB   C2A30366  16.066  20.993   9.768 -0.2352 -0.2206 -0.1699
 1266BOLB   C3A30367  16.326  21.216   9.475  0.0981 -0.0697  0.1539
 1266BOLB   C4A30368  16.570  21.243   9.203 -0.0745  0.3311  0.0167
 1266BOLB   C1B30369  15.586  20.706   9.749  0.0584  0.1642  0.2173
 1266BOLB   C2B30370  15.437  20.827   9.357  0.1690 -0.2078 -0.1250
 1266BOLB   C3B30371  15.205  21.068   9.053 -0.0850  0.0967  0.1190
 1266BOLB   C4B30372  14.811  21.251   8.753 -0.6130  0.3906 -0.4216
 1266BOLB   NC230373  16.973  22.307   7.406 -0.2217  0.1481  0.0147
 1266BOLB   PO230374  16.866  21.881   7.209  0.3168 -0.0836 -0.1303
 1266BOLB   GL330375  17.050  21.734   7.511  0.0121 -0.0093  0.0261
 1266BOLB   GL430376  17.086  21.952   7.730 -0.0841  0.1393  0.0188
 1266BOLB   C1C30377  17.335  21.486   7.840 -0.1283  0.0714 -0.2994
 1266BOLB   C2C30378  17.450  21.398   8.250 -0.1473 -0.0596  0.1576
 1266BOLB   C3C30379  17.341  21.341   8.659  0.3516 -0.3707  0.0563
 1266BOLB   C4C30380  16.852  21.325   8.772 -0.1101 -0.1412  0.1066
 1266BOLB   C1D30381  17.376  21.936   8.083 -0.1627  0.2920 -0.0662
 1266BOLB   C2D30382  17.581  21.883   8.541  0.0717 -0.0547 -0.1503
 1266BOLB   C3D30383  17.854  21.453   8.658 -0.0939 -0.1367  0.2152
 1266BOLB   C4D30384  18.180  21.250   8.669 -0.0752 -0.0408 -0.2482
 1267BOLB   NC130385  17.067  23.768  13.655 -0.1254  0.1194 -0.0642
 1267BOLB   PO130386  17.275  23.996  13.782  0.2987  0.1267 -0.2026
 1267BOLB   GL130387  17.409  24.030  13.389  0.2075  0.0730 -0.0890
 1267BOLB   GL230388  17.094  24.112  13.239  0.0293  0.0261 -0.2959
 1267BOLB   C1A30389  17.612  24.095  13.037 -0.1274 -0.2080 -0.3079
 1267BOLB   C2A30390  17.287  24.169  12.778  0.1566  0.1397 -0.2502
 1267BOLB   C3A30391  17.193  24.381  12.398  0.1026  0.2080  0.1301
 1267BOLB   C4A30392  17.225  24.703  12.049 -0.0303 -0.0668 -0.2931
 1267BOLB   C1B30393  17.150  24.524  13.180 -0.0070  0.1877  0.1484
 1267BOLB   C2B30394  17.137  24.950  12.939 -0.2333  0.3423  0.1311
 1267BOLB   C3B30395  17.200  25.346  12.680  0.1328 -0.0472  0.0082
 1267BOLB   C4B30396  17.557  25.636  12.545  0.2772  0.3158  0.1914
 1267BOLB   NC230397  17.659  25.427   9.109 -0.1614 -0.3079 -0.1058
 1267BOLB   PO230398  17.884  25.543   9.472  0.0408 -0.0659 -0.0412
 1267BOLB   GL330399  17.768  25.539   9.859  0.0293  0.0720  0.0100
 1267BOLB   GL430400  17.973  25.791  10.001 -0.0154  0.2739  0.1376
 1267BOLB   C1C30401  17.779  25.419  10.379  0.0990 -0.0144  0.0686
 1267BOLB   C2C30402  17.521  25.327  10.810  0.1336  0.0502  0.0356
 1267BOLB   C3C30403  17.297  25.270  11.246 -0.0932  0.3327  0.1205
 1267BOLB   C4C30404  17.207  25.097  11.720 -0.0541 -0.3578  0.2158
 1267BOLB   C1D30405  17.620  25.897  10.263  0.1498  0.0016 -0.1451
 1267BOLB   C2D30406  17.408  25.790  10.608  0.1269 -0.0040  0.0844
 1267BOLB   C3D30407  17.173  25.858  10.977  0.1357 -0.3418  0.0884
 1267BOLB   C4D30408  16.978  25.652  11.210  0.2678  0.0483  0.1019
 1268BOLB   NC130409  19.225  18.023  10.467  0.0737 -0.0102 -0.1370
 1268BOLB   PO130410  19.508  18.326  10.280 -0.0581  0.2022  0.1166
 1268BOLB   GL130411  19.525  18.694  10.174  0.2964  0.1442 -0.1688
 1268BOLB   GL230412  19.726  19.037  10.369 -0.0126 -0.1411  0.2593
 1268BOLB   C1A30413  19.660  18.749   9.787 -0.1373 -0.0002  0.2762
 1268BOLB   C2A30414  19.849  18.594   9.385  0.0060  0.2343  0.0046
 1268BOLB   C3A30415  20.203  18.715   9.030 -0.0414  0.3678  0.4467
 1268BOLB   C4A30416  20.457  18.414   8.803  0.0191 -0.1642 -0.2241
 1268BOLB   C1B30417  19.755  19.233   9.996  0.0862  0.0867 -0.0626
 1268BOLB   C2B30418  19.742  19.571   9.779  0.2025 -0.0634 -0.0346
 1268BOLB   C3B30419  19.663  19.984   9.537  0.2235  0.1644  0.1616
 1268BOLB   C4B30420  19.825  20.319   9.383  0.1744 -0.0966  0.2350
 1268BOLB   NC230421  22.037  19.103   7.281 -0.0166 -0.1208 -0.0006
 1268BOLB   PO230422  22.369  19.168   7.519 -0.1908 -0.0842  0.1660
 1268BOLB   GL330423  21.958  19.331   7.757 -0.1179 -0.0539 -0.2461
 1268BOLB   GL430424  21.757  19.114   7.668  0.0089 -0.0398  0.0685
 1268BOLB   C1C30425  21.783  19.159   8.165 -0.2148 -0.0325  0.1233
 1268BOLB   C2C30426  21.570  18.984   8.453  0.0148  0.2620 -0.3571
 1268BOLB   C3C30427  21.205  18.887   8.478 -0.1356 -0.0347  0.1228
 1268BOLB   C4C30428  20.928  18.583   8.630 -0.4102  0.1872  0.1494
 1268BOLB   C1D30429  21.458  19.393   7.859  0.0385  0.1672 -0.3563
 1268BOLB   C2D30430  21.239  19.284   8.184  0.0738 -0.1290  0.1231
 1268BOLB   C3D30431  20.888  19.135   8.249  0.2959 -0.1622 -0.0938
 1268BOLB   C4D30432  20.618  18.943   8.764  0.0464  0.4326 -0.0697
 1269BOLB   NC130433  19.249  11.388  12.738 -0.2090  0.0176  0.0471
 1269BOLB   PO130434  18.988  11.075  12.770  0.3591 -0.1351 -0.0586
 1269BOLB   GL130435  18.890  10.836  12.491 -0.1900 -0.3777 -0.1198
 1269BOLB   GL230436  19.206  10.652  12.557 -0.0570  0.3508 -0.1807
 1269BOLB   C1A30437  19.004  10.809  12.114 -0.1910  0.0185 -0.2408
 1269BOLB   C2A30438  19.097  10.766  11.759  0.0384 -0.0268 -0.1194
 1269BOLB   C3A30439  19.093  10.766  11.241  0.1506  0.1017 -0.0445
 1269BOLB   C4A30440  18.946  10.418  11.021  0.2565 -0.3898  0.0502
 1269BOLB   C1B30441  19.385  10.245  12.345  0.3261 -0.2590  0.1079
 1269BOLB   C2B30442  19.577   9.951  12.133  0.0352 -0.1971 -0.0558
 1269BOLB   C3B30443  19.893   9.720  11.852 -0.2407  0.0137 -0.1994
 1269BOLB   C4B30444  20.326   9.440  11.835  0.0568  0.1053 -0.0915
 1269BOLB   NC230445  20.998   9.164   9.595  0.0370  0.1651  0.1842
 1269BOLB   PO230446  20.807   9.232   9.980 -0.0466 -0.6460 -0.2255
 1269BOLB   GL330447  20.577   9.499  10.283 -0.2741  0.0091 -0.4472
 1269BOLB   GL430448  20.263   9.379  10.531 -0.0517  0.2290 -0.2450
 1269BOLB   C1C30449  20.268   9.740  10.201  0.4138 -0.0266  0.0453
 1269BOLB   C2C30450  19.812   9.876  10.332 -0.3772  0.2637  0.1113
 1269BOLB   C3C30451  19.580  10.058  10.599  0.1397  0.1346 -0.0424
 1269BOLB   C4C30452  19.388  10.376  10.697 -0.1754 -0.0714  0.2434
 1269BOLB   C1D30453  20.203   9.839  10.717 -0.0752 -0.1999  0.1777
 1269BOLB   C2D30454  20.039  10.280  10.658 -0.0122  0.0858  0.1085
 1269BOLB   C3D30455  19.788  10.625  10.449  0.0345  0.1816 -0.1152
 1269BOLB   C4D30456  19.410  10.844  10.410 -0.1251 -0.0988 -0.1615
 1270BOLB   NC130457  10.198  14.861  10.715 -0.0309  0.2057  0.1475
 1270BOLB   PO130458   9.811  14.821  10.502  0.0718 -0.0353  0.1997
 1270BOLB   GL130459   9.666  14.638  10.179  0.0005 -0.0287  0.1175
 1270BOLB   GL230460   9.394  14.917  10.201  0.0784  0.0418 -0.2217
 1270BOLB   C1A30461   9.645  14.525   9.792 -0.1194 -0.0694  0.1130
 1270BOLB   C2A30462   9.656  14.512   9.388  0.0538  0.3170 -0.1269
 1270BOLB   C3A30463   9.495  14.560   9.071  0.0508 -0.0461  0.1023
 1270BOLB   C4A30464   9.527  14.809   8.779  0.1797 -0.0097 -0.1045
 1270BOLB   C1B30465   9.373  14.895   9.897  0.3130 -0.0979  0.2121
 1270BOLB   C2B30466   9.313  14.911   9.393 -0.1482 -0.0433  0.1434
 1270BOLB   C3B30467   9.065  14.713   9.066 -0.1562 -0.2472  0.0895
 1270BOLB   C4B30468   9.142  14.542   8.637 -0.0236  0.2725 -0.0064
 1270BOLB   NC230469   9.799  15.155   6.844  0.1647  0.0093  0.1362
 1270BOLB   PO230470  10.165  14.942   6.717  0.0398  0.0328  0.1682
 1270BOLB   GL330471  10.191  15.089   7.123  0.1524 -0.2207 -0.0168
 1270BOLB   GL430472  10.195  14.912   7.304 -0.2454  0.1182 -0.0072
 1270BOLB   C1C30473  10.131  15.398   7.441 -0.1828  0.2015 -0.1908
 1270BOLB   C2C30474   9.840  15.438   7.916  0.0768  0.2704  0.2138
 1270BOLB   C3C30475   9.576  15.464   8.238  0.0859 -0.1378  0.1886
 1270BOLB   C4C30476   9.487  15.229   8.530  0.2058  0.0879  0.0055
 1270BOLB   C1D30477  10.473  15.041   7.692  0.1817 -0.0867 -0.0279
 1270BOLB   C2D30478  10.825  14.973   8.072  0.1038  0.3021 -0.4546
 1270BOLB   C3D30479  10.923  14.879   8.468 -0.1705 -0.0113 -0.1808
 1270BOLB   C4D30480  10.828  14.884   8.932  0.0913 -0.2157 -0.0143
 1271BOLB   NC130481  18.944   9.616  14.777 -0.0416 -0.0863 -0.3826
 1271BOLB   PO130482  19.425   9.395  14.701  0.1116 -0.0728 -0.1878
 1271BOLB   GL130483  19.556   9.021  14.575  0.1365 -0.2558  0.1631
 1271BOLB   GL230484  19.680   8.825  14.773 -0.1339  0.0866 -0.0523
 1271BOLB   C1A30485  19.501   8.628  14.268 -0.0604 -0.0532  0.2781
 1271BOLB   C2A30486  19.785   8.317  14.366  0.3573 -0.0252 -0.0320
 1271BOLB   C3A30487  20.032   8.057  14.326  0.1536 -0.1792  0.1709
 1271BOLB   C4A30488  20.166   7.691  14.107  0.0808 -0.0518  0.4460
 1271BOLB   C1B30489  19.912   8.529  14.752  0.1294 -0.4205  0.0707
 1271BOLB   C2B30490  20.063   8.158  14.902  0.0411  0.1812  0.0828
 1271BOLB   C3B30491  20.509   8.240  14.804 -0.0480 -0.1333 -0.1067
 1271BOLB   C4B30492  20.815   8.456  14.706 -0.1043 -0.0931 -0.2843
 1271BOLB   NC230493  20.065   5.207  13.315  0.0610  0.0508 -0.4762
 1271BOLB   PO230494  19.886   5.579  13.117 -0.0836 -0.1398  0.0550
 1271BOLB   GL330495  19.646   5.873  13.058  0.3011 -0.0891  0.1526
 1271BOLB   GL430496  19.248   5.854  13.029 -0.3092 -0.0161 -0.0469
 1271BOLB   C1C30497  19.560   6.174  13.234  0.2024 -0.1577  0.0537
 1271BOLB   C2C30498  19.629   6.655  13.432 -0.3508 -0.0584  0.0498
 1271BOLB   C3C30499  19.740   7.001  13.862 -0.2689  0.1353  0.1783
 1271BOLB   C4C30500  19.865   7.324  14.109 -0.2600 -0.3879  0.1840
 1271BOLB   C1D30501  19.088   6.348  12.919 -0.2379 -0.3741  0.0075
 1271BOLB   C2D30502  19.001   6.666  12.613 -0.2164 -0.5766 -0.3010
 1271BOLB   C3D30503  18.776   6.955  12.819 -0.0134 -0.0540 -0.4145
 1271BOLB   C4D30504  18.359   7.105  12.880 -0.1200 -0.2215 -0.0064
 1272BOLB   NC130505  12.090  17.205   9.829 -0.0583  0.0658 -0.5253
 1272BOLB   PO130506  12.375  16.920   9.986  0.0207  0.2066 -0.3194
 1272BOLB   GL130507  12.202  16.776   9.631  0.2004  0.1723 -0.1213
 1272BOLB   GL230508  12.007  16.486   9.573  0.0099 -0.0010 -0.0375
 1272BOLB   C1A30509  12.450  16.782   9.228  0.1115 -0.2401 -0.1179
 1272BOLB   C2A30510  12.531  16.848   8.832 -0.1068  0.1137 -0.1730
 1272BOLB   C3A30511  12.628  16.855   8.404  0.3026  0.0230 -0.0983
 1272BOLB   C4A30512  12.891  16.740   8.111 -0.1390 -0.0124  0.3524
 1272BOLB   C1B30513  12.322  16.344   9.299 -0.1221  0.0764 -0.1143
 1272BOLB   C2B30514  12.630  16.355   8.919 -0.1818 -0.0062  0.1857
 1272BOLB   C3B30515  12.903  16.067   8.584  0.0563 -0.3671  0.0089
 1272BOLB   C4B30516  13.107  15.949   8.138  0.2701 -0.0222 -0.0471
 1272BOLB   NC230517  13.233  15.310   5.983 -0.2426 -0.1508 -0.0304
 1272BOLB   PO230518  12.939  15.562   6.214 -0.0296  0.0688  0.4407
 1272BOLB   GL330519  13.018  15.639   6.583  0.0131 -0.1070 -0.3065
 1272BOLB   GL430520  12.950  15.887   6.756  0.0315 -0.2355 -0.3364
 1272BOLB   C1C30521  13.169  15.640   7.121  0.1082 -0.3051  0.1624
 1272BOLB   C2C30522  13.233  15.769   7.479  0.0090  0.1359 -0.0749
 1272BOLB   C3C30523  13.308  16.207   7.533 -0.3514 -0.0271 -0.0869
 1272BOLB   C4C30524  12.987  16.413   7.875 -0.1283  0.2801  0.2957
 1272BOLB   C1D30525  12.935  16.107   7.204  0.0365  0.0863 -0.2930
 1272BOLB   C2D30526  12.758  16.053   7.513  0.1096  0.1080 -0.0424
 1272BOLB   C3D30527  12.242  15.971   7.593 -0.1932 -0.1610  0.2347
 1272BOLB   C4D30528  12.012  15.745   7.886 -0.2769 -0.0659  0.1554
 1273BOLB   NC130529  18.345  18.086  10.398  0.1505 -0.2274 -0.0303
 1273BOLB   PO130530  18.649  18.341  10.323 -0.1081 -0.2937  0.2145
 1273BOLB   GL130531  18.839  18.274  10.008 -0.0536 -0.0706  0.1155
 1273BOLB   GL230532  19.191  18.173   9.962  0.0357  0.1585 -0.0593
 1273BOLB   C1A30533  18.847  18.293   9.567  0.0325  0.0944 -0.1134
 1273BOLB   C2A30534  18.519  18.349   9.221 -0.2221  0.0402 -0.2926
 1273BOLB   C3A30535  18.658  18.219   8.869  0.1270  0.0049 -0.2752
 1273BOLB   C4A30536  18.625  18.377   8.475  0.3948  0.0595  0.1956
 1273BOLB   C1B30537  19.396  18.337   9.573  0.2385 -0.2435 -0.1367
 1273BOLB   C2B30538  19.535  18.282   9.168  0.2725 -0.0219  0.0605
 1273BOLB   C3B30539  19.546  18.453   8.721 -0.1214 -0.3350 -0.0622
 1273BOLB   C4B30540  19.634  18.586   8.349  0.0347  0.0540 -0.3179
 1273BOLB   NC230541  17.877  18.839   6.240 -0.1921 -0.0664 -0.0247
 1273BOLB   PO230542  17.619  18.399   6.196  0.0761 -0.0258  0.1132
 1273BOLB   GL330543  17.935  18.300   6.438 -0.2135 -0.0548 -0.1334
 1273BOLB   GL430544  17.948  18.077   6.547 -0.1117 -0.4109  0.0555
 1273BOLB   C1C30545  18.351  18.321   6.817 -0.0546  0.0845  0.2211
 1273BOLB   C2C30546  18.427  18.297   7.264  0.0190  0.2408 -0.2858
 1273BOLB   C3C30547  18.566  18.261   7.633 -0.0975 -0.1632  0.0784
 1273BOLB   C4C30548  18.530  18.482   8.051  0.3178 -0.0875  0.1187
 1273BOLB   C1D30549  17.744  17.776   6.749  0.0704 -0.2783  0.2054
 1273BOLB   C2D30550  17.365  17.985   6.962  0.1209 -0.0065 -0.2416
 1273BOLB   C3D30551  16.993  18.271   6.938  0.1054 -0.1401  0.1180
 1273BOLB   C4D30552  16.991  18.537   7.231  0.0006 -0.1239 -0.0642
 1274BOLB   NC130553  13.667  22.000  11.524 -0.4808 -0.1540  0.3233
 1274BOLB   PO130554  13.550  21.748  11.122  0.0597 -0.1199 -0.5385
 1274BOLB   GL130555  13.493  21.866  10.742  0.1997 -0.1229 -0.0958
 1274BOLB   GL230556  13.238  22.156  10.810  0.0895  0.3253 -0.1783
 1274BOLB   C1A30557  13.509  22.065  10.341 -0.3044  0.3012 -0.2279
 1274BOLB   C2A30558  13.618  22.018   9.864  0.2932 -0.1033  0.1937
 1274BOLB   C3A30559  13.740  21.889   9.472  0.1927 -0.0093 -0.0050
 1274BOLB   C4A30560  14.107  21.826   9.277  0.1487 -0.0485  0.1689
 1274BOLB   C1B30561  13.314  22.510  10.519 -0.0656 -0.0776  0.0895
 1274BOLB   C2B30562  13.568  22.762  10.197 -0.1161  0.0387 -0.1144
 1274BOLB   C3B30563  13.680  23.129  10.026 -0.2387  0.2160  0.0418
 1274BOLB   C4B30564  13.932  23.282   9.729  0.0065  0.0662 -0.0325
 1274BOLB   NC230565  13.813  22.128   7.286 -0.0336  0.1820  0.0431
 1274BOLB   PO230566  13.573  22.556   7.103  0.0714  0.2007  0.0939
 1274BOLB   GL330567  13.704  22.540   7.535 -0.4579  0.3681 -0.2048
 1274BOLB   GL430568  13.622  22.227   7.783 -0.2049 -0.1576 -0.0711
 1274BOLB   C1C30569  13.960  22.492   8.026  0.0765  0.2033 -0.0019
 1274BOLB   C2C30570  14.317  22.317   8.271 -0.1034  0.0719 -0.2457
 1274BOLB   C3C30571  14.496  22.123   8.639  0.1262  0.0049 -0.0449
 1274BOLB   C4C30572  14.275  22.021   9.049  0.1117  0.1113  0.3562
 1274BOLB   C1D30573  13.547  22.106   8.146 -0.3163 -0.5196  0.0685
 1274BOLB   C2D30574  13.682  22.188   8.501  0.0573 -0.2455  0.0429
 1274BOLB   C3D30575  13.997  22.184   8.679  0.0666  0.1850 -0.1371
 1274BOLB   C4D30576  13.840  22.214   9.105  0.2342  0.1436 -0.2212
 1275BOLB   NC130577  19.374  21.751  11.860  0.0021 -0.2075 -0.1551
 1275BOLB   PO130578  19.289  21.626  11.482 -0.0846 -0.1607  0.0769
 1275BOLB   GL130579  19.221  21.556  11.066 -0.0590  0.2577 -0.0785
 1275BOLB   GL230580  19.272  21.196  10.918 -0.1290 -0.0167  0.1291
 1275BOLB   C1A30581  19.089  21.713  10.657  0.0343  0.0955 -0.0400
 1275BOLB   C2A30582  18.894  21.866  10.289 -0.0848 -0.0365  0.2968
 1275BOLB   C3A30583  18.853  22.183  10.009  0.0556  0.1769  0.2170
 1275BOLB   C4A30584  18.589  22.496   9.887  0.3393 -0.0882  0.1250
 1275BOLB   C1B30585  19.497  21.392  10.520 -0.3368  0.2117  0.3224
 1275BOLB   C2B30586  19.376  21.661  10.207 -0.0959  0.0290  0.0602
 1275BOLB   C3B30587  19.409  21.812   9.807 -0.0653 -0.0017  0.1235
 1275BOLB   C4B30588  19.439  22.052   9.459 -0.1558 -0.3645 -0.0787
 1275BOLB   NC230589  18.983  23.770   8.128  0.0286 -0.0163  0.0749
 1275BOLB   PO230590  19.116  24.004   8.488  0.0757 -0.0907 -0.1119
 1275BOLB   GL330591  18.975  23.631   8.704 -0.1231  0.0328  0.1826
 1275BOLB   GL430592  19.270  23.376   8.870 -0.1092 -0.0824  0.0373
 1275BOLB   C1C30593  18.704  23.433   8.991 -0.0983 -0.0700 -0.1715
 1275BOLB   C2C30594  18.531  23.437   9.384 -0.3606 -0.3124  0.1680
 1275BOLB   C3C30595  18.546  23.168   9.612  0.0955  0.1421 -0.0129
 1275BOLB   C4C30596  18.730  22.905   9.790  0.4029  0.3345  0.5365
 1275BOLB   C1D30597  19.260  23.491   9.231 -0.0001 -0.0145  0.3981
 1275BOLB   C2D30598  18.962  23.576   9.593  0.0702  0.1209 -0.2207
 1275BOLB   C3D30599  18.900  23.843   9.966  0.0269 -0.0258  0.3181
 1275BOLB   C4D30600  18.593  23.904  10.272 -0.0549 -0.0034 -0.1107
 1276BOLB   NC130601  19.699  10.367  13.660 -0.0714 -0.2021  0.3959
 1276BOLB   PO130602  19.392  10.567  13.437 -0.0624 -0.1216 -0.2685
 1276BOLB   GL130603  19.624  10.266  13.045 -0.2763 -0.1588 -0.2042
 1276BOLB   GL230604  19.598  10.399  12.797 -0.0038  0.2826 -0.0575
 1276BOLB   C1A30605  19.672   9.975  12.660  0.1233 -0.1567  0.0770
 1276BOLB   C2A30606  19.828   9.525  12.451  0.0002 -0.1828 -0.0444
 1276BOLB   C3A30607  19.918   9.175  12.133  0.0932 -0.2053 -0.0863
 1276BOLB   C4A30608  20.135   8.954  11.735 -0.0502  0.0119 -0.1220
 1276BOLB   C1B30609  20.074  10.286  12.788  0.3063 -0.3432  0.4300
 1276BOLB   C2B30610  20.423  10.125  12.607  0.0554 -0.4837 -0.0950
 1276BOLB   C3B30611  20.682   9.855  12.679 -0.0555 -0.3022 -0.0972
 1276BOLB   C4B30612  20.848   9.492  12.442  0.1450 -0.2657 -0.0748
 1276BOLB   NC230613  21.262   8.299   9.981 -0.1763 -0.1719 -0.0051
 1276BOLB   PO230614  21.114   8.151  10.306  0.4556  0.0868 -0.0029
 1276BOLB   GL330615  20.856   8.116  10.723 -0.0375 -0.1668  0.1243
 1276BOLB   GL430616  20.638   8.336  10.734 -0.2460  0.2651  0.1588
 1276BOLB   C1C30617  20.981   8.252  11.095  0.0851  0.4514 -0.0979
 1276BOLB   C2C30618  20.989   8.275  11.542 -0.4357  0.0315  0.0531
 1276BOLB   C3C30619  20.819   8.623  11.778 -0.0852  0.3621  0.0127
 1276BOLB   C4C30620  20.531   8.950  11.746 -0.1841 -0.2036 -0.3486
 1276BOLB   C1D30621  20.822   8.678  10.979  0.1060 -0.0215  0.0315
 1276BOLB   C2D30622  20.732   9.180  10.883  0.1930 -0.2022  0.4071
 1276BOLB   C3D30623  20.662   9.582  10.897 -0.0240 -0.1662  0.2202
 1276BOLB   C4D30624  20.454   9.942  11.090  0.1498  0.4010  0.0347
 1277BOLB   NC130625   8.485  17.837  13.235  0.1832 -0.3320  0.2986
 1277BOLB   PO130626   8.064  17.827  12.932 -0.2450  0.0624 -0.4105
 1277BOLB   GL130627   7.902  17.937  12.449 -0.0221  0.0583  0.1013
 1277BOLB   GL230628   7.920  17.649  12.299 -0.0984  0.4038 -0.0848
 1277BOLB   C1A30629   7.439  17.908  12.170  0.1621  0.0687 -0.0528
 1277BOLB   C2A30630   7.281  17.589  11.850  0.1121  0.0524  0.0679
 1277BOLB   C3A30631   7.171  17.368  11.461  0.0422  0.2883  0.2865
 1277BOLB   C4A30632   6.965  17.396  11.068 -0.0601  0.0007 -0.2230
 1277BOLB   C1B30633   7.794  17.614  11.897 -0.0403 -0.1369 -0.2604
 1277BOLB   C2B30634   7.764  17.561  11.495 -0.2225  0.2675 -0.1415
 1277BOLB   C3B30635   7.440  17.702  11.183 -0.1165  0.2217 -0.1340
 1277BOLB   C4B30636   7.042  17.869  11.073  0.0539 -0.2558  0.2375
 1277BOLB   NC230637   5.349  17.616   8.876  0.0056 -0.0412  0.0553
 1277BOLB   PO230638   5.265  17.731   9.253  0.3737  0.2898 -0.2189
 1277BOLB   GL330639   5.547  17.860   9.548 -0.1039 -0.0607  0.0523
 1277BOLB   GL430640   5.786  17.747   9.463  0.0728  0.1197 -0.4109
 1277BOLB   C1C30641   5.741  17.850   9.961 -0.5320 -0.0286 -0.1107
 1277BOLB   C2C30642   6.144  17.874  10.259  0.1401 -0.1013 -0.1718
 1277BOLB   C3C30643   6.326  17.687  10.567 -0.2201 -0.0911 -0.1983
 1277BOLB   C4C30644   6.635  17.568  10.832 -0.2386  0.0353 -0.2054
 1277BOLB   C1D30645   5.914  17.324   9.747 -0.0553 -0.1679 -0.0116
 1277BOLB   C2D30646   6.190  17.344  10.039 -0.0234 -0.3167 -0.1041
 1277BOLB   C3D30647   6.625  17.212  10.212 -0.0259 -0.2324  0.0698
 1277BOLB   C4D30648   7.006  17.161  10.473  0.0215 -0.1509  0.0501
 1278BOLB   NC130649  18.196  10.539  12.964  0.0794 -0.3524  0.0577
 1278BOLB   PO130650  17.992  10.721  12.567  0.1046 -0.2599 -0.0626
 1278BOLB   GL130651  18.198  10.749  12.124 -0.0335 -0.0605  0.0342
 1278BOLB   GL230652  18.545  10.655  12.087  0.0456 -0.1201  0.2679
 1278BOLB   C1A30653  18.221  10.641  11.684  0.1770  0.0693  0.1584
 1278BOLB   C2A30654  18.440  10.527  11.390  0.0418 -0.1449  0.1985
 1278BOLB   C3A30655  18.506  10.220  11.154  0.1502  0.2113  0.0224
 1278BOLB   C4A30656  18.555   9.917  10.894 -0.0919  0.2878  0.1999
 1278BOLB   C1B30657  18.581  10.251  11.844 -0.0134 -0.0694 -0.0661
 1278BOLB   C2B30658  18.835  10.138  11.438 -0.1875 -0.0074  0.2437
 1278BOLB   C3B30659  18.989   9.834  11.241 -0.0029  0.5702  0.0617
 1278BOLB   C4B30660  19.083   9.816  10.760 -0.0569 -0.2324 -0.0368
 1278BOLB   NC230661  19.543   8.884   8.931  0.0049  0.0427 -0.1822
 1278BOLB   PO230662  19.411   8.849   9.331  0.1501 -0.0732  0.0223
 1278BOLB   GL330663  19.015   8.940   9.491  0.1294 -0.1305  0.0993
 1278BOLB   GL430664  18.901   9.223   9.379 -0.0898  0.0973  0.2639
 1278BOLB   C1C30665  18.645   9.053   9.765  0.0173 -0.0820 -0.1486
 1278BOLB   C2C30666  18.409   9.409   9.910 -0.2273  0.0958 -0.4503
 1278BOLB   C3C30667  18.451   9.445  10.310  0.1975 -0.0901 -0.3187
 1278BOLB   C4C30668  18.670   9.696  10.489 -0.1019 -0.1820  0.3925
 1278BOLB   C1D30669  18.512   9.385   9.441  0.2043 -0.1169 -0.2066
 1278BOLB   C2D30670  18.132   9.550   9.492 -0.0562 -0.0438 -0.1518
 1278BOLB   C3D30671  17.889   9.617   9.862 -0.2348 -0.0742  0.3041
 1278BOLB   C4D30672  17.555   9.806   9.993  0.0058  0.3442  0.0223
 1279BOLB   NC130673  11.412  13.086  11.228  0.1086 -0.2382  0.0604
 1279BOLB   PO130674  11.584  12.984  10.799  0.1287  0.2019 -0.2370
 1279BOLB   GL130675  11.627  12.954  10.381  0.0672  0.1396  0.1288
 1279BOLB   GL230676  11.621  13.165  10.168 -0.3431  0.3055  0.1350
 1279BOLB   C1A30677  11.586  12.630  10.028  0.0357  0.4185 -0.2461
 1279BOLB   C2A30678  11.276  12.343   9.765  0.0850  0.0948 -0.0349
 1279BOLB   C3A30679  11.232  12.425   9.256 -0.0840  0.0694 -0.0922
 1279BOLB   C4A30680  11.218  12.715   8.835 -0.1419 -0.0097  0.2130
 1279BOLB   C1B30681  11.267  13.429   9.961  0.0148  0.2785  0.1310
 1279BOLB   C2B30682  11.196  13.287   9.656 -0.3110  0.0453  0.1635
 1279BOLB   C3B30683  11.158  13.397   9.236 -0.0115  0.0937 -0.0893
 1279BOLB   C4B30684  11.336  13.169   8.931  0.2263  0.0088  0.2027
 1279BOLB   NC230685  10.940  12.607   6.207  0.2790  0.2867  0.0027
 1279BOLB   PO230686  10.869  12.966   6.533  0.1480 -0.1043  0.1770
 1279BOLB   GL330687  10.916  13.047   6.922 -0.0559  0.0482 -0.1626
 1279BOLB   GL430688  11.175  12.947   7.106 -0.0049  0.3399 -0.2636
 1279BOLB   C1C30689  10.791  12.901   7.412 -0.0676  0.0990  0.2126
 1279BOLB   C2C30690  10.981  12.894   7.874 -0.1589  0.1770  0.1135
 1279BOLB   C3C30691  10.804  13.024   8.228  0.0997 -0.1041  0.3314
 1279BOLB   C4C30692  10.954  12.897   8.628  0.0494  0.2344  0.2805
 1279BOLB   C1D30693  11.378  13.384   7.086 -0.2372 -0.2615 -0.1028
 1279BOLB   C2D30694  11.562  13.759   7.236  0.1453 -0.2641 -0.0808
 1279BOLB   C3D30695  11.669  14.002   7.438 -0.1386 -0.1138  0.1220
 1279BOLB   C4D30696  11.856  14.450   7.449  0.0257 -0.2630 -0.2050
 1280BOLB   NC130697  15.537  14.329  10.868  0.0534  0.2023 -0.1484
 1280BOLB   PO130698  15.827  14.534  10.547 -0.0958  0.2023  0.2369
 1280BOLB   GL130699  15.842  14.297  10.184 -0.2720 -0.3366 -0.0305
 1280BOLB   GL230700  16.081  14.080  10.118 -0.2638 -0.1255  0.0881
 1280BOLB   C1A30701  15.896  14.392   9.728  0.0367  0.0556  0.0364
 1280BOLB   C2A30702  15.944  14.168   9.260  0.3973 -0.2030  0.1397
 1280BOLB   C3A30703  16.193  14.012   8.916 -0.0101 -0.0798 -0.1315
 1280BOLB   C4A30704  16.310  13.810   8.570  0.1321  0.0501  0.0932
 1280BOLB   C1B30705  16.264  13.857   9.835 -0.1382  0.2530 -0.0333
 1280BOLB   C2B30706  16.227  13.536   9.639  0.0746 -0.1305 -0.1875
 1280BOLB   C3B30707  16.302  13.390   9.305 -0.3832  0.0202 -0.1019
 1280BOLB   C4B30708  16.457  13.548   8.937  0.2682  0.2205 -0.2394
 1280BOLB   NC230709  16.346  13.654   6.246  0.0315  0.2627 -0.1849
 1280BOLB   PO230710  16.723  13.656   6.281  0.2680 -0.2484  0.0502
 1280BOLB   GL330711  16.600  13.568   6.684 -0.0001  0.3765 -0.2964
 1280BOLB   GL430712  16.287  13.545   6.750 -0.1070 -0.2660  0.3941
 1280BOLB   C1C30713  16.519  13.304   7.164  0.2753  0.2041  0.0503
 1280BOLB   C2C30714  16.250  13.153   7.452  0.5298 -0.1550 -0.1943
 1280BOLB   C3C30715  16.332  13.362   7.830  0.0550 -0.1378 -0.2706
 1280BOLB   C4C30716  16.297  13.532   8.253 -0.4211 -0.0295  0.0216
 1280BOLB   C1D30717  16.448  13.802   7.110  0.1799 -0.3401 -0.0984
 1280BOLB   C2D30718  16.354  14.121   7.410 -0.0337 -0.0712  0.0712
 1280BOLB   C3D30719  16.193  14.310   7.717  0.1130  0.2241  0.2401
 1280BOLB   C4D30720  16.103  14.797   7.578  0.2419  0.0907 -0.1534
 1281BOLB   NC130721   9.469  22.633  12.090 -0.0429  0.0498 -0.0595
 1281BOLB   PO130722   9.799  22.941  12.194 -0.0993 -0.2082 -0.1471
 1281BOLB   GL130723   9.878  23.012  11.773 -0.1985  0.0189  0.3721
 1281BOLB   GL230724   9.727  23.217  11.635  0.1387 -0.0316 -0.1853
 1281BOLB   C1A30725  10.132  23.081  11.391  0.2797  0.0518 -0.1616
 1281BOLB   C2A30726   9.999  23.281  11.018 -0.0934 -0.1202 -0.1367
 1281BOLB   C3A30727   9.919  23.198  10.561  0.0615 -0.0657 -0.0738
 1281BOLB   C4A30728   9.938  23.518  10.210 -0.1228 -0.2014  0.0121
 1281BOLB   C1B30729   9.815  23.588  11.414 -0.1291 -0.1284 -0.0047
 1281BOLB   C2B30730  10.035  23.971  11.202  0.0963 -0.3037  0.1440
 1281BOLB   C3B30731  10.307  24.179  10.865  0.1177 -0.0769 -0.2436
 1281BOLB   C4B30732  10.599  24.033  10.580  0.1589  0.2441  0.1612
 1281BOLB   NC230733   9.142  23.468   7.613  0.3419 -0.0243  0.0182
 1281BOLB   PO230734   9.423  23.280   7.799 -0.1317 -0.0834 -0.0502
 1281BOLB   GL330735   9.595  23.506   8.205 -0.1616  0.3663 -0.0415
 1281BOLB   GL430736   9.772  23.347   8.348 -0.1444  0.2515 -0.2128
 1281BOLB   C1C30737   9.578  23.713   8.718 -0.1957 -0.1605 -0.2700
 1281BOLB   C2C30738   9.727  23.684   9.190 -0.1114 -0.2614 -0.2710
 1281BOLB   C3C30739   9.586  23.635   9.622 -0.1495 -0.2411 -0.4389
 1281BOLB   C4C30740   9.932  23.791   9.911  0.0350 -0.1925  0.3129
 1281BOLB   C1D30741   9.502  23.163   8.644 -0.2139 -0.2900 -0.0718
 1281BOLB   C2D30742   9.620  23.074   9.048 -0.1247  0.1470  0.2302
 1281BOLB   C3D30743   9.692  23.135   9.474 -0.2412 -0.4852 -0.0426
 1281BOLB   C4D30744   9.688  23.236   9.839  0.2427  0.0828  0.0556
 1282BOLB   NC130745  15.099  20.224  10.352 -0.2486 -0.1511  0.0054
 1282BOLB   PO130746  14.851  20.504  10.647 -0.2445  0.0030  0.0451
 1282BOLB   GL130747  14.678  20.755  10.300  0.1841  0.0228  0.1798
 1282BOLB   GL230748  14.803  20.581  10.014 -0.1464 -0.0367 -0.0226
 1282BOLB   C1A30749  14.513  21.021   9.995 -0.0322  0.2318  0.2158
 1282BOLB   C2A30750  14.696  21.419   9.960 -0.4764 -0.1224  0.0164
 1282BOLB   C3A30751  14.930  21.662   9.665  0.1993 -0.1661  0.0162
 1282BOLB   C4A30752  15.059  21.995   9.458  0.2372 -0.4394 -0.1527
 1282BOLB   C1B30753  15.102  20.563   9.710  0.0292  0.0138  0.0374
 1282BOLB   C2B30754  15.044  20.407   9.342 -0.0281 -0.3993  0.0786
 1282BOLB   C3B30755  14.803  20.215   8.927  0.1431 -0.2519 -0.0231
 1282BOLB   C4B30756  14.749  20.259   8.514  0.0192  0.0431 -0.1595
 1282BOLB   NC230757  14.626  22.698   7.359  0.1339 -0.1685 -0.1929
 1282BOLB   PO230758  15.055  22.883   7.524  0.1157  0.0330 -0.3788
 1282BOLB   GL330759  14.859  22.849   7.828 -0.0066  0.2681  0.1246
 1282BOLB   GL430760  15.074  22.778   8.084 -0.2873  0.1327 -0.1316
 1282BOLB   C1C30761  14.571  22.703   8.171  0.1113 -0.0596  0.2634
 1282BOLB   C2C30762  14.614  22.607   8.600 -0.1524  0.0054  0.1931
 1282BOLB   C3C30763  15.102  22.606   8.801 -0.0423 -0.0158 -0.3118
 1282BOLB   C4C30764  15.117  22.433   9.152  0.0781  0.3229  0.1546
 1282BOLB   C1D30765  15.555  22.889   8.136 -0.1524  0.2119 -0.2327
 1282BOLB   C2D30766  15.899  23.019   8.373  0.0020 -0.0451 -0.0391
 1282BOLB   C3D30767  16.185  22.700   8.548 -0.0466  0.0392 -0.2132
 1282BOLB   C4D30768  16.004  22.317   8.807 -0.2715 -0.3083 -0.0745
 1283BOLB   NC130769  15.979  18.960  10.697 -0.2006 -0.0874  0.2431
 1283BOLB   PO130770  15.842  18.594  10.390 -0.4167  0.1321  0.2551
 1283BOLB   GL130771  16.019  18.525   9.883  0.2997 -0.1870  0.0902
 1283BOLB   GL230772  15.893  18.822   9.852  0.0227  0.1618  0.1137
 1283BOLB   C1A30773  15.920  18.571   9.415 -0.1003  0.2894 -0.0781
 1283BOLB   C2A30774  15.752  18.586   8.946 -0.0924 -0.0189 -0.1346
 1283BOLB   C3A30775  15.673  18.586   8.482 -0.3912  0.1744 -0.1774
 1283BOLB   C4A30776  15.594  18.807   8.044  0.0340 -0.3520  0.1158
 1283BOLB   C1B30777  16.210  18.913   9.538 -0.3342 -0.0919 -0.0579
 1283BOLB   C2B30778  16.322  18.949   9.020  0.1101 -0.1323 -0.0354
 1283BOLB   C3B30779  16.599  19.147   8.601 -0.1382  0.0342  0.5000
 1283BOLB   C4B30780  16.929  19.362   8.310 -0.0505  0.1564  0.3560
 1283BOLB   NC230781  15.542  20.353   6.393 -0.0693  0.0822 -0.0368
 1283BOLB   PO230782  15.891  20.446   6.666 -0.0053 -0.2783 -0.1956
 1283BOLB   GL330783  15.948  20.392   7.053  0.5745  0.1602  0.1409
 1283BOLB   GL430784  16.126  20.627   7.386  0.0552 -0.4894  0.1370
 1283BOLB   C1C30785  15.636  20.408   7.345  0.0571  0.0193  0.1097
 1283BOLB   C2C30786  15.428  19.932   7.596  0.2774  0.2715  0.3661
 1283BOLB   C3C30787  15.296  19.500   7.646  0.0853 -0.0003  0.1461
 1283BOLB   C4C30788  15.358  19.154   7.895  0.2792 -0.2498 -0.1883
 1283BOLB   C1D30789  16.215  20.747   7.856  0.0408 -0.2074 -0.1461
 1283BOLB   C2D30790  16.032  20.404   8.151 -0.4513  0.1833 -0.3729
 1283BOLB   C3D30791  15.654  20.078   8.144 -0.1280  0.5182 -0.4301
 1283BOLB   C4D30792  15.326  19.732   8.121  0.1061 -0.0572 -0.0932
 1284BOLB   NC130793  15.269   8.674  13.841  0.1696 -0.1044 -0.0526
 1284BOLB   PO130794  15.253   8.215  13.682  0.1246  0.0302 -0.1320
 1284BOLB   GL130795  15.415   7.864  13.435 -0.0728 -0.1235 -0.2481
 1284BOLB   GL230796  15.259   7.717  13.297  0.0090  0.2014  0.1837
 1284BOLB   C1A30797  15.825   7.695  13.269 -0.0026  0.4406  0.2740
 1284BOLB   C2A30798  16.244   7.628  13.265  0.2409 -0.0895 -0.1197
 1284BOLB   C3A30799  16.555   7.458  13.100 -0.1126  0.0811  0.1482
 1284BOLB   C4A30800  17.050   7.302  13.114  0.0353  0.3798  0.2940
 1284BOLB   C1B30801  15.447   7.409  13.229 -0.0024  0.0240  0.0038
 1284BOLB   C2B30802  15.716   7.176  13.028  0.1929  0.3149 -0.2091
 1284BOLB   C3B30803  15.680   7.236  12.656  0.3730  0.1638  0.3457
 1284BOLB   C4B30804  15.862   7.292  12.222  0.2057  0.0162  0.0431
 1284BOLB   NC230805  18.502   5.836  12.300  0.1629 -0.1209 -0.2881
 1284BOLB   PO230806  18.220   5.608  12.022  0.1578 -0.2379  0.2656
 1284BOLB   GL330807  17.883   5.844  12.189  0.3093 -0.1146 -0.2107
 1284BOLB   GL430808  17.865   5.504  12.361 -0.1680 -0.2889 -0.0518
 1284BOLB   C1C30809  17.642   6.164  12.343  0.3656  0.0507 -0.0280
 1284BOLB   C2C30810  17.329   6.268  12.682 -0.0646  0.3239  0.3128
 1284BOLB   C3C30811  17.138   6.582  12.873  0.0967 -0.1072 -0.3210
 1284BOLB   C4C30812  17.234   6.994  12.957 -0.1382  0.1301 -0.0699
 1284BOLB   C1D30813  17.789   5.806  12.735  0.0056 -0.1012 -0.1485
 1284BOLB   C2D30814  17.636   5.935  13.076  0.2466 -0.1546  0.0956
 1284BOLB   C3D30815  17.270   6.265  13.341 -0.1400 -0.0466 -0.1183
 1284BOLB   C4D30816  16.992   6.379  13.619 -0.1536  0.0276 -0.3412
 1285BOLB   NC130817  12.077  25.250  14.332  0.3636 -0.0758  0.1984
 1285BOLB   PO130818  11.815  25.309  13.911  0.0111  0.1427  0.1497
 1285BOLB   GL130819  11.843  25.551  13.655 -0.1036  0.1245 -0.2148
 1285BOLB   GL230820  11.524  25.827  13.491  0.0862  0.5128 -0.0435
 1285BOLB   C1A30821  12.112  25.656  13.287  0.0453  0.2191 -0.0603
 1285BOLB   C2A30822  12.450  25.845  12.885 -0.0078  0.0557  0.1595
 1285BOLB   C3A30823  12.580  26.121  12.544 -0.1495  0.0126  0.0023
 1285BOLB   C4A30824  12.510  26.389  12.192  0.0562  0.2049 -0.0026
 1285BOLB   C1B30825  11.843  26.044  13.329 -0.2185 -0.1440 -0.2154
 1285BOLB   C2B30826  12.150  26.194  13.156 -0.4291 -0.0306 -0.3209
 1285BOLB   C3B30827  12.424  26.442  12.891 -0.4250 -0.0236 -0.2607
 1285BOLB   C4B30828  12.834  26.552  12.661  0.0632  0.2056 -0.0934
 1285BOLB   NC230829  13.063  28.426  10.288 -0.1414 -0.0176  0.1851
 1285BOLB   PO230830  12.738  28.092  10.499  0.0600  0.0453 -0.0304
 1285BOLB   GL330831  12.634  27.953  10.915  0.0927 -0.2949 -0.3198
 1285BOLB   GL430832  12.879  28.072  11.055  0.0090 -0.2519  0.0385
 1285BOLB   C1C30833  12.479  27.915  11.248 -0.3187  0.0926  0.2216
 1285BOLB   C2C30834  12.271  27.612  11.579  0.0335  0.1618 -0.1986
 1285BOLB   C3C30835  12.286  27.222  11.797  0.0995 -0.0114 -0.0303
 1285BOLB   C4C30836  12.332  26.858  12.023 -0.0565  0.0129  0.3464
 1285BOLB   C1D30837  12.846  27.545  11.159 -0.1254 -0.0032  0.3488
 1285BOLB   C2D30838  12.842  27.147  11.043  0.1756 -0.0701 -0.2235
 1285BOLB   C3D30839  12.848  26.723  10.961 -0.1338  0.0834  0.2042
 1285BOLB   C4D30840  13.088  26.340  11.043 -0.0507 -0.1904 -0.3029
 1286BOLB   NC130841  21.074  11.054  15.071 -0.1685 -0.4253 -0.0165
 1286BOLB   PO130842  21.317  10.625  15.072  0.4857  0.2052  0.2906
 1286BOLB   GL130843  21.531  10.444  14.849 -0.2657  0.1085  0.1278
 1286BOLB   GL230844  21.654  10.523  14.570  0.1717 -0.0544 -0.5477
 1286BOLB   C1A30845  21.827  10.111  14.861 -0.1564  0.2362  0.3289
 1286BOLB   C2A30846  22.039   9.732  14.663  0.1312  0.1815  0.0500
 1286BOLB   C3A30847  21.963   9.632  14.241  0.1125  0.3845  0.0211
 1286BOLB   C4A30848  21.962   9.280  14.172 -0.2994  0.0147 -0.2099
 1286BOLB   C1B30849  21.857  10.074  14.345  0.1506 -0.1041 -0.3151
 1286BOLB   C2B30850  21.642   9.894  13.969 -0.2005 -0.3094 -0.1128
 1286BOLB   C3B30851  21.742   9.971  13.557  0.1585 -0.1886 -0.0174
 1286BOLB   C4B30852  22.090  10.039  13.336 -0.0407 -0.1505  0.0578
 1286BOLB   NC230853  23.164   7.823  13.308 -0.0239  0.3943 -0.1231
 1286BOLB   PO230854  23.088   7.557  13.010  0.0605 -0.4608  0.3249
 1286BOLB   GL330855  22.678   7.737  13.267 -0.4516  0.2224  0.0548
 1286BOLB   GL430856  22.359   7.610  13.135 -0.0053  0.1622  0.3031
 1286BOLB   C1C30857  22.499   8.028  13.428 -0.2584 -0.4627 -0.2125
 1286BOLB   C2C30858  22.184   8.348  13.558 -0.0219 -0.0902  0.0786
 1286BOLB   C3C30859  22.150   8.563  14.019  0.0329 -0.0480  0.0213
 1286BOLB   C4C30860  21.942   8.933  14.180 -0.0145 -0.1592 -0.1383
 1286BOLB   C1D30861  22.172   8.113  13.002 -0.0590  0.0766  0.3939
 1286BOLB   C2D30862  22.065   8.487  13.066  0.1254 -0.2271 -0.3861
 1286BOLB   C3D30863  22.247   8.885  13.411 -0.0332  0.4566 -0.2311
 1286BOLB   C4D30864  22.015   9.051  13.724  0.0680 -0.2434  0.0269
 1287BOLB   NC130865  11.653   7.750  12.898  0.1764  0.1030  0.1465
 1287BOLB   PO130866  11.200   7.727  12.868  0.1085  0.5006 -0.2121
 1287BOLB   GL130867  11.185   7.739  12.355 -0.1141  0.0137  0.2192
 1287BOLB   GL230868  11.035   7.972  12.140 -0.0017 -0.2110  0.0559
 1287BOLB   C1A30869  11.584   7.580  12.268  0.3134 -0.3817  0.1920
 1287BOLB   C2A30870  11.941   7.506  11.977  0.1875 -0.1173 -0.1486
 1287BOLB   C3A30871  12.044   7.139  11.676  0.1170 -0.2155 -0.2663
 1287BOLB   C4A30872  11.905   7.023  11.191  0.1009  0.0689  0.0357
 1287BOLB   C1B30873  10.975   8.060  11.675  0.0033 -0.2064 -0.1932
 1287BOLB   C2B30874  10.998   7.889  11.213 -0.1349 -0.1959 -0.1226
 1287BOLB   C3B30875  11.041   7.646  10.805  0.1861  0.0946 -0.1435
 1287BOLB   C4B30876  10.810   7.466  10.447  0.0575  0.1144  0.1489
 1287BOLB   NC230877  12.384   5.789   9.100 -0.1992 -0.1218 -0.2167
 1287BOLB   PO230878  12.790   5.930   9.223  0.0399 -0.1455  0.2909
 1287BOLB   GL330879  12.792   6.048   9.615 -0.2216  0.0381 -0.1986
 1287BOLB   GL430880  12.849   6.338   9.608 -0.4941 -0.1874 -0.2749
 1287BOLB   C1C30881  12.459   6.177   9.920 -0.0925  0.0331  0.0459
 1287BOLB   C2C30882  12.126   6.347  10.196 -0.2416  0.0886 -0.1055
 1287BOLB   C3C30883  11.894   6.384  10.632 -0.0637  0.2261 -0.0015
 1287BOLB   C4C30884  11.830   6.621  10.989  0.0342  0.2852  0.1562
 1287BOLB   C1D30885  13.002   6.497  10.042  0.0838 -0.2698  0.1716
 1287BOLB   C2D30886  13.086   6.876  10.272  0.0817  0.0070 -0.4301
 1287BOLB   C3D30887  13.386   7.121  10.388  0.3364  0.1858 -0.1156
 1287BOLB   C4D30888  13.436   7.438  10.599 -0.0391 -0.5581 -0.3184
 1288BOLB   NC130889  19.630  11.190  13.337  0.0467  0.1105  0.0131
 1288BOLB   PO130890  19.741  11.388  13.023  0.2004  0.2276 -0.0190
 1288BOLB   GL130891  19.900  11.048  12.851  0.3286 -0.1288  0.0746
 1288BOLB   GL230892  20.162  10.926  12.946 -0.2986  0.2717  0.1277
 1288BOLB   C1A30893  19.862  10.790  12.508 -0.0492 -0.2361 -0.1371
 1288BOLB   C2A30894  19.867  10.385  12.314 -0.1477 -0.2905 -0.1474
 1288BOLB   C3A30895  20.039   9.966  12.287  0.1031 -0.3673 -0.2646
 1288BOLB   C4A30896  20.482   9.861  12.170 -0.0680 -0.2494  0.0679
 1288BOLB   C1B30897  20.307  10.681  12.701 -0.3001 -0.1246  0.0545
 1288BOLB   C2B30898  20.348  10.475  12.309 -0.0339 -0.0023 -0.0207
 1288BOLB   C3B30899  20.671  10.365  12.173 -0.2307 -0.0544  0.4304
 1288BOLB   C4B30900  20.964  10.526  11.954 -0.1418  0.2404 -0.1899
 1288BOLB   NC230901  21.718   8.047  11.145  0.2995 -0.0049 -0.0652
 1288BOLB   PO230902  22.000   8.365  11.114 -0.3192  0.0874 -0.1952
 1288BOLB   GL330903  21.723   8.604  11.303  0.0236  0.0913 -0.0687
 1288BOLB   GL430904  22.005   8.765  11.466 -0.0693 -0.1983 -0.2807
 1288BOLB   C1C30905  21.348   8.773  11.365  0.0829  0.1628  0.0306
 1288BOLB   C2C30906  20.993   9.011  11.491 -0.3098  0.1776  0.0633
 1288BOLB   C3C30907  20.913   9.352  11.811 -0.0491  0.0836  0.2611
 1288BOLB   C4C30908  20.794   9.565  11.958  0.0929  0.0763 -0.0256
 1288BOLB   C1D30909  21.736   8.820  11.767 -0.1597 -0.2127  0.1849
 1288BOLB   C2D30910  21.760   9.097  12.115  0.0442  0.3028 -0.2773
 1288BOLB   C3D30911  21.831   9.532  12.156  0.0987 -0.1016 -0.1057
 1288BOLB   C4D30912  21.922   9.878  11.801  0.0751 -0.4877  0.2597
 1289BOLB   NC130913  15.502  20.747  11.172 -0.0215 -0.3594  0.3389
 1289BOLB   PO130914  15.887  20.740  10.883  0.2983 -0.1554  0.1105
 1289BOLB   GL130915  15.698  21.004  10.584  0.1639 -0.1453  0.2297
 1289BOLB   GL230916  15.582  21.277  10.596  0.1241  0.1362  0.3000
 1289BOLB   C1A30917  15.632  21.042  10.133 -0.4957  0.0374 -0.0774
 1289BOLB   C2A30918  15.512  21.203   9.730 -0.0556  0.3507 -0.1151
 1289BOLB   C3A30919  15.320  21.450   9.438  0.1617 -0.0203 -0.1568
 1289BOLB   C4A30920  15.227  21.573   9.072  0.0792 -0.2480  0.0738
 1289BOLB   C1B30921  15.722  21.617  10.408 -0.3998 -0.0272  0.0269
 1289BOLB   C2B30922  15.824  21.907  10.092  0.1052  0.0479  0.4378
 1289BOLB   C3B30923  15.942  22.140   9.787 -0.2176 -0.0944 -0.0353
 1289BOLB   C4B30924  16.104  22.482   9.514  0.3290 -0.0971  0.3045
 1289BOLB   NC230925  15.104  21.181   6.814  0.1647 -0.0337  0.5062
 1289BOLB   PO230926  15.517  21.318   6.799  0.0308 -0.0149  0.0588
 1289BOLB   GL330927  15.380  21.219   7.189  0.1478  0.1983  0.3437
 1289BOLB   GL430928  15.370  20.818   7.111  0.3044 -0.1033 -0.2275
 1289BOLB   C1C30929  15.036  21.259   7.473  0.1468 -0.1559 -0.0118
 1289BOLB   C2C30930  14.892  21.421   7.823 -0.3800 -0.1196  0.2082
 1289BOLB   C3C30931  15.056  21.461   8.268 -0.3875  0.0600 -0.0150
 1289BOLB   C4C30932  15.243  21.533   8.661 -0.2755 -0.4365 -0.0207
 1289BOLB   C1D30933  15.322  20.810   7.547 -0.0723  0.3647 -0.0069
 1289BOLB   C2D30934  15.129  21.051   7.951  0.3469  0.2688  0.1497
 1289BOLB   C3D30935  14.870  20.949   8.337  0.1362  0.1237  0.1986
 1289BOLB   C4D30936  14.404  21.082   8.554  0.2604  0.3331 -0.0948
 1290BOLB   NC130937  12.176  16.440  10.083 -0.0421  0.1288 -0.1261
 1290BOLB   PO130938  11.831  16.778  10.004  0.1466  0.0691  0.1802
 1290BOLB   GL130939  11.594  16.832   9.651 -0.4007  0.2195 -0.0962
 1290BOLB   GL230940  11.786  16.953   9.452  0.3078  0.3343 -0.1264
 1290BOLB   C1A30941  11.342  16.708   9.280  0.0391 -0.0556 -0.1883
 1290BOLB   C2A30942  11.218  16.771   8.886 -0.0166 -0.0884  0.1250
 1290BOLB   C3A30943  11.044  16.564   8.512  0.1864 -0.0287  0.1646
 1290BOLB   C4A30944  10.852  16.469   8.180  0.3502 -0.0338  0.3038
 1290BOLB   C1B30945  11.902  16.683   9.091  0.2312  0.1686 -0.1053
 1290BOLB   C2B30946  12.132  16.441   8.752  0.3380 -0.3532 -0.0765
 1290BOLB   C3B30947  12.342  16.378   8.444  0.2599 -0.0141 -0.2361
 1290BOLB   C4B30948  12.280  16.710   8.090  0.1036 -0.1688 -0.0399
 1290BOLB   NC230949  11.825  17.615   5.842  0.0945 -0.2479  0.1050
 1290BOLB   PO230950  11.630  17.306   6.089 -0.1192  0.4588 -0.0854
 1290BOLB   GL330951  11.591  17.051   6.449 -0.2469 -0.0437  0.3676
 1290BOLB   GL430952  11.725  16.843   6.384 -0.0565  0.3335 -0.0865
 1290BOLB   C1C30953  11.515  16.997   6.867  0.0676  0.0358  0.0537
 1290BOLB   C2C30954  11.033  16.788   6.960 -0.2778  0.2582  0.0046
 1290BOLB   C3C30955  10.932  16.510   7.229 -0.0815  0.1002 -0.2126
 1290BOLB   C4C30956  11.042  16.488   7.726 -0.1522 -0.2881 -0.0331
 1290BOLB   C1D30957  11.998  16.587   6.643  0.2461  0.1638  0.0560
 1290BOLB   C2D30958  12.302  16.599   6.941 -0.0534  0.4371 -0.3837
 1290BOLB   C3D30959  12.550  16.641   7.316 -0.2247  0.1280 -0.0591
 1290BOLB   C4D30960  12.505  16.395   7.656 -0.0166  0.1178  0.0163
 1291BOLB   NC130961  21.801  12.023  14.391 -0.3387 -0.0408  0.2837
 1291BOLB   PO130962  21.756  12.331  14.019  0.0947  0.0104 -0.0100
 1291BOLB   GL130963  21.940  11.898  13.851  0.0414 -0.2342  0.1959
 1291BOLB   GL230964  21.745  11.839  13.720  0.2609  0.0399 -0.2578
 1291BOLB   C1A30965  22.351  11.790  13.925  0.2236 -0.0364  0.0858
 1291BOLB   C2A30966  22.540  11.397  13.691 -0.1197  0.2754  0.2760
 1291BOLB   C3A30967  22.639  11.060  13.390  0.0707  0.2141 -0.1666
 1291BOLB   C4A30968  22.583  10.672  13.257 -0.1172 -0.1868  0.2659
 1291BOLB   C1B30969  22.146  11.736  13.442  0.0659 -0.2553  0.0245
 1291BOLB   C2B30970  22.538  11.678  13.257 -0.4716  0.1485  0.1914
 1291BOLB   C3B30971  22.650  11.246  12.937 -0.0008  0.1841 -0.2556
 1291BOLB   C4B30972  22.862  11.117  12.577  0.3392  0.1330  0.2409
 1291BOLB   NC230973  22.718   8.179  12.501 -0.1726  0.0964  0.2650
 1291BOLB   PO230974  22.997   8.476  12.294 -0.3181  0.3215 -0.2387
 1291BOLB   GL330975  22.871   8.800  12.437 -0.0111 -0.1907  0.0274
 1291BOLB   GL430976  22.545   8.709  12.585 -0.1693 -0.2898 -0.1566
 1291BOLB   C1C30977  22.746   9.230  12.510 -0.1009 -0.3712  0.0954
 1291BOLB   C2C30978  22.664   9.501  12.789 -0.0210  0.1833 -0.2022
 1291BOLB   C3C30979  22.487   9.792  13.097  0.1846 -0.0372  0.2561
 1291BOLB   C4C30980  22.510  10.270  13.231  0.0570 -0.0419 -0.1119
 1291BOLB   C1D30981  22.508   8.906  12.958  0.2967  0.1637  0.2644
 1291BOLB   C2D30982  22.451   9.255  13.226  0.3758 -0.0469 -0.2832
 1291BOLB   C3D30983  22.379   9.435  13.580 -0.2251 -0.1172 -0.0258
 1291BOLB   C4D30984  22.229   9.722  13.758  0.1200 -0.1540 -0.0545
 1292BOLB   NC130985  10.123  11.958  11.858 -0.3833  0.1836 -0.0065
 1292BOLB   PO130986  10.065  11.891  11.428 -0.2511 -0.0590 -0.4431
 1292BOLB   GL130987   9.978  11.826  11.045 -0.0863  0.1405  0.0650
 1292BOLB   GL230988  10.164  11.904  10.758  0.2011 -0.0597 -0.0782
 1292BOLB   C1A30989   9.880  11.522  10.700 -0.1287 -0.0005  0.1778
 1292BOLB   C2A30990  10.140  11.475  10.328  0.1518 -0.1841 -0.1549
 1292BOLB   C3A30991  10.294  11.214  10.038 -0.0858  0.1074  0.3236
 1292BOLB   C4A30992  10.292  11.325   9.696 -0.0873  0.1628 -0.0125
 1292BOLB   C1B30993  10.270  11.995  10.269 -0.0705 -0.1549 -0.0703
 1292BOLB   C2B30994  10.304  11.820   9.840  0.1650  0.4199  0.2057
 1292BOLB   C3B30995  10.601  11.693   9.441 -0.0318  0.2035  0.1489
 1292BOLB   C4B30996  10.548  11.436   9.025  0.0142 -0.0088  0.0647
 1292BOLB   NC230997  10.493  10.884   7.424  0.4199  0.0019  0.0105
 1292BOLB   PO230998  10.592  11.271   7.472  0.1188  0.4348  0.0865
 1292BOLB   GL330999  10.709  11.244   7.798  0.1918  0.0989 -0.0109
 1292BOLB   GL431000  10.828  10.974   7.770 -0.0993  0.3148 -0.2470
 1292BOLB   C1C31001  10.651  11.209   8.231  0.0801 -0.2303  0.0258
 1292BOLB   C2C31002  10.527  11.107   8.639 -0.0339  0.2297  0.2439
 1292BOLB   C3C31003  10.621  10.940   9.035 -0.1523 -0.1153  0.0357
 1292BOLB   C4C31004  10.500  11.057   9.363 -0.2556 -0.3325  0.4031
 1292BOLB   C1D31005  10.969  10.830   8.194 -0.0961  0.1497 -0.0276
 1292BOLB   C2D31006  11.241  10.515   8.496  0.0028  0.5159  0.0993
 1292BOLB   C3D31007  11.609  10.201   8.429  0.2187 -0.1381  0.0505
 1292BOLB   C4D31008  11.809  10.235   7.988  0.0146 -0.1723 -0.1277
 1293BOLB   NC131009   8.723  22.563  12.544  0.1222  0.2924  0.3295
 1293BOLB   PO131010   9.112  22.521  12.469 -0.2546  0.0270 -0.0698
 1293BOLB   GL131011   9.019  22.373  12.023  0.2355 -0.0341 -0.0786
 1293BOLB   GL231012   9.039  22.594  11.958 -0.0856 -0.0160  0.1610
 1293BOLB   C1A31013   8.819  22.186  11.625 -0.3290  0.0405 -0.0862
 1293BOLB   C2A31014   8.480  22.105  11.337  0.0777 -0.0536 -0.1075
 1293BOLB   C3A31015   8.095  22.184  11.003 -0.1206  0.0332  0.0367
 1293BOLB   C4A31016   7.835  22.421  10.560 -0.1348 -0.1391  0.1298
 1293BOLB   C1B31017   8.971  22.657  11.538 -0.1678  0.1395 -0.0734
 1293BOLB   C2B31018   8.712  22.537  11.209  0.0715  0.0841  0.0164
 1293BOLB   C3B31019   8.361  22.634  11.051 -0.1727  0.0924  0.1088
 1293BOLB   C4B31020   8.234  22.618  10.667 -0.2709 -0.1494  0.1803
 1293BOLB   NC231021   8.304  23.330   8.326  0.2565 -0.2283  0.0248
 1293BOLB   PO231022   8.566  23.523   8.329 -0.0043  0.2093  0.1671
 1293BOLB   GL331023   8.613  23.336   8.754  0.2487 -0.2418  0.3161
 1293BOLB   GL431024   8.859  23.508   8.949  0.2941  0.4469 -0.1509
 1293BOLB   C1C31025   8.460  23.201   9.125 -0.0530 -0.1732 -0.1610
 1293BOLB   C2C31026   8.335  23.043   9.621  0.1492  0.3579 -0.0518
 1293BOLB   C3C31027   7.972  22.913   9.961 -0.0392 -0.1685 -0.1832
 1293BOLB   C4C31028   7.938  22.722  10.272  0.3444  0.1859 -0.0528
 1293BOLB   C1D31029   9.062  23.079   9.000 -0.0927 -0.1303 -0.2528
 1293BOLB   C2D31030   9.255  22.703   8.994  0.1137  0.0056  0.2322
 1293BOLB   C3D31031   9.676  22.625   9.266 -0.1483  0.2386  0.0190
 1293BOLB   C4D31032  10.069  22.472   9.157 -0.0276  0.3605 -0.1012
 1294BOLB   NC131033  13.292  13.424  10.369  0.0270 -0.0745 -0.1768
 1294BOLB   PO131034  13.430  13.762  10.270  0.2009  0.2290  0.0707
 1294BOLB   GL131035  13.302  13.520   9.909 -0.0818  0.1622 -0.0487
 1294BOLB   GL231036  13.067  13.159  10.043  0.2406 -0.1622  0.0481
 1294BOLB   C1A31037  12.908  13.535   9.594 -0.1333 -0.1708 -0.1450
 1294BOLB   C2A31038  12.572  13.530   9.351  0.0896  0.1038 -0.0009
 1294BOLB   C3A31039  12.321  13.437   9.040  0.0023  0.2753 -0.2223
 1294BOLB   C4A31040  12.446  13.345   8.648 -0.4199 -0.1098  0.0922
 1294BOLB   C1B31041  13.038  13.061   9.601  0.0070 -0.1287 -0.3496
 1294BOLB   C2B31042  12.919  13.178   9.242 -0.3447 -0.0741 -0.1910
 1294BOLB   C3B31043  12.565  12.967   9.020 -0.0842  0.3044  0.0571
 1294BOLB   C4B31044  12.392  12.904   8.472  0.2258 -0.2678  0.0494
 1294BOLB   NC231045  12.025  13.554   6.478  0.1509 -0.0874  0.1156
 1294BOLB   PO231046  12.317  13.855   6.407 -0.2129 -0.2026  0.1945
 1294BOLB   GL331047  12.559  13.756   6.729 -0.1928 -0.0232  0.0497
 1294BOLB   GL431048  12.841  13.670   6.483 -0.3436 -0.2037 -0.3159
 1294BOLB   C1C31049  12.570  13.786   7.119 -0.0306  0.0782 -0.0928
 1294BOLB   C2C31050  12.921  13.575   7.425  0.0530 -0.2294  0.0169
 1294BOLB   C3C31051  12.965  13.361   7.916  0.2021  0.0103 -0.0437
 1294BOLB   C4C31052  12.653  13.327   8.271  0.0235 -0.0817  0.1727
 1294BOLB   C1D31053  13.123  13.676   6.925  0.1367 -0.0713 -0.2196
 1294BOLB   C2D31054  13.368  13.875   7.267  0.2292  0.0145 -0.0818
 1294BOLB   C3D31055  13.613  13.983   7.571 -0.0534 -0.1301  0.1336
 1294BOLB   C4D31056  13.665  14.213   7.979 -0.2638 -0.0573  0.0676
 1295BOLB   NC131057  21.431  14.690  12.214 -0.2806 -0.1445  0.0396
 1295BOLB   PO131058  21.609  14.838  11.828  0.0673 -0.0499 -0.2889
 1295BOLB   GL131059  21.700  14.855  11.457  0.0696 -0.0335  0.3856
 1295BOLB   GL231060  21.493  14.602  11.348 -0.0619  0.2777 -0.2607
 1295BOLB   C1A31061  21.818  14.898  11.091  0.0772  0.0389  0.0052
 1295BOLB   C2A31062  22.041  15.141  10.711  0.0077  0.3935 -0.5220
 1295BOLB   C3A31063  22.296  15.135  10.408 -0.1494 -0.0318 -0.2336
 1295BOLB   C4A31064  22.179  14.919  10.035 -0.0894  0.1739 -0.3469
 1295BOLB   C1B31065  21.477  14.554  10.959 -0.2464 -0.0804  0.1963
 1295BOLB   C2B31066  21.581  14.540  10.549 -0.1526 -0.2858  0.1320
 1295BOLB   C3B31067  22.010  14.700  10.447  0.0263  0.0550 -0.0368
 1295BOLB   C4B31068  22.452  14.604  10.377 -0.1495 -0.1779  0.1031
 1295BOLB   NC231069  22.015  14.065   7.856  0.4678 -0.2368  0.2046
 1295BOLB   PO231070  22.226  13.743   7.905  0.1914  0.0863 -0.3891
 1295BOLB   GL331071  22.321  13.926   8.255  0.0036 -0.3769  0.0869
 1295BOLB   GL431072  22.350  13.647   8.484  0.0503 -0.2586  0.0244
 1295BOLB   C1C31073  22.074  14.140   8.552  0.3337  0.3842 -0.1037
 1295BOLB   C2C31074  22.037  14.173   9.002 -0.0813  0.1865 -0.0639
 1295BOLB   C3C31075  22.178  14.637   9.220 -0.0594 -0.1091 -0.1530
 1295BOLB   C4C31076  22.344  14.819   9.632 -0.0206  0.1301 -0.3106
 1295BOLB   C1D31077  21.960  13.696   8.771 -0.0362 -0.0290 -0.3173
 1295BOLB   C2D31078  21.626  13.752   9.082  0.3104  0.2301 -0.1413
 1295BOLB   C3D31079  21.256  13.671   9.134 -0.1737 -0.0502  0.3538
 1295BOLB   C4D31080  20.923  13.586   9.155  0.3303 -0.0676  0.0110
 1296BOLB   NC131081  18.282  16.116  10.246  0.1889  0.2384  0.3440
 1296BOLB   PO131082  17.868  16.202  10.278  0.1466 -0.2869  0.4070
 1296BOLB   GL131083  18.023  16.199   9.843 -0.0188 -0.4609 -0.0302
 1296BOLB   GL231084  18.080  15.825   9.879 -0.0549  0.0910  0.3789
 1296BOLB   C1A31085  17.997  16.467   9.438 -0.2584  0.0394 -0.1859
 1296BOLB   C2A31086  18.137  16.434   9.017 -0.1156  0.0227 -0.2174
 1296BOLB   C3A31087  18.323  16.570   8.634 -0.1672 -0.1217 -0.0283
 1296BOLB   C4A31088  18.596  16.237   8.330  0.1459 -0.0136  0.0093
 1296BOLB   C1B31089  18.190  15.912   9.432  0.2910  0.1730  0.3802
 1296BOLB   C2B31090  18.302  15.798   9.062  0.1093  0.1663 -0.0207
 1296BOLB   C3B31091  18.260  15.971   8.624 -0.0769 -0.1140  0.2695
 1296BOLB   C4B31092  18.225  15.993   8.208 -0.0646 -0.1857 -0.1701
 1296BOLB   NC231093  18.883  16.266   5.983 -0.0457  0.1487 -0.1082
 1296BOLB   PO231094  19.276  16.269   6.092 -0.1004 -0.1359  0.0163
 1296BOLB   GL331095  19.326  16.409   6.437  0.1681  0.1151 -0.2898
 1296BOLB   GL431096  19.544  16.279   6.611 -0.0957 -0.0525  0.4731
 1296BOLB   C1C31097  19.080  16.394   6.739  0.0030  0.0058 -0.2069
 1296BOLB   C2C31098  19.036  16.403   7.209  0.0228  0.2370  0.3943
 1296BOLB   C3C31099  18.957  16.159   7.583 -0.0287  0.2522  0.3480
 1296BOLB   C4C31100  18.805  16.239   7.939  0.2792 -0.2803 -0.1416
 1296BOLB   C1D31101  19.424  16.066   6.945 -0.2393  0.1328 -0.2318
 1296BOLB   C2D31102  19.367  15.941   7.393  0.4065 -0.4310  0.3610
 1296BOLB   C3D31103  19.122  15.628   7.572  0.2302  0.3835 -0.1046
 1296BOLB   C4D31104  18.955  15.294   7.702  0.3443 -0.2360 -0.1821
 1297BOLB   NC131105  11.461  15.178   9.950 -0.4729  0.4019  0.1061
 1297BOLB   PO131106  11.497  14.753  10.218  0.0032  0.0432  0.0964
 1297BOLB   GL131107  11.290  14.399   9.952  0.3502 -0.0657  0.1626
 1297BOLB   GL231108  11.219  14.216  10.127  0.1285  0.0473 -0.0421
 1297BOLB   C1A31109  11.051  14.252   9.604  0.0423 -0.0689  0.1193
 1297BOLB   C2A31110  10.988  14.194   9.200 -0.0599 -0.0021 -0.2524
 1297BOLB   C3A31111  10.797  14.389   8.740 -0.4317 -0.2990 -0.1508
 1297BOLB   C4A31112  10.828  14.402   8.245  0.2264 -0.0955 -0.0620
 1297BOLB   C1B31113  11.123  13.878   9.879  0.2327  0.0203  0.0830
 1297BOLB   C2B31114  10.831  13.688   9.769  0.1434 -0.0530 -0.0095
 1297BOLB   C3B31115  10.722  13.753   9.375 -0.0528  0.0236 -0.2794
 1297BOLB   C4B31116  10.647  13.835   8.891 -0.0211  0.1375 -0.0681
 1297BOLB   NC231117  11.176  15.889   5.573 -0.1212 -0.1768 -0.1691
 1297BOLB   PO231118  10.896  15.717   5.974 -0.1846 -0.0831 -0.0607
 1297BOLB   GL331119  10.891  15.566   6.411 -0.0816  0.1789  0.3150
 1297BOLB   GL431120  10.789  15.731   6.650  0.2635 -0.0873  0.1116
 1297BOLB   C1C31121  10.966  15.240   6.854  0.1504  0.0030  0.1562
 1297BOLB   C2C31122  10.910  14.814   7.117  0.2103  0.1613  0.4065
 1297BOLB   C3C31123  10.689  14.686   7.473 -0.0262  0.2549 -0.2622
 1297BOLB   C4C31124  10.664  14.418   7.795  0.2095  0.1571  0.0726
 1297BOLB   C1D31125  10.872  15.684   6.988  0.1622 -0.1748 -0.1882
 1297BOLB   C2D31126  11.063  15.802   7.425 -0.1640 -0.2926 -0.3791
 1297BOLB   C3D31127  10.897  16.010   7.775  0.1530  0.0447  0.0693
 1297BOLB   C4D31128  10.466  16.106   8.033 -0.0889 -0.0489 -0.0449
 1298BOLB   NC131129  16.048  24.626  14.167  0.1907  0.1000 -0.2337
 1298BOLB   PO131130  16.363  24.474  13.986  0.1812 -0.1534 -0.1793
 1298BOLB   GL131131  16.406  24.619  13.684  0.0484  0.1288 -0.2511
 1298BOLB   GL231132  16.775  24.697  13.627  0.1846 -0.2925 -0.2762
 1298BOLB   C1A31133  16.183  24.992  13.546 -0.2744 -0.0876  0.0062
 1298BOLB   C2A31134  15.721  24.935  13.323  0.0044  0.1031  0.0523
 1298BOLB   C3A31135  15.661  25.105  12.936  0.1531  0.0307 -0.0047
 1298BOLB   C4A31136  15.630  25.516  12.777  0.0967 -0.2693 -0.0688
 1298BOLB   C1B31137  17.089  24.922  13.468 -0.1503  0.0204 -0.0128
 1298BOLB   C2B31138  17.340  25.201  13.316  0.2759 -0.0027  0.2083
 1298BOLB   C3B31139  17.679  25.087  12.959 -0.1716 -0.1304 -0.0714
 1298BOLB   C4B31140  17.853  25.250  12.625 -0.1447  0.0523 -0.3850
 1298BOLB   NC231141  16.292  28.192  11.711  0.0591 -0.1450 -0.0405
 1298BOLB   PO231142  16.386  27.973  12.052  0.0292 -0.2446  0.0034
 1298BOLB   GL331143  16.185  27.644  12.279  0.0154 -0.1795 -0.3308
 1298BOLB   GL431144  16.131  27.896  12.456  0.3354 -0.1884  0.0114
 1298BOLB   C1C31145  16.121  27.238  12.332  0.1579 -0.0015 -0.2843
 1298BOLB   C2C31146  16.105  26.890  12.610 -0.0496 -0.2805  0.0032
 1298BOLB   C3C31147  15.955  26.477  12.681  0.0262 -0.0814  0.2317
 1298BOLB   C4C31148  15.826  25.992  12.625  0.3372 -0.0857  0.0024
 1298BOLB   C1D31149  15.884  27.697  12.708  0.0847 -0.2516 -0.0265
 1298BOLB   C2D31150  15.725  27.263  12.847  0.0377 -0.0423  0.1400
 1298BOLB   C3D31151  15.590  26.835  12.706  0.1871 -0.0842 -0.1069
 1298BOLB   C4D31152  15.415  26.469  12.720  0.0230  0.3075 -0.0062
 1299BOLB   NC131153  10.235  23.981  12.258 -0.1477  0.1595  0.1825
 1299BOLB   PO131154  10.423  23.659  12.398  0.0628  0.2046 -0.1142
 1299BOLB   GL131155  10.580  23.611  11.996  0.2837  0.2193 -0.0618
 1299BOLB   GL231156  10.597  23.946  11.884  0.2781  0.0436  0.0366
 1299BOLB   C1A31157  10.712  23.618  11.525 -0.1152 -0.0804 -0.0816
 1299BOLB   C2A31158  10.663  23.952  11.125 -0.0980  0.0117 -0.0456
 1299BOLB   C3A31159  10.771  24.370  10.900 -0.0203 -0.4593  0.0597
 1299BOLB   C4A31160  11.060  24.693  10.656  0.0463 -0.3674 -0.0530
 1299BOLB   C1B31161  10.924  24.105  11.657  0.1118 -0.0087 -0.1524
 1299BOLB   C2B31162  11.135  24.096  11.175  0.1143  0.3405  0.1885
 1299BOLB   C3B31163  11.120  24.113  10.694  0.0640 -0.0414 -0.1926
 1299BOLB   C4B31164  11.371  23.900  10.479 -0.2589  0.0937 -0.1060
 1299BOLB   NC231165  11.258  25.919   8.364 -0.2340 -0.1087  0.0103
 1299BOLB   PO231166  11.363  25.515   8.517  0.0963  0.0082  0.0624
 1299BOLB   GL331167  11.543  25.429   8.836 -0.1305 -0.1082  0.0429
 1299BOLB   GL431168  11.965  25.539   8.833  0.3325 -0.1162 -0.4182
 1299BOLB   C1C31169  11.427  25.456   9.292  0.1000  0.2534 -0.2007
 1299BOLB   C2C31170  11.399  25.551   9.819  0.3786 -0.3750 -0.0155
 1299BOLB   C3C31171  11.434  25.377  10.215 -0.0658  0.0227  0.0876
 1299BOLB   C4C31172  11.181  24.955  10.321 -0.1058 -0.0768 -0.2734
 1299BOLB   C1D31173  11.968  25.299   9.138  0.0103  0.1659  0.0596
 1299BOLB   C2D31174  11.759  25.055   9.285  0.0241  0.1010 -0.0444
 1299BOLB   C3D31175  11.549  24.829   9.507  0.0037 -0.1036  0.1021
 1299BOLB   C4D31176  11.247  24.667   9.805  0.1172 -0.0197  0.0680
 1300BOLB   NC131177  20.446  10.763  14.365  0.4172  0.0877 -0.1082
 1300BOLB   PO131178  20.616  10.745  13.891 -0.0563  0.1371  0.1480
 1300BOLB   GL131179  20.644  10.383  13.635 -0.0115 -0.0385 -0.0974
 1300BOLB   GL231180  20.956  10.269  13.861  0.1206 -0.0799 -0.0017
 1300BOLB   C1A31181  20.794  10.045  13.310 -0.1771  0.1186  0.1964
 1300BOLB   C2A31182  20.927   9.617  13.255  0.1048  0.0960 -0.0474
 1300BOLB   C3A31183  21.270   9.210  13.365  0.0357 -0.1387  0.1554
 1300BOLB   C4A31184  21.195   8.710  13.385  0.2503  0.2583  0.3687
 1300BOLB   C1B31185  21.266  10.072  13.635 -0.1569 -0.0161 -0.0194
 1300BOLB   C2B31186  21.380   9.886  13.290  0.1382  0.1230 -0.1053
 1300BOLB   C3B31187  21.575   9.524  13.035  0.0327  0.5023  0.1431
 1300BOLB   C4B31188  21.736   9.234  12.633  0.0140 -0.1952 -0.0180
 1300BOLB   NC231189  22.326   6.785  12.253  0.5362  0.0166 -0.3230
 1300BOLB   PO231190  21.967   6.871  12.039  0.3903  0.1572 -0.0641
 1300BOLB   GL331191  21.642   7.238  12.133  0.3376 -0.0086  0.1135
 1300BOLB   GL431192  21.756   7.533  12.038  0.2147  0.1867  0.1185
 1300BOLB   C1C31193  21.577   7.497  12.528 -0.0949  0.0131  0.1207
 1300BOLB   C2C31194  21.500   7.747  12.785 -0.0705  0.1734  0.2459
 1300BOLB   C3C31195  21.328   8.056  12.880  0.1140  0.1172 -0.0152
 1300BOLB   C4C31196  21.190   8.268  13.215 -0.3526  0.3183 -0.1844
 1300BOLB   C1D31197  21.333   7.735  12.107  0.1473 -0.5443  0.2801
 1300BOLB   C2D31198  21.041   8.060  12.082 -0.0988  0.0204 -0.2086
 1300BOLB   C3D31199  20.639   8.261  12.248 -0.2033  0.1618 -0.2875
 1300BOLB   C4D31200  20.463   8.602  12.155 -0.2181 -0.1163  0.0899
 1301BOLB   NC131201  19.948  17.453  11.272 -0.0529 -0.0966  0.0254
 1301BOLB   PO131202  20.196  17.359  10.957 -0.0696 -0.0708 -0.0555
 1301BOLB   GL131203  20.379  17.512  10.558 -0.0002  0.0912  0.0736
 1301BOLB   GL231204  20.476  17.798  10.428  0.0684  0.0750  0.1940
 1301BOLB   C1A31205  20.769  17.486  10.212  0.3516 -0.2353  0.1865
 1301BOLB   C2A31206  21.090  17.387   9.863 -0.1735  0.3254  0.1642
 1301BOLB   C3A31207  21.164  17.291   9.467  0.1523 -0.1329  0.4616
 1301BOLB   C4A31208  20.932  17.189   9.128 -0.2518 -0.1388 -0.0315
 1301BOLB   C1B31209  20.742  17.976   9.998 -0.0448 -0.1217  0.1642
 1301BOLB   C2B31210  21.027  17.926   9.746  0.0590  0.2354 -0.1256
 1301BOLB   C3B31211  21.154  18.132   9.373  0.0929  0.0248  0.2252
 1301BOLB   C4B31212  21.317  18.219   8.951 -0.2480 -0.1725  0.0607
 1301BOLB   NC231213  21.950  17.203   6.977 -0.2943 -0.2214  0.0977
 1301BOLB   PO231214  21.871  17.358   7.301  0.0469  0.1379 -0.0416
 1301BOLB   GL331215  21.554  17.319   7.602 -0.4254 -0.0035 -0.0077
 1301BOLB   GL431216  21.373  17.546   7.649  0.0872  0.0805 -0.0070
 1301BOLB   C1C31217  21.176  17.078   7.635  0.0170 -0.0202  0.0090
 1301BOLB   C2C31218  20.896  16.771   7.981 -0.0712  0.0518 -0.0312
 1301BOLB   C3C31219  20.973  16.740   8.424 -0.1130 -0.0621  0.2255
 1301BOLB   C4C31220  20.930  16.959   8.687  0.0619  0.1310 -0.6952
 1301BOLB   C1D31221  20.995  17.652   7.885 -0.0710 -0.2651  0.0857
 1301BOLB   C2D31222  20.578  17.620   8.161 -0.1658  0.0318  0.2444
 1301BOLB   C3D31223  20.127  17.368   8.159 -0.0700  0.2080 -0.0821
 1301BOLB   C4D31224  19.818  17.130   7.921 -0.2006 -0.1123  0.0691
 1302BOLB   NC131225  23.689  13.098  15.078 -0.1264  0.0102 -0.0835
 1302BOLB   PO131226  23.330  12.921  14.947  0.3179 -0.0208 -0.1338
 1302BOLB   GL131227  23.375  12.579  14.624  0.3124  0.0920 -0.1536
 1302BOLB   GL231228  23.140  12.346  14.840 -0.0374  0.1952  0.2496
 1302BOLB   C1A31229  23.411  12.254  14.286 -0.0503 -0.3683 -0.0155
 1302BOLB   C2A31230  23.416  11.873  14.127  0.1572  0.3114 -0.2094
 1302BOLB   C3A31231  23.308  11.588  13.772 -0.1418 -0.3163 -0.1175
 1302BOLB   C4A31232  23.361  11.198  13.610 -0.1390  0.2427  0.3094
 1302BOLB   C1B31233  23.155  12.007  14.638 -0.1253  0.1923 -0.0757
 1302BOLB   C2B31234  22.892  11.932  14.265  0.2987  0.2451 -0.0479
 1302BOLB   C3B31235  22.886  11.470  14.012 -0.1100 -0.1702 -0.1505
 1302BOLB   C4B31236  22.956  11.105  13.813  0.1329 -0.0502  0.1929
 1302BOLB   NC231237  23.211   8.761  11.974 -0.0280  0.2523  0.5356
 1302BOLB   PO231238  23.307   9.142  12.185  0.0882  0.0497 -0.1181
 1302BOLB   GL331239  23.252   9.434  12.489 -0.1061 -0.0280  0.1416
 1302BOLB   GL431240  23.484   9.650  12.410  0.0631  0.0979  0.1262
 1302BOLB   C1C31241  23.128   9.702  12.875 -0.3779 -0.2318 -0.0761
 1302BOLB   C2C31242  22.940  10.066  13.100 -0.3538  0.1230 -0.0062
 1302BOLB   C3C31243  22.990  10.468  13.343 -0.1852  0.0319  0.0552
 1302BOLB   C4C31244  23.153  10.784  13.478 -0.1979  0.2742 -0.0083
 1302BOLB   C1D31245  23.427  10.008  12.556  0.0013 -0.2509  0.2671
 1302BOLB   C2D31246  23.241  10.404  12.426  0.1367  0.0450 -0.2339
 1302BOLB   C3D31247  23.122  10.743  12.245 -0.1480  0.0465  0.1009
 1302BOLB   C4D31248  23.276  11.104  12.198 -0.0762  0.0067 -0.0454
 1303BOLB   NC131249  15.135  11.828  11.043  0.0739  0.1698  0.0653
 1303BOLB   PO131250  14.873  12.168  10.958 -0.0064 -0.1500 -0.0143
 1303BOLB   GL131251  14.991  12.075  10.576  0.0186  0.2500  0.2715
 1303BOLB   GL231252  15.308  11.939  10.551  0.0624  0.1543 -0.1012
 1303BOLB   C1A31253  14.951  12.141  10.208  0.0973 -0.3120  0.0156
 1303BOLB   C2A31254  14.770  12.322   9.799  0.1539 -0.5740 -0.1033
 1303BOLB   C3A31255  14.752  12.569   9.460  0.1077 -0.1850 -0.0853
 1303BOLB   C4A31256  14.869  12.697   9.042  0.0203 -0.3579 -0.1371
 1303BOLB   C1B31257  15.216  11.708  10.147 -0.2206 -0.3881  0.0575
 1303BOLB   C2B31258  15.147  11.978   9.673 -0.0342  0.0891  0.3206
 1303BOLB   C3B31259  15.083  11.817   9.252 -0.0106  0.2705 -0.3425
 1303BOLB   C4B31260  14.960  11.686   8.800 -0.0149 -0.0442 -0.0109
 1303BOLB   NC231261  14.893  12.987   6.128 -0.0291 -0.1948 -0.1044
 1303BOLB   PO231262  14.813  12.808   6.570  0.2583 -0.1345 -0.0299
 1303BOLB   GL331263  14.583  13.016   6.907  0.0913 -0.0392  0.1161
 1303BOLB   GL431264  14.499  13.215   6.710 -0.0621 -0.0604 -0.1238
 1303BOLB   C1C31265  14.480  13.046   7.293 -0.0979  0.0519  0.0719
 1303BOLB   C2C31266  14.503  13.066   7.786 -0.0648 -0.1882 -0.3297
 1303BOLB   C3C31267  14.730  12.957   8.159  0.1761  0.1152 -0.2173
 1303BOLB   C4C31268  14.819  12.675   8.584 -0.0409  0.1475 -0.1164
 1303BOLB   C1D31269  14.630  13.516   7.060 -0.0636  0.1754 -0.1816
 1303BOLB   C2D31270  14.531  13.896   7.413  0.3602  0.0464  0.2284
 1303BOLB   C3D31271  14.556  14.333   7.470  0.1670 -0.0410 -0.1893
 1303BOLB   C4D31272  14.924  14.602   7.597  0.0921 -0.1758 -0.3733
 1304BOLB   NC131273   8.571   8.355  11.498  0.1466 -0.0536 -0.2323
 1304BOLB   PO131274   8.737   8.707  11.707 -0.4063 -0.0222  0.1151
 1304BOLB   GL131275   9.012   8.735  11.352  0.1167  0.2204 -0.1117
 1304BOLB   GL231276   9.293   8.895  11.415 -0.1435 -0.0906  0.0398
 1304BOLB   C1A31277   9.124   8.433  11.104 -0.1991 -0.0010  0.0137
 1304BOLB   C2A31278   9.160   8.231  10.651  0.1732  0.0470  0.0418
 1304BOLB   C3A31279   9.358   8.214  10.268  0.0381  0.3019 -0.2746
 1304BOLB   C4A31280   9.669   7.901  10.011  0.4013 -0.0332 -0.2923
 1304BOLB   C1B31281   9.348   8.850  10.944 -0.3342 -0.3528 -0.0824
 1304BOLB   C2B31282   9.390   8.626  10.638  0.1637  0.0372 -0.1254
 1304BOLB   C3B31283   9.705   8.250  10.733 -0.0956 -0.1083 -0.3357
 1304BOLB   C4B31284   9.592   7.852  10.549 -0.1035 -0.2210  0.2357
 1304BOLB   NC231285  10.696   5.427  10.790 -0.1389 -0.1354 -0.1650
 1304BOLB   PO231286  10.705   5.812  10.607 -0.1397  0.6475 -0.0206
 1304BOLB   GL331287  10.781   6.211  10.405 -0.3796  0.0823 -0.0028
 1304BOLB   GL431288  10.689   6.352  10.745  0.0189 -0.1324 -0.1070
 1304BOLB   C1C31289  10.666   6.621  10.215  0.1494  0.0590  0.2424
 1304BOLB   C2C31290  10.407   6.826   9.983  0.0296 -0.1363 -0.0256
 1304BOLB   C3C31291  10.111   7.148   9.762 -0.0616 -0.0998 -0.0762
 1304BOLB   C4C31292   9.909   7.535   9.830 -0.3159  0.0934 -0.0213
 1304BOLB   C1D31293  10.999   6.632  10.875  0.0758 -0.0699 -0.4244
 1304BOLB   C2D31294  11.356   6.948  10.792  0.0892  0.0917 -0.1586
 1304BOLB   C3D31295  11.813   7.112  10.660  0.0171 -0.2326  0.2417
 1304BOLB   C4D31296  11.928   7.504  10.643 -0.0593 -0.0152 -0.0225
 1305BOLB   NC131297  15.461  22.074  11.736  0.1754 -0.0277 -0.1861
 1305BOLB   PO131298  15.021  22.168  11.508  0.0912  0.6260  0.1106
 1305BOLB   GL131299  14.890  22.493  11.276  0.0080 -0.1532  0.0455
 1305BOLB   GL231300  14.513  22.563  11.383  0.0318  0.1009 -0.0649
 1305BOLB   C1A31301  15.069  22.788  10.858  0.1174  0.3981  0.1155
 1305BOLB   C2A31302  14.910  23.066  10.433 -0.0030  0.1250  0.1710
 1305BOLB   C3A31303  14.571  23.398  10.183 -0.0632 -0.2362 -0.1399
 1305BOLB   C4A31304  14.479  23.318   9.859 -0.3223 -0.1144 -0.1423
 1305BOLB   C1B31305  14.559  22.656  10.827 -0.1330 -0.2465 -0.3123
 1305BOLB   C2B31306  14.438  22.868  10.462 -0.1441  0.0517  0.3308
 1305BOLB   C3B31307  14.143  22.928  10.047  0.0669  0.0204 -0.6055
 1305BOLB   C4B31308  14.112  22.647   9.791  0.2569 -0.1908  0.2135
 1305BOLB   NC231309  15.577  24.767   8.360  0.0648 -0.0478  0.1142
 1305BOLB   PO231310  15.823  25.127   8.621  0.2353 -0.0042 -0.0371
 1305BOLB   GL331311  15.798  24.756   8.945  0.2980  0.2376 -0.0939
 1305BOLB   GL431312  15.893  24.506   8.868 -0.4019 -0.2788  0.0339
 1305BOLB   C1C31313  15.525  24.508   9.181 -0.1865 -0.1043  0.1833
 1305BOLB   C2C31314  15.223  24.332   9.264  0.0446  0.0363  0.1045
 1305BOLB   C3C31315  15.014  24.049   9.504  0.0437 -0.0256  0.0921
 1305BOLB   C4C31316  14.706  23.741   9.543  0.3007  0.0981  0.0407
 1305BOLB   C1D31317  16.013  24.316   9.141  0.1726 -0.3466 -0.1045
 1305BOLB   C2D31318  16.001  24.066   9.489  0.0603  0.1276  0.0721
 1305BOLB   C3D31319  15.723  23.900   9.844  0.0922  0.1743  0.0642
 1305BOLB   C4D31320  15.749  23.610  10.208 -0.0593  0.3376  0.0307
 1306BOLB   NC131321  17.529  21.482  11.670  0.2079  0.0726  0.0782
 1306BOLB   PO131322  17.460  21.484  11.349  0.2361  0.0274 -0.0424
 1306BOLB   GL131323  17.661  21.752  10.987 -0.2772 -0.2185  0.2117
 1306BOLB   GL231324  17.639  22.057  11.108 -0.0818  0.3371 -0.0904
 1306BOLB   C1A31325  17.666  21.911  10.570 -0.0550 -0.0746 -0.0443
 1306BOLB   C2A31326  17.747  22.305  10.354 -0.2692  0.1976  0.1878
 1306BOLB   C3A31327  17.540  22.672  10.198 -0.3123  0.0905  0.0778
 1306BOLB   C4A31328  17.349  22.678   9.818 -0.1511  0.3336  0.0594
 1306BOLB   C1B31329  17.537  22.331  10.845  0.0187  0.0446 -0.1050
 1306BOLB   C2B31330  17.462  22.618  10.710 -0.2593 -0.0074 -0.1379
 1306BOLB   C3B31331  17.274  22.957  10.436  0.0684  0.1390 -0.0251
 1306BOLB   C4B31332  16.923  23.091  10.146 -0.4152  0.2230  0.1386
 1306BOLB   NC231333  17.685  22.456   7.457  0.0642  0.0784  0.1505
 1306BOLB   PO231334  17.783  22.821   7.573 -0.1444  0.2001  0.1035
 1306BOLB   GL331335  17.691  23.027   7.952  0.3321  0.0863  0.0118
 1306BOLB   GL431336  17.399  22.938   8.019 -0.2422  0.0720 -0.3006
 1306BOLB   C1C31337  17.720  22.873   8.397  0.0915  0.1412  0.1684
 1306BOLB   C2C31338  17.597  22.822   8.768  0.0401 -0.0251  0.4129
 1306BOLB   C3C31339  17.397  22.899   9.084 -0.0998 -0.0821 -0.4120
 1306BOLB   C4C31340  17.379  22.835   9.412 -0.1335  0.0609 -0.0737
 1306BOLB   C1D31341  17.175  22.758   8.342  0.2764  0.1285  0.1809
 1306BOLB   C2D31342  17.002  22.869   8.806  0.4320 -0.3716  0.2949
 1306BOLB   C3D31343  16.900  22.835   9.238  0.1583 -0.2233  0.0027
 1306BOLB   C4D31344  16.906  23.008   9.628 -0.1546  0.2218 -0.0908
 1307BOLB   NC131345  19.928  24.511  15.434 -0.1590 -0.0058 -0.0288
 1307BOLB   PO131346  20.260  24.783  15.204  0.2383 -0.0220  0.0816
 1307BOLB   GL131347  20.649  24.970  15.388  0.1777  0.5195  0.3701
 1307BOLB   GL231348  20.465  25.226  15.072  0.2124 -0.0249  0.1186
 1307BOLB   C1A31349  21.016  25.131  15.159  0.1144  0.2029  0.0687
 1307BOLB   C2A31350  21.289  25.439  14.990  0.0801  0.2214  0.0478
 1307BOLB   C3A31351  21.037  25.948  14.987  0.3036  0.0130 -0.0935
 1307BOLB   C4A31352  21.004  26.331  14.749  0.0369 -0.3011 -0.2498
 1307BOLB   C1B31353  20.674  25.505  14.781  0.0011  0.3029 -0.1891
 1307BOLB   C2B31354  20.669  25.904  14.655  0.2955  0.0417  0.5320
 1307BOLB   C3B31355  20.522  26.307  14.504  0.1681 -0.1415  0.0446
 1307BOLB   C4B31356  20.586  26.607  14.378  0.1194  0.0203 -0.0122
 1307BOLB   NC231357  21.933  28.449  14.477  0.0768 -0.0888 -0.0762
 1307BOLB   PO231358  21.535  28.599  14.533 -0.1707  0.0134  0.0822
 1307BOLB   GL331359  21.433  28.274  14.629 -0.1571 -0.1398  0.1881
 1307BOLB   GL431360  21.098  28.169  14.727 -0.3099  0.0019  0.0965
 1307BOLB   C1C31361  21.406  27.814  14.831  0.1611 -0.5442  0.2166
 1307BOLB   C2C31362  21.182  27.408  14.763  0.0795 -0.0087  0.1112
 1307BOLB   C3C31363  20.869  27.120  14.792  0.2143  0.1677 -0.1215
 1307BOLB   C4C31364  20.841  26.742  14.754 -0.0946  0.4142  0.1724
 1307BOLB   C1D31365  20.946  27.823  15.014  0.0047 -0.0201  0.1048
 1307BOLB   C2D31366  20.701  27.609  14.777  0.0813  0.2081 -0.2761
 1307BOLB   C3D31367  20.663  27.377  14.435 -0.0022  0.1451 -0.1400
 1307BOLB   C4D31368  20.802  27.102  14.259  0.3787 -0.1847 -0.2682
 1308BOLB   NC131369  20.754  16.118  11.485  0.1626  0.1753  0.4197
 1308BOLB   PO131370  20.997  16.149  11.047 -0.0871 -0.1438  0.1283
 1308BOLB   GL131371  21.094  16.183  10.618 -0.0905 -0.1746 -0.3443
 1308BOLB   GL231372  21.365  16.378  10.649  0.0628  0.3087  0.0886
 1308BOLB   C1A31373  21.081  16.066  10.315 -0.1389 -0.0848 -0.0817
 1308BOLB   C2A31374  21.256  16.008   9.966  0.0554 -0.1062 -0.2087
 1308BOLB   C3A31375  21.587  15.883   9.649  0.0789 -0.0399 -0.0384
 1308BOLB   C4A31376  21.791  15.607   9.305  0.0639  0.0969 -0.4157
 1308BOLB   C1B31377  21.517  16.493  10.250  0.1509  0.3208 -0.0944
 1308BOLB   C2B31378  21.667  16.440   9.811  0.1450 -0.0731 -0.1566
 1308BOLB   C3B31379  21.954  16.275   9.498  0.0086 -0.3934  0.1383
 1308BOLB   C4B31380  22.128  15.930   9.255  0.1220  0.0792 -0.2370
 1308BOLB   NC231381  21.191  16.673   6.947  0.2174  0.0776 -0.1859
 1308BOLB   PO231382  21.377  16.292   7.037  0.3036  0.0089 -0.0550
 1308BOLB   GL331383  21.259  16.138   7.390 -0.0015  0.1353  0.1633
 1308BOLB   GL431384  21.277  16.566   7.549  0.0616 -0.1421  0.0247
 1308BOLB   C1C31385  21.353  16.062   7.844 -0.1234  0.1509  0.1406
 1308BOLB   C2C31386  21.725  15.771   8.185 -0.4120 -0.2341  0.0238
 1308BOLB   C3C31387  21.721  15.497   8.549  0.0563  0.0527 -0.1178
 1308BOLB   C4C31388  21.688  15.370   8.949  0.2371  0.0518  0.0481
 1308BOLB   C1D31389  21.564  16.802   7.795  0.0558  0.0395  0.1569
 1308BOLB   C2D31390  21.798  17.092   7.953  0.0131 -0.0580  0.0363
 1308BOLB   C3D31391  21.867  17.516   8.072  0.1381 -0.1329 -0.4451
 1308BOLB   C4D31392  22.104  17.948   8.000 -0.0029  0.0120  0.4473
 1309BOLB   NC131393  10.539  18.142  10.762  0.4703 -0.1411  0.1002
 1309BOLB   PO131394  10.353  18.227  11.195 -0.0643  0.3497 -0.2252
 1309BOLB   GL131395  10.056  18.189  10.921 -0.2795  0.2668  0.3162
 1309BOLB   GL231396   9.870  17.874  10.704  0.0231  0.3326 -0.3021
 1309BOLB   C1A31397   9.923  18.427  10.552  0.1774 -0.0184 -0.1630
 1309BOLB   C2A31398   9.674  18.560  10.304  0.2107 -0.1515 -0.2627
 1309BOLB   C3A31399   9.238  18.757  10.038  0.3704  0.0725  0.0075
 1309BOLB   C4A31400   8.958  18.524   9.787  0.2460 -0.0472  0.4910
 1309BOLB   C1B31401   9.508  18.101  10.562  0.0319  0.0614 -0.0493
 1309BOLB   C2B31402   9.082  18.161  10.285 -0.0453 -0.0796 -0.1703
 1309BOLB   C3B31403   8.667  18.229  10.024  0.2427 -0.1296  0.2281
 1309BOLB   C4B31404   8.566  18.115   9.642  0.0907  0.2775 -0.1633
 1309BOLB   NC231405   7.901  20.150   7.606  0.0634  0.0097 -0.2034
 1309BOLB   PO231406   7.741  19.963   7.972 -0.2040  0.2528 -0.2498
 1309BOLB   GL331407   7.978  19.783   8.384  0.0053  0.2619 -0.2578
 1309BOLB   GL431408   8.169  19.442   8.331  0.0965 -0.5838 -0.2620
 1309BOLB   C1C31409   8.313  19.639   8.754  0.1665 -0.1556 -0.4916
 1309BOLB   C2C31410   8.467  19.281   8.945  0.0730 -0.0173  0.0580
 1309BOLB   C3C31411   8.607  18.807   9.016 -0.1112 -0.3636 -0.2174
 1309BOLB   C4C31412   8.825  18.513   9.404 -0.1123  0.0327 -0.0898
 1309BOLB   C1D31413   8.375  19.116   8.458 -0.3063  0.0013 -0.0514
 1309BOLB   C2D31414   8.663  19.017   8.538 -0.1375 -0.2136  0.2741
 1309BOLB   C3D31415   8.968  19.006   8.205  0.0163 -0.3151  0.2464
 1309BOLB   C4D31416   9.380  19.116   8.022 -0.1902 -0.2789 -0.0784
 1310BOLB   NC131417  18.435   9.486  13.968  0.1164 -0.1561  0.0605
 1310BOLB   PO131418  18.199   9.484  13.641 -0.0455  0.0048  0.0279
 1310BOLB   GL131419  18.454   9.151  13.553  0.0182 -0.0388 -0.1626
 1310BOLB   GL231420  18.733   9.183  13.790 -0.1429  0.2674 -0.0480
 1310BOLB   C1A31421  18.783   9.151  13.258 -0.0808  0.1203 -0.0266
 1310BOLB   C2A31422  19.098   8.733  13.251  0.1238  0.0933  0.2526
 1310BOLB   C3A31423  19.294   8.345  13.227  0.2218 -0.0994  0.0937
 1310BOLB   C4A31424  19.322   7.971  12.976 -0.0884  0.2722  0.1308
 1310BOLB   C1B31425  18.736   8.767  13.668 -0.0861  0.2659  0.0209
 1310BOLB   C2B31426  18.524   8.435  13.513  0.2257  0.1403 -0.2501
 1310BOLB   C3B31427  18.543   8.200  13.120 -0.2073  0.0582  0.0298
 1310BOLB   C4B31428  18.767   8.027  12.848 -0.0477 -0.0355 -0.2744
 1310BOLB   NC231429  19.239   7.200  10.639  0.2672  0.0114 -0.1204
 1310BOLB   PO231430  19.737   7.203  10.672  0.2980 -0.2421 -0.3724
 1310BOLB   GL331431  19.474   7.469  11.021  0.2460 -0.1218 -0.1000
 1310BOLB   GL431432  19.169   7.269  11.214 -0.2286  0.2674  0.2280
 1310BOLB   C1C31433  19.403   7.779  11.353 -0.0452 -0.0052 -0.1725
 1310BOLB   C2C31434  19.195   7.898  11.826 -0.0739 -0.1924  0.1992
 1310BOLB   C3C31435  19.418   7.685  12.199 -0.0143 -0.3913  0.0965
 1310BOLB   C4C31436  19.242   7.778  12.571  0.5002 -0.2299 -0.0558
 1310BOLB   C1D31437  18.773   7.244  11.399 -0.0484  0.1706 -0.1646
 1310BOLB   C2D31438  18.653   7.600  11.596 -0.1567 -0.0822  0.0094
 1310BOLB   C3D31439  18.281   7.627  11.836 -0.2848  0.1157 -0.1792
 1310BOLB   C4D31440  17.897   8.020  11.893 -0.1820  0.0586 -0.1380
 1311BOLB   NC131441  11.288  19.815  11.370 -0.2119 -0.1061 -0.0232
 1311BOLB   PO131442  11.223  19.910  10.952  0.3534  0.0606 -0.2652
 1311BOLB   GL131443  11.444  19.745  10.595 -0.0624  0.0073  0.1880
 1311BOLB   GL231444  11.652  20.005  10.545  0.1795 -0.0137  0.0999
 1311BOLB   C1A31445  11.449  19.677  10.134  0.0800  0.0084  0.4540
 1311BOLB   C2A31446  11.090  19.447   9.776  0.0635 -0.0989 -0.1455
 1311BOLB   C3A31447  11.025  19.210   9.377 -0.1576 -0.0649  0.0728
 1311BOLB   C4A31448  10.837  19.339   9.057 -0.0562  0.2644 -0.1170
 1311BOLB   C1B31449  11.395  20.163  10.316 -0.3083  0.1257  0.0427
 1311BOLB   C2B31450  11.338  20.454  10.005 -0.1249  0.2379 -0.1021
 1311BOLB   C3B31451  11.310  20.483   9.613 -0.0141  0.1410  0.0222
 1311BOLB   C4B31452  11.492  20.131   9.293 -0.1442 -0.0312  0.1575
 1311BOLB   NC231453  10.134  20.315   6.592  0.1275  0.1505 -0.0971
 1311BOLB   PO231454  10.032  20.292   7.102  0.0423 -0.0213  0.1924
 1311BOLB   GL331455  10.266  19.928   7.253  0.0281 -0.0789 -0.0951
 1311BOLB   GL431456  10.529  20.178   7.489  0.0153  0.3893  0.1065
 1311BOLB   C1C31457  10.456  19.599   7.539  0.0866 -0.2565  0.0381
 1311BOLB   C2C31458  10.439  19.521   7.964  0.1308 -0.0570 -0.4108
 1311BOLB   C3C31459  10.521  19.377   8.383  0.0035  0.2419  0.1649
 1311BOLB   C4C31460  10.508  19.342   8.742  0.1027 -0.3478 -0.0418
 1311BOLB   C1D31461  10.849  19.875   7.755  0.1706 -0.0007 -0.0193
 1311BOLB   C2D31462  10.888  19.610   8.142 -0.1171  0.3185  0.0761
 1311BOLB   C3D31463  11.226  19.348   8.279  0.0688 -0.1225 -0.1866
 1311BOLB   C4D31464  11.304  18.890   8.161  0.0443  0.2888 -0.0238
 1312BOLB   NC131465  10.581  22.151  12.353  0.0422  0.3933 -0.1060
 1312BOLB   PO131466  10.498  22.356  11.966 -0.2145  0.1168 -0.0206
 1312BOLB   GL131467  10.460  22.147  11.520  0.3473  0.0422 -0.3564
 1312BOLB   GL231468  10.252  22.220  11.357  0.2335 -0.0565 -0.1649
 1312BOLB   C1A31469  10.639  22.246  11.071 -0.1377 -0.1960  0.1825
 1312BOLB   C2A31470  10.431  22.471  10.656  0.0350  0.0212  0.1814
 1312BOLB   C3A31471  10.442  22.544  10.281  0.0044 -0.0644  0.0238
 1312BOLB   C4A31472  10.478  22.526   9.770 -0.1925  0.1042  0.1401
 1312BOLB   C1B31473  10.142  22.233  10.981 -0.1919  0.0199  0.2514
 1312BOLB   C2B31474  10.112  22.035  10.522 -0.1188 -0.1563  0.1068
 1312BOLB   C3B31475  10.199  22.159  10.028  0.1872 -0.3157  0.2202
 1312BOLB   C4B31476  10.308  22.106   9.574 -0.2344 -0.0983 -0.1692
 1312BOLB   NC231477  10.096  22.802   7.628  0.0860  0.0232 -0.2977
 1312BOLB   PO231478   9.992  22.300   7.591 -0.0514 -0.0942  0.1983
 1312BOLB   GL331479   9.957  22.274   7.964  0.0569 -0.3126 -0.1096
 1312BOLB   GL431480   9.710  22.478   8.216 -0.1227 -0.3064  0.1612
 1312BOLB   C1C31481  10.154  21.917   8.207  0.6619  0.2100  0.1356
 1312BOLB   C2C31482  10.292  21.868   8.607  0.0478 -0.1107  0.0708
 1312BOLB   C3C31483  10.393  22.075   8.995 -0.1026 -0.0170  0.3928
 1312BOLB   C4C31484  10.523  22.434   9.316 -0.2721  0.1841  0.0777
 1312BOLB   C1D31485  10.066  22.406   8.460 -0.2073  0.1911  0.1165
 1312BOLB   C2D31486  10.283  22.640   8.708 -0.2484  0.0879 -0.1869
 1312BOLB   C3D31487  10.386  22.876   9.096  0.1476  0.1195  0.1255
 1312BOLB   C4D31488  10.389  22.968   9.467 -0.0208  0.0716 -0.2657
 1313BOLB   NC131489  20.191  15.027  11.004  0.2334 -0.1791  0.4767
 1313BOLB   PO131490  20.606  15.274  10.988 -0.1724  0.1265 -0.2402
 1313BOLB   GL131491  20.840  15.324  10.696  0.1658  0.2811 -0.1673
 1313BOLB   GL231492  21.018  15.524  10.894  0.2653 -0.3789  0.1296
 1313BOLB   C1A31493  20.867  15.339  10.355 -0.0568  0.0026  0.0704
 1313BOLB   C2A31494  21.030  15.146   9.976 -0.2053  0.0556 -0.0826
 1313BOLB   C3A31495  21.293  14.892   9.643  0.3905 -0.2982  0.1227
 1313BOLB   C4A31496  21.110  14.610   9.380  0.0856 -0.0468  0.1752
 1313BOLB   C1B31497  21.222  15.632  10.618 -0.0238 -0.0302 -0.2240
 1313BOLB   C2B31498  21.383  15.472  10.204 -0.1358 -0.0837  0.0382
 1313BOLB   C3B31499  21.598  15.338   9.898  0.0245 -0.0680  0.2347
 1313BOLB   C4B31500  21.858  14.965   9.669  0.0317 -0.3835 -0.2602
 1313BOLB   NC231501  21.771  13.610   7.726  0.0151 -0.1669 -0.3485
 1313BOLB   PO231502  21.538  13.918   7.643  0.0754  0.1244  0.1211
 1313BOLB   GL331503  21.453  13.937   7.959 -0.4057  0.0327  0.1689
 1313BOLB   GL431504  21.751  13.833   8.226 -0.3458 -0.0696 -0.2090
 1313BOLB   C1C31505  21.206  13.844   8.316  0.3518 -0.2688 -0.1475
 1313BOLB   C2C31506  20.937  13.848   8.606 -0.2856 -0.1948 -0.0035
 1313BOLB   C3C31507  20.799  14.161   8.865 -0.0891  0.1015 -0.1254
 1313BOLB   C4C31508  20.899  14.403   9.152  0.0125 -0.2123 -0.2411
 1313BOLB   C1D31509  21.562  14.098   8.512  0.1703  0.2050 -0.1090
 1313BOLB   C2D31510  21.325  14.132   8.930 -0.2591 -0.0721 -0.1045
 1313BOLB   C3D31511  21.309  14.127   9.393 -0.2549  0.5320  0.1833
 1313BOLB   C4D31512  21.401  14.297   9.737  0.0020 -0.0212  0.1137
 1314BOLB   NC131513  21.831  14.938  12.675 -0.0250  0.1211 -0.1311
 1314BOLB   PO131514  22.199  14.535  12.737  0.0219 -0.0954  0.1073
 1314BOLB   GL131515  22.344  14.373  12.252 -0.0875 -0.4319  0.2783
 1314BOLB   GL231516  22.425  14.538  12.040 -0.0341  0.2129  0.1675
 1314BOLB   C1A31517  22.568  14.031  12.081  0.1870  0.1926 -0.2086
 1314BOLB   C2A31518  22.660  13.826  11.698  0.3632 -0.0026  0.1718
 1314BOLB   C3A31519  22.607  13.552  11.371 -0.2542 -0.1600  0.2521
 1314BOLB   C4A31520  22.662  13.124  11.299  0.1096  0.1830 -0.0698
 1314BOLB   C1B31521  22.351  14.240  11.705  0.0344 -0.2801 -0.2233
 1314BOLB   C2B31522  22.410  14.217  11.222  0.2257  0.0785 -0.1224
 1314BOLB   C3B31523  22.459  13.998  10.953 -0.1459  0.0861  0.1768
 1314BOLB   C4B31524  22.693  13.638  10.897  0.2327 -0.1995  0.2577
 1314BOLB   NC231525  23.682  11.952   9.123  0.1804 -0.2490 -0.1043
 1314BOLB   PO231526  23.450  11.950   9.551  0.0500  0.0707 -0.1387
 1314BOLB   GL331527  23.302  11.972   9.935 -0.0273 -0.1254  0.0367
 1314BOLB   GL431528  23.068  12.181   9.786 -0.2011 -0.1449  0.0269
 1314BOLB   C1C31529  23.196  11.884  10.235 -0.0494 -0.3286 -0.3205
 1314BOLB   C2C31530  22.982  11.925  10.568 -0.1239 -0.0895  0.1890
 1314BOLB   C3C31531  22.882  12.266  10.889 -0.1132  0.1269 -0.3523
 1314BOLB   C4C31532  22.690  12.639  11.221  0.2763  0.0332 -0.0575
 1314BOLB   C1D31533  22.951  12.611   9.809  0.3028  0.2718 -0.2564
 1314BOLB   C2D31534  23.203  12.948  10.083  0.0107 -0.3631 -0.0074
 1314BOLB   C3D31535  23.238  13.182  10.485  0.0308  0.0997 -0.0832
 1314BOLB   C4D31536  23.246  13.656  10.789 -0.0912 -0.2295  0.3518
 1315BOLB   NC131537  14.191  21.215  11.386  0.2457 -0.1306  0.3274
 1315BOLB   PO131538  13.784  21.133  11.116 -0.1486  0.0730  0.1869
 1315BOLB   GL131539  13.686  21.376  10.705 -0.2391 -0.1618 -0.4305
 1315BOLB   GL231540  13.912  21.534  10.759  0.2580 -0.1323  0.2080
 1315BOLB   C1A31541  13.715  21.564  10.260  0.1949 -0.0718  0.2379
 1315BOLB   C2A31542  13.635  21.487   9.847  0.1230 -0.2174 -0.2460
 1315BOLB   C3A31543  13.680  21.351   9.410  0.0711  0.4031 -0.2188
 1315BOLB   C4A31544  13.654  21.220   8.987 -0.0347 -0.1304 -0.1612
 1315BOLB   C1B31545  13.989  21.841  10.644  0.0254  0.1157  0.2686
 1315BOLB   C2B31546  13.867  22.227  10.594 -0.0535 -0.0651 -0.0416
 1315BOLB   C3B31547  14.088  22.555  10.616  0.2585 -0.0733  0.0554
 1315BOLB   C4B31548  13.937  23.071  10.506  0.1043 -0.0863 -0.2628
 1315BOLB   NC231549  13.955  22.397   6.842  0.1744  0.1726  0.0951
 1315BOLB   PO231550  14.377  22.368   6.995 -0.2533 -0.0719  0.0502
 1315BOLB   GL331551  14.205  22.317   7.443 -0.3559 -0.0216  0.3468
 1315BOLB   GL431552  14.448  22.274   7.764 -0.0051 -0.0434 -0.0856
 1315BOLB   C1C31553  14.060  22.006   7.863  0.0658  0.1269 -0.0001
 1315BOLB   C2C31554  14.113  21.878   8.310  0.2707 -0.0776  0.0309
 1315BOLB   C3C31555  14.107  21.460   8.393  0.1061 -0.0448 -0.0662
 1315BOLB   C4C31556  13.904  21.218   8.642 -0.2444  0.0642 -0.2638
 1315BOLB   C1D31557  14.855  22.337   8.082  0.1090 -0.2878  0.0928
 1315BOLB   C2D31558  15.289  22.360   8.236 -0.0282  0.0876  0.2803
 1315BOLB   C3D31559  15.540  22.465   8.592 -0.1865  0.4761 -0.0437
 1315BOLB   C4D31560  15.618  22.603   8.931  0.5184  0.1655 -0.3171
 1316BOLB   NC131561  18.238  17.673   9.809 -0.0589 -0.0479  0.2410
 1316BOLB   PO131562  18.533  17.725  10.099  0.0803 -0.0690  0.1335
 1316BOLB   GL131563  18.760  17.864   9.735 -0.2811  0.1580  0.1713
 1316BOLB   GL231564  18.582  17.932   9.407  0.1397  0.4125 -0.1646
 1316BOLB   C1A31565  19.232  17.851   9.526  0.3915  0.0339 -0.2407
 1316BOLB   C2A31566  19.537  17.783   9.274 -0.0631 -0.1906  0.1288
 1316BOLB   C3A31567  19.757  17.809   8.887 -0.0808 -0.0567 -0.1703
 1316BOLB   C4A31568  19.769  17.667   8.414  0.3303  0.4241  0.0366
 1316BOLB   C1B31569  18.907  17.881   9.147 -0.1205 -0.0578 -0.0670
 1316BOLB   C2B31570  19.252  17.760   8.892  0.0743 -0.0059  0.2275
 1316BOLB   C3B31571  19.212  17.651   8.463 -0.3615  0.0058  0.1339
 1316BOLB   C4B31572  19.006  17.595   8.025  0.0730 -0.0277 -0.0286
 1316BOLB   NC231573  19.291  17.948   6.470 -0.2623  0.0225 -0.2036
 1316BOLB   PO231574  19.558  18.260   6.275  0.0002 -0.1925 -0.2397
 1316BOLB   GL331575  19.397  18.349   6.747  0.2338 -0.1898  0.3233
 1316BOLB   GL431576  19.589  18.538   6.949 -0.1146 -0.1376  0.1888
 1316BOLB   C1C31577  19.490  18.081   7.078  0.0584 -0.1506  0.0817
 1316BOLB   C2C31578  19.263  17.725   7.186  0.0151 -0.1205 -0.1695
 1316BOLB   C3C31579  19.476  17.485   7.604 -0.0276 -0.0031  0.2107
 1316BOLB   C4C31580  19.544  17.554   7.976  0.1777 -0.0477 -0.1418
 1316BOLB   C1D31581  19.436  18.653   7.302  0.2924  0.0940  0.5183
 1316BOLB   C2D31582  19.476  18.557   7.705  0.1968 -0.0307  0.0118
 1316BOLB   C3D31583  19.885  18.459   7.971  0.2343 -0.0960  0.0112
 1316BOLB   C4D31584  20.230  18.345   8.178 -0.0492  0.1039 -0.1267
 1317BOLB   NC131585  12.825  17.749  10.094  0.0224  0.3835 -0.1707
 1317BOLB   PO131586  12.982  18.026   9.809  0.1444  0.0527  0.3838
 1317BOLB   GL131587  12.946  18.002   9.381  0.1831 -0.2942  0.2695
 1317BOLB   GL231588  13.178  18.006   9.247 -0.2675  0.1689 -0.2592
 1317BOLB   C1A31589  12.579  18.012   9.081 -0.1027 -0.4279 -0.1124
 1317BOLB   C2A31590  12.393  17.813   8.754 -0.0706 -0.1198  0.0297
 1317BOLB   C3A31591  12.302  17.732   8.376  0.0345 -0.2477 -0.1668
 1317BOLB   C4A31592  11.965  17.650   8.036  0.1078 -0.0823  0.0160
 1317BOLB   C1B31593  13.251  18.217   8.967  0.0550 -0.3964  0.0786
 1317BOLB   C2B31594  13.366  18.373   8.529 -0.1158  0.1503 -0.1874
 1317BOLB   C3B31595  13.537  18.099   8.207 -0.1230 -0.2416 -0.1629
 1317BOLB   C4B31596  13.355  17.712   7.931  0.3050 -0.0926 -0.0780
 1317BOLB   NC231597  11.795  18.744   6.085  0.1295 -0.0896 -0.0668
 1317BOLB   PO231598  11.986  18.356   6.003 -0.2541 -0.0557  0.1173
 1317BOLB   GL331599  11.828  18.097   6.357  0.0774 -0.1113  0.1466
 1317BOLB   GL431600  11.921  17.803   6.343 -0.0063 -0.0432  0.1836
 1317BOLB   C1C31601  11.740  17.932   6.806 -0.0722 -0.0743 -0.1914
 1317BOLB   C2C31602  11.512  17.762   7.191 -0.0805 -0.2351  0.0265
 1317BOLB   C3C31603  11.558  17.614   7.566 -0.0339  0.2022  0.0828
 1317BOLB   C4C31604  11.804  17.396   7.766 -0.1167 -0.1037  0.1842
 1317BOLB   C1D31605  12.222  17.714   6.543 -0.0011 -0.0690  0.5551
 1317BOLB   C2D31606  12.192  17.488   6.927  0.0385 -0.0422 -0.1684
 1317BOLB   C3D31607  12.052  17.655   7.361  0.1319 -0.2525 -0.4449
 1317BOLB   C4D31608  12.307  18.050   7.569 -0.2705 -0.1010  0.4417
 1318BOLB   NC131609  21.375  12.089  13.816  0.0415 -0.0823  0.0325
 1318BOLB   PO131610  21.005  11.769  13.576 -0.0694 -0.1110 -0.0820
 1318BOLB   GL131611  20.825  11.643  13.248  0.3884 -0.1379 -0.0207
 1318BOLB   GL231612  20.825  11.810  12.977  0.2084 -0.0475 -0.0858
 1318BOLB   C1A31613  21.045  11.239  12.985 -0.0857 -0.0208 -0.0433
 1318BOLB   C2A31614  21.215  10.754  12.822 -0.1806 -0.3035  0.0256
 1318BOLB   C3A31615  21.248  10.613  12.410  0.3272 -0.0369 -0.0783
 1318BOLB   C4A31616  21.457  10.387  12.118  0.0357  0.0158 -0.3387
 1318BOLB   C1B31617  21.188  11.792  12.811  0.3230 -0.0452  0.0803
 1318BOLB   C2B31618  21.386  11.531  12.681  0.0829  0.0668  0.1572
 1318BOLB   C3B31619  21.616  11.529  12.379  0.1062  0.3008 -0.1927
 1318BOLB   C4B31620  21.883  11.246  12.024  0.2141 -0.0183 -0.0937
 1318BOLB   NC231621  21.385   9.320  10.108 -0.1354 -0.0549  0.2249
 1318BOLB   PO231622  21.834   9.358  10.257  0.0950  0.5376 -0.0976
 1318BOLB   GL331623  21.902   9.611  10.502  0.1307  0.1007  0.0976
 1318BOLB   GL431624  22.151   9.790  10.602 -0.2057 -0.0370 -0.2762
 1318BOLB   C1C31625  21.534   9.917  10.700 -0.1507  0.2968 -0.1798
 1318BOLB   C2C31626  21.382  10.018  11.029 -0.0826  0.2236  0.1256
 1318BOLB   C3C31627  21.432  10.219  11.315 -0.3152 -0.0078  0.2393
 1318BOLB   C4C31628  21.552  10.254  11.743 -0.1765 -0.3168 -0.1839
 1318BOLB   C1D31629  22.024   9.968  10.901  0.1903 -0.1721 -0.1498
 1318BOLB   C2D31630  22.136   9.908  11.292  0.0547  0.0023  0.0812
 1318BOLB   C3D31631  22.234   9.606  11.545  0.4952  0.1929  0.0466
 1318BOLB   C4D31632  22.290   9.412  12.026 -0.0242 -0.1219  0.3483
 1319BOLB   NC131633  12.771   6.242  13.506  0.0091  0.2060  0.1322
 1319BOLB   PO131634  12.419   6.498  13.397 -0.0645  0.0089  0.0185
 1319BOLB   GL131635  12.491   6.552  12.993 -0.3344 -0.1153 -0.0700
 1319BOLB   GL231636  12.286   6.762  12.853 -0.0181  0.2850 -0.0510
 1319BOLB   C1A31637  12.578   6.792  12.456  0.3834  0.1655 -0.0202
 1319BOLB   C2A31638  12.790   6.643  12.065 -0.2124  0.0179 -0.0170
 1319BOLB   C3A31639  13.070   6.475  11.900 -0.1533  0.2479  0.0442
 1319BOLB   C4A31640  13.267   6.512  11.513 -0.0510  0.1019  0.3599
 1319BOLB   C1B31641  12.030   7.029  12.580  0.0695  0.2052  0.0194
 1319BOLB   C2B31642  11.773   7.099  12.235 -0.2421  0.0051  0.1592
 1319BOLB   C3B31643  11.559   7.235  11.736  0.1556  0.0968  0.0820
 1319BOLB   C4B31644  11.772   7.441  11.421 -0.1066  0.1302  0.0809
 1319BOLB   NC231645  14.062   4.929   9.511  0.0239  0.2044 -0.1967
 1319BOLB   PO231646  14.092   5.388   9.357 -0.0068  0.1670 -0.3071
 1319BOLB   GL331647  13.953   5.398   9.797 -0.0281 -0.1778  0.1055
 1319BOLB   GL431648  13.726   5.638   9.752 -0.3590  0.3129  0.2687
 1319BOLB   C1C31649  13.860   5.487  10.204  0.3260 -0.0273  0.2227
 1319BOLB   C2C31650  13.811   5.776  10.562  0.1480  0.1489  0.1166
 1319BOLB   C3C31651  13.476   6.001  10.798 -0.1715  0.0476 -0.1053
 1319BOLB   C4C31652  13.459   6.327  11.074  0.0528 -0.0409  0.0256
 1319BOLB   C1D31653  13.581   5.950  10.124 -0.0119  0.2284 -0.0495
 1319BOLB   C2D31654  13.661   6.290  10.480  0.0260 -0.4307 -0.2228
 1319BOLB   C3D31655  13.570   6.649  10.692  0.1221  0.2751 -0.0668
 1319BOLB   C4D31656  13.702   6.975  11.005 -0.2434 -0.0725 -0.1121
 1320BOLB   NC131657  12.604  12.711  10.815  0.1618  0.1409  0.0782
 1320BOLB   PO131658  12.937  12.563  10.915  0.0350  0.0524  0.1647
 1320BOLB   GL131659  13.126  12.481  10.431 -0.1236  0.2286  0.3620
 1320BOLB   GL231660  13.039  12.273  10.217 -0.2296  0.0443 -0.2422
 1320BOLB   C1A31661  13.208  12.680   9.912  0.0727 -0.0457  0.1003
 1320BOLB   C2A31662  13.044  12.550   9.571  0.2758  0.0365  0.0744
 1320BOLB   C3A31663  13.112  12.628   9.099 -0.0348  0.3305 -0.1696
 1320BOLB   C4A31664  13.188  12.631   8.623 -0.0830  0.0964 -0.0845
 1320BOLB   C1B31665  13.051  12.127   9.829 -0.0140 -0.1671 -0.0174
 1320BOLB   C2B31666  12.996  11.945   9.397  0.0606 -0.1365 -0.3437
 1320BOLB   C3B31667  13.067  11.888   8.972  0.0759  0.1729  0.0223
 1320BOLB   C4B31668  13.108  12.163   8.643  0.1305 -0.3748  0.0279
 1320BOLB   NC231669  12.610  11.684   6.366  0.1171  0.2750 -0.0981
 1320BOLB   PO231670  12.656  11.286   6.607  0.0015 -0.0051  0.1355
 1320BOLB   GL331671  12.753  11.524   6.923  0.0071 -0.2083 -0.2606
 1320BOLB   GL431672  12.716  11.320   7.223 -0.0561 -0.1187  0.1271
 1320BOLB   C1C31673  12.919  11.817   7.246  0.2559  0.1280 -0.0332
 1320BOLB   C2C31674  12.834  12.012   7.704 -0.1197  0.2698 -0.0511
 1320BOLB   C3C31675  13.098  12.348   7.883  0.0603 -0.1016  0.0001
 1320BOLB   C4C31676  13.193  12.479   8.236  0.1213  0.0161 -0.0237
 1320BOLB   C1D31677  12.840  11.238   7.607 -0.1035 -0.0748 -0.1754
 1320BOLB   C2D31678  12.818  11.223   8.078  0.1200 -0.3979  0.3147
 1320BOLB   C3D31679  12.815  11.082   8.522  0.3407  0.0776  0.1224
 1320BOLB   C4D31680  13.126  11.158   8.780  0.0097 -0.0066 -0.2030
 1321BOLB   NC131681  13.983  20.288  10.530  0.2548 -0.1019 -0.0158
 1321BOLB   PO131682  13.994  20.034  10.303 -0.0448 -0.4870 -0.0498
 1321BOLB   GL131683  14.023  20.254   9.958 -0.0630  0.1139  0.0730
 1321BOLB   GL231684  14.112  20.578  10.132 -0.2070  0.2251  0.1180
 1321BOLB   C1A31685  13.802  20.633   9.637  0.0066  0.0737 -0.3679
 1321BOLB   C2A31686  13.754  20.830   9.246 -0.1782  0.0450  0.4020
 1321BOLB   C3A31687  13.826  20.781   8.870  0.2822 -0.0925  0.2076
 1321BOLB   C4A31688  13.738  20.590   8.536  0.0558  0.1773 -0.0096
 1321BOLB   C1B31689  14.304  20.580   9.795 -0.0399  0.1456 -0.3227
 1321BOLB   C2B31690  14.224  20.705   9.330 -0.0937 -0.0548 -0.1664
 1321BOLB   C3B31691  14.185  21.129   9.083  0.2447  0.1028 -0.0642
 1321BOLB   C4B31692  14.328  21.473   8.968 -0.1311  0.1138 -0.1605
 1321BOLB   NC231693  14.030  20.225   6.167 -0.0687 -0.3532 -0.1092
 1321BOLB   PO231694  13.736  20.493   6.149 -0.3402 -0.1288  0.1517
 1321BOLB   GL331695  13.447  20.399   6.493 -0.2337  0.3358 -0.2028
 1321BOLB   GL431696  13.624  20.081   6.594  0.1771  0.0253  0.0107
 1321BOLB   C1C31697  13.273  20.388   6.889 -0.2491 -0.0023 -0.0185
 1321BOLB   C2C31698  13.455  20.295   7.345 -0.1758 -0.1063  0.4882
 1321BOLB   C3C31699  13.538  20.254   7.820 -0.0537 -0.1185 -0.3846
 1321BOLB   C4C31700  13.677  20.446   8.132 -0.1045 -0.4166  0.3024
 1321BOLB   C1D31701  13.582  19.576   6.773 -0.3313 -0.1150 -0.0601
 1321BOLB   C2D31702  13.643  19.329   7.142  0.1162 -0.1581  0.1572
 1321BOLB   C3D31703  13.462  19.364   7.557 -0.0799 -0.1248 -0.1048
 1321BOLB   C4D31704  13.351  19.663   7.821  0.2748  0.1292 -0.0473
 1322BOLB   NC131705  19.283   9.740  14.393 -0.0120 -0.0184  0.2535
 1322BOLB   PO131706  19.486   9.886  13.968 -0.0804 -0.0773  0.5075
 1322BOLB   GL131707  19.810   9.764  13.653 -0.2319  0.4754 -0.2341
 1322BOLB   GL231708  19.861   9.513  13.728 -0.2648  0.2072  0.0568
 1322BOLB   C1A31709  20.020   9.366  13.285 -0.0485 -0.1692 -0.1054
 1322BOLB   C2A31710  20.205   8.972  13.337 -0.2182 -0.0898 -0.1366
 1322BOLB   C3A31711  20.300   8.591  13.427  0.0897  0.1695  0.1604
 1322BOLB   C4A31712  20.559   8.346  13.305 -0.0978  0.1533 -0.1657
 1322BOLB   C1B31713  19.816   8.966  13.764 -0.0818  0.1636 -0.0602
 1322BOLB   C2B31714  19.924   8.527  13.778 -0.1704  0.0254 -0.1605
 1322BOLB   C3B31715  20.087   8.149  13.731  0.0668  0.1261 -0.2945
 1322BOLB   C4B31716  20.244   7.832  13.543 -0.2124 -0.1431 -0.1291
 1322BOLB   NC231717  20.764   6.582  12.109  0.2357 -0.0606  0.0306
 1322BOLB   PO231718  21.156   6.522  11.883 -0.0371  0.1911 -0.1752
 1322BOLB   GL331719  21.180   6.935  12.076  0.0413  0.1615  0.5470
 1322BOLB   GL431720  21.180   7.269  11.862  0.2390 -0.0833  0.1801
 1322BOLB   C1C31721  21.220   7.192  12.394 -0.1811 -0.2185  0.0623
 1322BOLB   C2C31722  20.993   7.539  12.435  0.2377 -0.3582  0.1287
 1322BOLB   C3C31723  20.836   7.935  12.516  0.0766  0.0930  0.2875
 1322BOLB   C4C31724  20.645   8.096  12.844  0.1482 -0.2955  0.0723
 1322BOLB   C1D31725  20.882   7.518  12.000 -0.0355 -0.0723  0.0709
 1322BOLB   C2D31726  20.575   7.717  12.153  0.1918  0.0683 -0.1127
 1322BOLB   C3D31727  20.287   7.939  12.438 -0.1122 -0.0853  0.1947
 1322BOLB   C4D31728  20.152   8.059  12.852 -0.0522  0.2176  0.0371
 1323BOLB   NC131729  16.066  10.490  12.173  0.2465 -0.3496 -0.0573
 1323BOLB   PO131730  15.700  10.288  11.986 -0.4671 -0.2055  0.0811
 1323BOLB   GL131731  15.729  10.068  11.556 -0.2856 -0.1760 -0.0759
 1323BOLB   GL231732  15.537  10.171  11.360  0.1656 -0.0627  0.0129
 1323BOLB   C1A31733  15.933   9.927  11.223 -0.0613  0.1287  0.0405
 1323BOLB   C2A31734  16.169   9.576  11.064 -0.3032  0.0342 -0.2976
 1323BOLB   C3A31735  16.378   9.519  10.728  0.0388  0.2610  0.1541
 1323BOLB   C4A31736  16.331   9.583  10.387  0.0348  0.3209 -0.0349
 1323BOLB   C1B31737  15.468   9.753  11.116  0.4343  0.0504 -0.0080
 1323BOLB   C2B31738  15.706   9.619  10.808 -0.0967 -0.0579  0.1482
 1323BOLB   C3B31739  15.931   9.277  10.789  0.0642 -0.0708 -0.0432
 1323BOLB   C4B31740  16.197   9.077  10.535  0.3439 -0.0639  0.0263
 1323BOLB   NC231741  16.475   8.088   8.413 -0.1948  0.2460 -0.1441
 1323BOLB   PO231742  16.653   8.582   8.457 -0.1256  0.2741  0.2620
 1323BOLB   GL331743  16.413   8.809   8.655 -0.2209  0.2034 -0.0713
 1323BOLB   GL431744  16.262   8.713   8.954  0.0571 -0.5191  0.2695
 1323BOLB   C1C31745  16.622   9.065   8.971  0.0673 -0.2502  0.1744
 1323BOLB   C2C31746  16.807   9.439   9.211 -0.0062  0.4106  0.3756
 1323BOLB   C3C31747  16.687   9.571   9.596 -0.0213  0.0436  0.1338
 1323BOLB   C4C31748  16.533   9.486   9.902  0.2877  0.0487  0.4712
 1323BOLB   C1D31749  16.587   8.621   9.255 -0.0887  0.2634 -0.0341
 1323BOLB   C2D31750  16.648   8.309   9.516 -0.1871  0.3615  0.2455
 1323BOLB   C3D31751  17.050   8.150   9.730  0.0082 -0.1587  0.1490
 1323BOLB   C4D31752  17.173   7.995  10.050  0.1119 -0.2646  0.0304
 1324BOLB   NC131753  18.472  20.127  11.015 -0.1826  0.0730  0.3348
 1324BOLB   PO131754  18.076  19.954  10.808  0.0759 -0.0855  0.2030
 1324BOLB   GL131755  17.872  20.104  10.471 -0.2561 -0.1528 -0.1279
 1324BOLB   GL231756  17.570  19.861  10.405  0.1889 -0.1520  0.1443
 1324BOLB   C1A31757  17.659  20.242  10.045 -0.2147 -0.3792  0.1621
 1324BOLB   C2A31758  17.565  20.422   9.748 -0.1409  0.4932  0.0668
 1324BOLB   C3A31759  17.486  20.683   9.430  0.1899 -0.1102 -0.4010
 1324BOLB   C4A31760  17.424  20.519   8.961  0.5262 -0.1584 -0.0035
 1324BOLB   C1B31761  17.826  19.771  10.010 -0.0633 -0.0562  0.0840
 1324BOLB   C2B31762  17.903  19.986   9.576  0.3556 -0.0388  0.3050
 1324BOLB   C3B31763  17.953  20.417   9.267 -0.0388  0.0154 -0.0498
 1324BOLB   C4B31764  17.875  20.478   8.827  0.0293 -0.0906 -0.3708
 1324BOLB   NC231765  17.714  20.303   6.288 -0.1197  0.2036  0.1442
 1324BOLB   PO231766  18.120  20.428   6.561 -0.1165  0.2452  0.1349
 1324BOLB   GL331767  17.913  20.506   6.795  0.0524 -0.2002 -0.1077
 1324BOLB   GL431768  17.743  20.175   6.903  0.0664  0.0572 -0.0794
 1324BOLB   C1C31769  17.631  20.620   7.161 -0.0089 -0.0306 -0.3275
 1324BOLB   C2C31770  17.544  20.611   7.706 -0.1035  0.2872 -0.3223
 1324BOLB   C3C31771  17.601  20.386   8.096 -0.2412  0.1351 -0.1689
 1324BOLB   C4C31772  17.439  20.414   8.571  0.4916 -0.0788 -0.0262
 1324BOLB   C1D31773  17.685  20.114   7.401  0.2308 -0.1533 -0.1995
 1324BOLB   C2D31774  17.329  20.099   7.721 -0.0749 -0.0550 -0.1491
 1324BOLB   C3D31775  16.876  19.918   7.903  0.0490  0.0237  0.0970
 1324BOLB   C4D31776  16.478  19.817   7.721  0.2127 -0.0381  0.0366
 1325BOLB   NC131777  18.034  14.165  10.781 -0.4143  0.0237  0.1723
 1325BOLB   PO131778  18.019  13.816  10.968  0.1329 -0.1934  0.1544
 1325BOLB   GL131779  17.890  13.709  10.597 -0.1045 -0.0583  0.0368
 1325BOLB   GL231780  18.184  13.788  10.409 -0.2373 -0.2774  0.0547
 1325BOLB   C1A31781  17.805  13.617  10.129  0.0392 -0.1761 -0.1488
 1325BOLB   C2A31782  17.602  13.531   9.651  0.1563 -0.1264 -0.1948
 1325BOLB   C3A31783  17.720  13.330   9.355  0.0059  0.1450 -0.3139
 1325BOLB   C4A31784  17.605  13.309   8.937  0.2780  0.1635 -0.1102
 1325BOLB   C1B31785  18.459  13.794  10.018 -0.1180  0.0195  0.0169
 1325BOLB   C2B31786  18.524  13.691   9.600  0.2053 -0.2454  0.1010
 1325BOLB   C3B31787  18.500  13.468   9.155 -0.0219 -0.0992 -0.0921
 1325BOLB   C4B31788  18.555  13.357   8.767 -0.1408  0.0020  0.1896
 1325BOLB   NC231789  17.715  13.205   6.084  0.0559 -0.0187  0.0378
 1325BOLB   PO231790  17.412  12.887   6.319  0.2568  0.0575  0.3379
 1325BOLB   GL331791  17.225  12.979   6.772 -0.3954 -0.0257  0.0313
 1325BOLB   GL431792  17.068  13.272   6.809 -0.0382 -0.1028 -0.0235
 1325BOLB   C1C31793  17.142  12.927   7.220 -0.0218  0.2065  0.0223
 1325BOLB   C2C31794  17.265  13.153   7.656  0.1869  0.0911  0.2547
 1325BOLB   C3C31795  17.536  13.084   8.014  0.1147 -0.0039 -0.2705
 1325BOLB   C4C31796  17.658  13.091   8.474  0.0537 -0.1265  0.2276
 1325BOLB   C1D31797  17.286  13.480   7.136  0.1310  0.0183  0.3586
 1325BOLB   C2D31798  17.584  13.563   7.563  0.1063 -0.0557  0.0538
 1325BOLB   C3D31799  17.896  13.412   7.819 -0.2170  0.1007 -0.2078
 1325BOLB   C4D31800  18.283  13.328   8.080  0.1644  0.0508  0.1282
 1326BOLB   NC131801  13.942  15.538   9.815 -0.0811 -0.1233 -0.2317
 1326BOLB   PO131802  14.292  15.370   9.842  0.2245 -0.2246 -0.0010
 1326BOLB   GL131803  14.306  15.338   9.423 -0.1752 -0.2387 -0.2766
 1326BOLB   GL231804  13.940  15.192   9.440  0.1056 -0.2844 -0.1937
 1326BOLB   C1A31805  14.160  15.565   8.989 -0.3848 -0.0761  0.1555
 1326BOLB   C2A31806  14.486  15.604   8.582 -0.0896  0.0789  0.4903
 1326BOLB   C3A31807  14.688  15.506   8.166  0.1923  0.0076 -0.0403
 1326BOLB   C4A31808  14.696  15.643   7.741  0.2836 -0.0046  0.1268
 1326BOLB   C1B31809  13.979  15.077   9.035 -0.0442 -0.0049  0.1678
 1326BOLB   C2B31810  14.151  15.142   8.562  0.1324  0.0573  0.1708
 1326BOLB   C3B31811  14.012  14.909   8.192 -0.1504  0.3005 -0.0289
 1326BOLB   C4B31812  14.104  14.503   7.981  0.0570  0.1774  0.0382
 1326BOLB   NC231813  14.497  16.179   5.903 -0.1924  0.1202  0.0776
 1326BOLB   PO231814  14.668  16.557   5.808 -0.0845  0.1700  0.0142
 1326BOLB   GL331815  14.448  16.619   6.166 -0.2563  0.1156 -0.0630
 1326BOLB   GL431816  14.155  16.738   6.273 -0.1865 -0.1131  0.1149
 1326BOLB   C1C31817  14.619  16.394   6.605 -0.0017  0.3129 -0.1351
 1326BOLB   C2C31818  14.805  16.180   6.963 -0.3146  0.4297  0.0262
 1326BOLB   C3C31819  15.114  15.871   7.142 -0.0239 -0.0855  0.0109
 1326BOLB   C4C31820  14.937  15.704   7.468 -0.1895 -0.0067 -0.2654
 1326BOLB   C1D31821  14.158  16.763   6.738  0.2613 -0.1474  0.0772
 1326BOLB   C2D31822  13.941  16.684   7.154  0.2476 -0.2310 -0.2262
 1326BOLB   C3D31823  14.042  16.869   7.502  0.2297 -0.1611 -0.1188
 1326BOLB   C4D31824  14.046  17.155   7.796  0.0289 -0.0881 -0.0169
 1327BOLB   NC131825  19.848  12.083  12.998 -0.3779 -0.0575 -0.0925
 1327BOLB   PO131826  19.675  11.785  12.704  0.1712 -0.0545  0.0121
 1327BOLB   GL131827  19.730  11.364  12.498  0.0587  0.1079 -0.1420
 1327BOLB   GL231828  19.400  11.082  12.326 -0.0059 -0.1276 -0.4714
 1327BOLB   C1A31829  19.809  11.134  12.085 -0.1228  0.0749 -0.0875
 1327BOLB   C2A31830  20.007  10.692  11.840  0.0735 -0.0323 -0.0931
 1327BOLB   C3A31831  20.178  10.229  11.854  0.0776 -0.0452 -0.0252
 1327BOLB   C4A31832  20.358   9.945  11.683 -0.0053 -0.1384  0.1114
 1327BOLB   C1B31833  19.566  10.731  12.120 -0.1970 -0.0005 -0.2404
 1327BOLB   C2B31834  19.509  10.458  11.789 -0.0735 -0.4754 -0.0931
 1327BOLB   C3B31835  19.801  10.249  11.603  0.0414  0.2174 -0.0180
 1327BOLB   C4B31836  20.113  10.219  11.343  0.0376 -0.0222 -0.4075
 1327BOLB   NC231837  20.583   8.067  10.267 -0.1524 -0.0369 -0.0346
 1327BOLB   PO231838  20.165   8.038  10.448 -0.1957  0.1756  0.1454
 1327BOLB   GL331839  20.251   8.481  10.486  0.0298  0.0083  0.2429
 1327BOLB   GL431840  19.879   8.684  10.507 -0.0569  0.1040  0.0477
 1327BOLB   C1C31841  20.335   8.724  10.791  0.0044  0.0557  0.1111
 1327BOLB   C2C31842  20.010   9.078  10.860  0.1001 -0.1966  0.1346
 1327BOLB   C3C31843  19.909   9.436  11.038  0.1571 -0.0326  0.4285
 1327BOLB   C4C31844  20.053   9.718  11.374 -0.0363 -0.0939 -0.1773
 1327BOLB   C1D31845  19.704   8.588  10.890  0.0358  0.1598  0.0802
 1327BOLB   C2D31846  19.542   8.237  11.094  0.0510  0.2127  0.3278
 1327BOLB   C3D31847  19.820   8.049  11.485  0.1513  0.1811 -0.5168
 1327BOLB   C4D31848  20.101   7.919  11.799  0.1528 -0.3908 -0.2733
 1328BOLB   NC131849  11.610  17.069  10.795 -0.0238  0.2173 -0.0865
 1328BOLB   PO131850  11.439  17.337  10.492  0.1335  0.0939  0.2531
 1328BOLB   GL131851  11.434  17.215  10.056  0.2708  0.0870 -0.2284
 1328BOLB   GL231852  11.409  17.303   9.753  0.0300 -0.0076 -0.0926
 1328BOLB   C1A31853  11.145  16.909   9.729  0.2233  0.0305 -0.0067
 1328BOLB   C2A31854  10.842  16.807   9.342  0.1694  0.0140  0.0320
 1328BOLB   C3A31855  10.601  16.863   8.914 -0.2126 -0.0469  0.0108
 1328BOLB   C4A31856  10.572  16.738   8.455  0.3002  0.2779  0.0113
 1328BOLB   C1B31857  11.349  17.189   9.394  0.0554  0.1745 -0.4980
 1328BOLB   C2B31858  11.590  17.107   9.007  0.0783  0.6305  0.0696
 1328BOLB   C3B31859  11.722  17.016   8.654 -0.0525  0.0422 -0.0921
 1328BOLB   C4B31860  12.102  16.925   8.573  0.0439 -0.0566 -0.0932
 1328BOLB   NC231861  11.146  17.272   6.279  0.0918 -0.0047  0.2800
 1328BOLB   PO231862  10.627  17.495   6.215  0.2327 -0.0344 -0.0783
 1328BOLB   GL331863  10.780  17.408   6.699 -0.0170  0.1202  0.0909
 1328BOLB   GL431864  11.077  17.465   6.890  0.0291  0.0794  0.0051
 1328BOLB   C1C31865  10.677  17.131   7.075 -0.1982  0.2289  0.0647
 1328BOLB   C2C31866  10.359  17.031   7.327  0.0238 -0.4367  0.1166
 1328BOLB   C3C31867  10.195  17.010   7.781 -0.3647  0.1735 -0.1264
 1328BOLB   C4C31868  10.283  16.732   8.087  0.4035  0.0345 -0.3139
 1328BOLB   C1D31869  11.226  17.277   7.221  0.1776 -0.1539 -0.0614
 1328BOLB   C2D31870  11.366  17.151   7.551  0.2655  0.2780 -0.2103
 1328BOLB   C3D31871  11.240  16.985   7.890  0.2885  0.2914 -0.0926
 1328BOLB   C4D31872  11.277  17.012   8.406  0.1414  0.2080 -0.2653
 1329BOLB   NC131873  20.549  20.313  11.295 -0.1022  0.0288  0.1473
 1329BOLB   PO131874  20.904  20.314  11.311 -0.0064 -0.0914 -0.2795
 1329BOLB   GL131875  21.010  20.486  10.966 -0.0400  0.0266 -0.0902
 1329BOLB   GL231876  20.699  20.491  10.873 -0.3005  0.0227  0.0278
 1329BOLB   C1A31877  21.294  20.755  10.787  0.0558  0.0646 -0.1692
 1329BOLB   C2A31878  21.635  20.709  10.599  0.0222  0.0769 -0.1325
 1329BOLB   C3A31879  21.989  20.740  10.446 -0.2789  0.1107 -0.0049
 1329BOLB   C4A31880  22.165  20.780  10.050 -0.3011 -0.0430 -0.1899
 1329BOLB   C1B31881  20.787  20.607  10.427 -0.0033 -0.3224  0.0091
 1329BOLB   C2B31882  20.698  20.781  10.059 -0.0715 -0.6408 -0.2376
 1329BOLB   C3B31883  20.674  20.938   9.626  0.3668  0.0687  0.2027
 1329BOLB   C4B31884  20.840  21.233   9.329  0.3199 -0.4709  0.1062
 1329BOLB   NC231885  23.660  21.349   7.972  0.3843  0.0534  0.0130
 1329BOLB   PO231886  23.454  20.959   8.083  0.0248 -0.1441  0.1212
 1329BOLB   GL331887  23.319  20.830   8.476  0.1448  0.1079 -0.1055
 1329BOLB   GL431888  23.437  20.466   8.526 -0.1214 -0.1819  0.3904
 1329BOLB   C1C31889  23.162  21.054   8.811  0.2748  0.1647 -0.1220
 1329BOLB   C2C31890  23.021  20.984   9.155  0.0028  0.1702 -0.0981
 1329BOLB   C3C31891  22.759  20.862   9.494  0.0900 -0.2412  0.0959
 1329BOLB   C4C31892  22.545  20.719   9.811 -0.0527  0.2081  0.1677
 1329BOLB   C1D31893  23.424  20.015   8.751  0.1937 -0.0526  0.1533
 1329BOLB   C2D31894  23.304  19.645   8.890 -0.0437 -0.2073 -0.3609
 1329BOLB   C3D31895  23.003  19.485   9.331  0.1152  0.0876  0.3869
 1329BOLB   C4D31896  22.822  19.422   9.667 -0.0334  0.2036  0.0077
 1330BOLB   NC131897  12.279  19.067  10.595 -0.2682  0.2302  0.1058
 1330BOLB   PO131898  12.436  19.398  10.347  0.2959  0.0651  0.1640
 1330BOLB   GL131899  12.125  19.618  10.048  0.0854  0.2542 -0.0265
 1330BOLB   GL231900  11.948  19.777  10.136 -0.0571 -0.1245 -0.0687
 1330BOLB   C1A31901  12.230  19.650   9.542  0.0344 -0.0493  0.2068
 1330BOLB   C2A31902  12.283  19.590   9.114 -0.1788  0.1763 -0.0414
 1330BOLB   C3A31903  12.151  19.524   8.804 -0.1205 -0.1075 -0.3481
 1330BOLB   C4A31904  12.088  19.319   8.504 -0.1288 -0.1575 -0.0643
 1330BOLB   C1B31905  11.628  20.045   9.830  0.1685 -0.0601  0.1930
 1330BOLB   C2B31906  11.339  19.961   9.714 -0.4682  0.0609  0.2614
 1330BOLB   C3B31907  11.068  19.834   9.447 -0.0120  0.5146 -0.0187
 1330BOLB   C4B31908  10.935  19.942   9.016 -0.0208  0.1136 -0.1586
 1330BOLB   NC231909  10.769  19.117   6.163 -0.3734 -0.2918  0.1528
 1330BOLB   PO231910  10.775  18.883   6.494  0.1438  0.3335  0.0209
 1330BOLB   GL331911  10.969  18.821   6.837  0.1510 -0.0748 -0.0276
 1330BOLB   GL431912  11.219  18.859   6.839  0.4160  0.2043 -0.1754
 1330BOLB   C1C31913  11.205  18.640   7.274  0.0008 -0.1326  0.2016
 1330BOLB   C2C31914  11.461  18.800   7.532 -0.0523  0.0049  0.1096
 1330BOLB   C3C31915  11.716  18.676   7.974  0.1796 -0.2432 -0.0876
 1330BOLB   C4C31916  11.926  18.950   8.367 -0.0475  0.0323  0.0796
 1330BOLB   C1D31917  11.616  18.824   7.070 -0.1274  0.0153 -0.0430
 1330BOLB   C2D31918  11.914  19.023   7.390 -0.2542 -0.0347 -0.0587
 1330BOLB   C3D31919  12.149  19.025   7.771  0.0352  0.1821 -0.4876
 1330BOLB   C4D31920  12.419  19.098   8.131  0.1878 -0.3284 -0.3017
 1331BOLB   NC131921  12.239  24.692  13.141 -0.0824 -0.3583 -0.2267
 1331BOLB   PO131922  12.609  24.706  13.433  0.2616  0.2491 -0.1406
 1331BOLB   GL131923  12.625  25.013  13.072  0.0661  0.1753 -0.1477
 1331BOLB   GL231924  12.665  24.803  12.802 -0.2198  0.3306 -0.1923
 1331BOLB   C1A31925  12.859  25.447  12.804  0.2921  0.1031  0.0693
 1331BOLB   C2A31926  13.032  25.677  12.607  0.0616 -0.0883  0.0138
 1331BOLB   C3A31927  13.103  26.042  12.239 -0.1579 -0.0371  0.3924
 1331BOLB   C4A31928  13.152  26.376  11.987 -0.3254  0.2015  0.0226
 1331BOLB   C1B31929  12.971  25.002  12.648 -0.1516  0.1747  0.1605
 1331BOLB   C2B31930  13.201  25.293  12.305 -0.3545  0.3174 -0.1899
 1331BOLB   C3B31931  13.551  25.305  11.956 -0.1902 -0.0453 -0.2488
 1331BOLB   C4B31932  13.850  25.068  11.855 -0.0783 -0.1585  0.1866
 1331BOLB   NC231933  13.704  28.527  11.494 -0.2730 -0.1669 -0.1910
 1331BOLB   PO231934  13.337  28.535  11.632 -0.2103  0.2715 -0.2880
 1331BOLB   GL331935  13.038  28.282  11.621  0.3761 -0.0454 -0.2535
 1331BOLB   GL431936  12.706  28.294  11.523  0.0235  0.1606  0.0194
 1331BOLB   C1C31937  13.152  27.834  11.496 -0.2497  0.0533  0.3493
 1331BOLB   C2C31938  13.543  27.511  11.695  0.0101 -0.1450 -0.0767
 1331BOLB   C3C31939  13.530  27.124  11.907  0.0582 -0.0099  0.2545
 1331BOLB   C4C31940  13.268  26.781  11.819  0.0629  0.0296  0.1065
 1331BOLB   C1D31941  12.733  27.917  11.760  0.0029 -0.0047  0.0191
 1331BOLB   C2D31942  12.761  27.480  11.648 -0.0350 -0.0353 -0.2964
 1331BOLB   C3D31943  13.137  27.164  11.539 -0.0340  0.0435  0.4369
 1331BOLB   C4D31944  13.206  26.830  11.271 -0.1656  0.2873 -0.4353
 1332BOLB   NC131945   8.670  17.449  12.341  0.1380 -0.0454  0.1075
 1332BOLB   PO131946   8.786  17.288  11.947 -0.1143  0.0950 -0.1369
 1332BOLB   GL131947   8.582  17.397  11.591 -0.3409 -0.2538  0.0643
 1332BOLB   GL231948   8.820  17.689  11.452 -0.2365  0.2247 -0.0881
 1332BOLB   C1A31949   8.263  17.381  11.343 -0.0945  0.2200 -0.0303
 1332BOLB   C2A31950   7.996  17.755  11.040  0.2362 -0.0759 -0.1556
 1332BOLB   C3A31951   7.747  17.784  10.809 -0.2251  0.1988 -0.0127
 1332BOLB   C4A31952   7.423  18.169  10.650 -0.2734 -0.2861  0.0780
 1332BOLB   C1B31953   8.626  17.641  11.004  0.1544  0.1627  0.0810
 1332BOLB   C2B31954   8.397  17.797  10.645 -0.2463  0.2470 -0.3967
 1332BOLB   C3B31955   8.182  17.897  10.297 -0.1434  0.1944 -0.0978
 1332BOLB   C4B31956   8.069  17.963   9.777 -0.2603 -0.1584  0.0458
 1332BOLB   NC231957   5.402  18.312   9.326  0.0433 -0.0188 -0.0197
 1332BOLB   PO231958   5.766  18.116   9.071 -0.0418  0.2768  0.1935
 1332BOLB   GL331959   6.103  18.060   9.343  0.2184 -0.0756 -0.1094
 1332BOLB   GL431960   6.351  17.825   9.253  0.1812  0.1955  0.0848
 1332BOLB   C1C31961   6.502  18.196   9.547 -0.1551  0.1467 -0.1176
 1332BOLB   C2C31962   6.846  18.375   9.637  0.1504 -0.0218  0.0547
 1332BOLB   C3C31963   7.172  18.469   9.882 -0.2878  0.1623  0.1076
 1332BOLB   C4C31964   7.207  18.409  10.306  0.1349 -0.0460  0.3978
 1332BOLB   C1D31965   6.543  17.509   9.533 -0.2990  0.2290 -0.0987
 1332BOLB   C2D31966   6.807  17.406   9.820  0.0282  0.2711  0.1585
 1332BOLB   C3D31967   7.181  17.402  10.038  0.1168 -0.2195 -0.0478
 1332BOLB   C4D31968   7.472  17.446  10.309 -0.2603  0.0141 -0.3294
 1333BOLB   NC131969  15.760  10.188  12.938 -0.0075 -0.1798  0.3121
 1333BOLB   PO131970  15.734   9.887  12.583 -0.2860 -0.1499 -0.5927
 1333BOLB   GL131971  15.681   9.690  12.202 -0.0942  0.1114 -0.0870
 1333BOLB   GL231972  15.735   9.378  12.277  0.3129  0.0519  0.2506
 1333BOLB   C1A31973  15.565   9.673  11.753 -0.1339 -0.0082 -0.1227
 1333BOLB   C2A31974  15.647   9.429  11.417  0.1848 -0.1419 -0.0844
 1333BOLB   C3A31975  15.446   9.258  11.192 -0.0620 -0.0672 -0.1364
 1333BOLB   C4A31976  15.489   9.124  10.712  0.0933  0.1086 -0.1253
 1333BOLB   C1B31977  15.879   9.213  11.893  0.2455 -0.1667  0.1966
 1333BOLB   C2B31978  16.109   9.145  11.396  0.3320  0.0014 -0.1278
 1333BOLB   C3B31979  16.245   8.718  11.100 -0.0331  0.2377  0.2809
 1333BOLB   C4B31980  16.326   8.588  10.659  0.2055  0.1072 -0.2281
 1333BOLB   NC231981  15.583   7.848   8.656  0.1258  0.1295 -0.3243
 1333BOLB   PO231982  16.112   7.892   8.756  0.1126 -0.1519 -0.2258
 1333BOLB   GL331983  16.035   8.132   9.150 -0.0441 -0.4099  0.0732
 1333BOLB   GL431984  16.162   8.053   9.483  0.1088 -0.2990  0.0805
 1333BOLB   C1C31985  16.048   8.605   9.403 -0.2159  0.3205  0.2390
 1333BOLB   C2C31986  15.839   8.751   9.676  0.0813 -0.0841  0.4336
 1333BOLB   C3C31987  15.668   8.797  10.035 -0.1433  0.1140 -0.0266
 1333BOLB   C4C31988  15.538   9.098  10.345 -0.0903 -0.3841 -0.1812
 1333BOLB   C1D31989  16.251   8.428   9.814  0.1983  0.2543 -0.4513
 1333BOLB   C2D31990  16.247   8.696  10.102 -0.1712 -0.0444 -0.0502
 1333BOLB   C3D31991  16.569   9.071  10.199 -0.1793  0.4264 -0.0391
 1333BOLB   C4D31992  16.796   9.431  10.408  0.4047 -0.2306  0.0328
 1334BOLB   NC131993  20.032  13.010  11.642 -0.2848  0.0126 -0.0786
 1334BOLB   PO131994  20.220  12.970  12.078 -0.0826 -0.1299  0.1744
 1334BOLB   GL131995  20.366  12.641  11.773 -0.1246 -0.0455  0.3118
 1334BOLB   GL231996  20.065  12.531  11.484 -0.2535 -0.0755  0.3551
 1334BOLB   C1A31997  20.475  12.302  11.547 -0.2123  0.0655 -0.2608
 1334BOLB   C2A31998  20.333  12.088  11.203  0.1633 -0.0655 -0.2577
 1334BOLB   C3A31999  20.263  11.851  10.919 -0.1651 -0.1942 -0.0944
 1334BOLB   C4A32000  20.602  11.621  10.743 -0.1653  0.2746  0.0503
 1334BOLB   C1B32001  19.872  12.389  11.227 -0.0775 -0.2053  0.2617
 1334BOLB   C2B32002  19.917  12.141  10.807  0.0193  0.2238  0.0467
 1334BOLB   C3B32003  20.032  12.056  10.313 -0.2718 -0.1275  0.3252
 1334BOLB   C4B32004  20.331  11.994   9.867 -0.1799  0.0710 -0.2381
 1334BOLB   NC232005  21.413   9.891   9.220  0.1107  0.0362 -0.0826
 1334BOLB   PO232006  21.689   9.887   9.625 -0.0236 -0.1307 -0.0558
 1334BOLB   GL332007  21.709  10.235   9.898 -0.1635 -0.1612 -0.3150
 1334BOLB   GL432008  21.837  10.541  10.088 -0.0627 -0.2038  0.0790
 1334BOLB   C1C32009  21.376  10.619  10.011 -0.0756  0.3723  0.2396
 1334BOLB   C2C32010  21.185  10.915  10.271 -0.2999  0.0951  0.1290
 1334BOLB   C3C32011  21.157  11.371  10.320 -0.2061  0.1379  0.2982
 1334BOLB   C4C32012  21.007  11.602  10.603  0.0867  0.0005  0.0641
 1334BOLB   C1D32013  21.938  10.740  10.402 -0.1285 -0.1291  0.0312
 1334BOLB   C2D32014  22.050  10.838  10.795  0.0276 -0.0381 -0.0963
 1334BOLB   C3D32015  22.117  10.884  11.245  0.1902 -0.1979 -0.0510
 1334BOLB   C4D32016  22.474  10.674  11.476  0.1389 -0.1680 -0.0102
 1335BOLB   NC132017  12.273  10.759  11.389  0.1394 -0.1143  0.1570
 1335BOLB   PO132018  12.739  10.795  11.314 -0.3144 -0.2024  0.0565
 1335BOLB   GL132019  12.656  10.520  10.963 -0.2318  0.3544  0.0045
 1335BOLB   GL232020  12.797  10.198  10.923  0.2516 -0.0783 -0.1116
 1335BOLB   C1A32021  12.520  10.540  10.491  0.1233  0.0270  0.1744
 1335BOLB   C2A32022  12.502  10.348  10.117 -0.1402  0.1547 -0.1673
 1335BOLB   C3A32023  12.557   9.916   9.928 -0.1845 -0.3752 -0.0578
 1335BOLB   C4A32024  12.512   9.658   9.558  0.4026 -0.2168 -0.0777
 1335BOLB   C1B32025  12.915  10.233  10.492  0.0842 -0.3440 -0.1185
 1335BOLB   C2B32026  13.029   9.973  10.108 -0.1333 -0.1805 -0.4585
 1335BOLB   C3B32027  13.135   9.914   9.678  0.0742 -0.0574  0.3451
 1335BOLB   C4B32028  13.284   9.560   9.499  0.3044  0.0967 -0.0904
 1335BOLB   NC232029  13.662   7.524   7.743 -0.1735  0.2170 -0.1983
 1335BOLB   PO232030  13.508   7.806   8.031 -0.0022 -0.3688  0.2165
 1335BOLB   GL332031  13.351   8.014   8.393 -0.1134  0.0692  0.1740
 1335BOLB   GL432032  13.556   8.085   8.565  0.3698  0.1342  0.1752
 1335BOLB   C1C32033  13.120   8.430   8.611  0.2806 -0.3581 -0.0026
 1335BOLB   C2C32034  13.035   8.755   8.887  0.0362  0.1168 -0.0474
 1335BOLB   C3C32035  12.595   9.058   8.958 -0.2164  0.2003 -0.0770
 1335BOLB   C4C32036  12.454   9.346   9.234  0.2774 -0.0116  0.0077
 1335BOLB   C1D32037  13.497   8.243   9.001 -0.1526  0.0089  0.1109
 1335BOLB   C2D32038  13.301   8.522   9.263  0.3051 -0.0899  0.1468
 1335BOLB   C3D32039  13.244   8.725   9.638 -0.2593  0.2247  0.0274
 1335BOLB   C4D32040  13.411   9.120   9.719  0.2096 -0.0968  0.2815
 1336BOLB   NC132041  14.225  11.617  11.087 -0.1998 -0.0785  0.2246
 1336BOLB   PO132042  14.259  11.211  11.310  0.1413  0.1330  0.2310
 1336BOLB   GL132043  14.168  11.048  10.916 -0.2146  0.1248  0.2071
 1336BOLB   GL232044  14.005  11.371  10.647  0.0333 -0.0243 -0.3697
 1336BOLB   C1A32045  14.173  10.963  10.458  0.0098 -0.3212 -0.0041
 1336BOLB   C2A32046  14.148  10.872  10.025  0.3383  0.1337  0.1202
 1336BOLB   C3A32047  14.077  10.686   9.600  0.0891  0.2326  0.1066
 1336BOLB   C4A32048  14.241  10.623   9.209  0.4622 -0.3488  0.3462
 1336BOLB   C1B32049  13.765  11.172  10.375  0.0747  0.3326  0.1093
 1336BOLB   C2B32050  13.648  11.110   9.912 -0.1734  0.0072  0.0267
 1336BOLB   C3B32051  13.581  10.850   9.589 -0.0209 -0.1753 -0.3231
 1336BOLB   C4B32052  13.898  11.003   9.275 -0.0627 -0.2073 -0.1410
 1336BOLB   NC232053  14.008  10.458   7.004  0.1902 -0.0906 -0.2124
 1336BOLB   PO232054  13.835  10.287   7.367 -0.1259 -0.2982 -0.0847
 1336BOLB   GL332055  13.825  10.474   7.718 -0.2901  0.2440  0.3995
 1336BOLB   GL432056  13.865  10.200   7.854  0.1659 -0.2152 -0.2313
 1336BOLB   C1C32057  13.819  10.787   7.859 -0.0350  0.0332 -0.0170
 1336BOLB   C2C32058  13.645  10.711   8.208 -0.0558 -0.2279 -0.0124
 1336BOLB   C3C32059  13.769  10.486   8.520 -0.0525  0.2623 -0.2750
 1336BOLB   C4C32060  14.076  10.676   8.754 -0.2080  0.0145  0.1961
 1336BOLB   C1D32061  13.732  10.032   8.211  0.3264 -0.2603 -0.2721
 1336BOLB   C2D32062  13.834   9.887   8.629  0.0447  0.0626  0.5692
 1336BOLB   C3D32063  14.128   9.500   8.628 -0.0957  0.0081  0.0976
 1336BOLB   C4D32064  14.456   9.228   8.878  0.1876 -0.0591 -0.1089
 1337BOLB   NC132065  12.170  11.079  11.808  0.1115 -0.0526 -0.0594
 1337BOLB   PO132066  11.812  10.785  11.570 -0.0663 -0.2608  0.0418
 1337BOLB   GL132067  11.562  10.623  11.222 -0.3201  0.1789 -0.2596
 1337BOLB   GL232068  11.356  10.412  11.251  0.0035 -0.1996 -0.0122
 1337BOLB   C1A32069  11.239  10.732  10.812 -0.1392 -0.1878 -0.2143
 1337BOLB   C2A32070  11.339  10.648  10.406  0.1905  0.2126  0.0532
 1337BOLB   C3A32071  11.265  10.482  10.045  0.3766 -0.0537 -0.3377
 1337BOLB   C4A32072  11.377  10.697   9.698  0.0867 -0.3153  0.2247
 1337BOLB   C1B32073  11.361  10.142  10.934 -0.0406  0.1761 -0.1864
 1337BOLB   C2B32074  11.610  10.249  10.563 -0.1683 -0.1819  0.3766
 1337BOLB   C3B32075  11.895   9.998  10.385 -0.1890 -0.5351  0.0581
 1337BOLB   C4B32076  12.096  10.065   9.995 -0.1093  0.1700  0.0020
 1337BOLB   NC232077  11.047  10.047   7.525  0.0112 -0.3019 -0.3194
 1337BOLB   PO232078  11.061  10.502   7.516 -0.2062  0.0498  0.0060
 1337BOLB   GL332079  11.385  10.733   7.660 -0.0930  0.2099 -0.2564
 1337BOLB   GL432080  11.523  11.160   7.637 -0.0123 -0.3245  0.0517
 1337BOLB   C1C32081  11.562  10.712   8.082 -0.1322 -0.3776  0.0316
 1337BOLB   C2C32082  11.533  10.878   8.484 -0.0108 -0.0244  0.1764
 1337BOLB   C3C32083  11.468  10.974   8.919  0.1434  0.2355  0.2009
 1337BOLB   C4C32084  11.315  10.864   9.311 -0.2324  0.0586 -0.1404
 1337BOLB   C1D32085  11.224  11.274   7.904 -0.0371 -0.1806  0.0331
 1337BOLB   C2D32086  11.110  11.653   8.092  0.2441  0.2081  0.0238
 1337BOLB   C3D32087  11.407  11.868   8.353  0.2791 -0.0007 -0.1712
 1337BOLB   C4D32088  11.472  12.303   8.421 -0.1320  0.3632 -0.1629
 1338BOLB   NC132089  18.163  18.625  10.245  0.3303  0.0247  0.0593
 1338BOLB   PO132090  18.162  19.073  10.447 -0.0747  0.2981  0.0702
 1338BOLB   GL132091  18.281  19.101   9.975 -0.1517  0.3088 -0.4217
 1338BOLB   GL232092  18.305  19.468   9.867  0.0775  0.0779  0.5739
 1338BOLB   C1A32093  18.545  19.183   9.558 -0.0317  0.0427  0.3325
 1338BOLB   C2A32094  18.777  18.957   9.228  0.0013 -0.1835 -0.0821
 1338BOLB   C3A32095  18.755  18.703   8.813  0.0233  0.0249 -0.0477
 1338BOLB   C4A32096  19.071  18.633   8.565  0.0311  0.0221 -0.0847
 1338BOLB   C1B32097  18.419  19.637   9.449  0.2647 -0.1877  0.4063
 1338BOLB   C2B32098  18.638  19.833   9.141  0.1871 -0.2961  0.0286
 1338BOLB   C3B32099  18.844  19.773   8.704 -0.1372  0.2009  0.1150
 1338BOLB   C4B32100  19.114  19.540   8.507  0.3273 -0.0749  0.1065
 1338BOLB   NC232101  18.473  18.441   6.092  0.2244 -0.1523 -0.0420
 1338BOLB   PO232102  18.347  18.809   6.337  0.0016 -0.2324 -0.0997
 1338BOLB   GL332103  18.299  18.773   6.690 -0.2314  0.0897 -0.2230
 1338BOLB   GL432104  17.936  18.641   6.785  0.1563  0.0698  0.2310
 1338BOLB   C1C32105  18.475  18.831   7.089  0.1244 -0.1990  0.3328
 1338BOLB   C2C32106  18.674  18.738   7.408  0.1037  0.2386 -0.1058
 1338BOLB   C3C32107  18.956  18.553   7.780  0.1678  0.2437 -0.1133
 1338BOLB   C4C32108  19.192  18.550   8.111  0.0287  0.0978  0.0767
 1338BOLB   C1D32109  17.978  18.616   7.190  0.2020 -0.0431  0.1703
 1338BOLB   C2D32110  18.190  18.640   7.550 -0.0371  0.2003  0.1042
 1338BOLB   C3D32111  18.097  18.709   8.060 -0.1474  0.0155  0.1036
 1338BOLB   C4D32112  17.937  18.598   8.440 -0.0396  0.3494  0.0910
 1339BOLB   NC132113  12.333   8.412  12.947  0.2325  0.0434 -0.0319
 1339BOLB   PO132114  12.133   8.694  12.671 -0.1111 -0.3964  0.0213
 1339BOLB   GL132115  12.413   8.427  12.401  0.1386  0.0312 -0.0355
 1339BOLB   GL232116  12.753   8.515  12.384  0.3068 -0.1324  0.4712
 1339BOLB   C1A32117  12.470   8.206  12.050 -0.0856 -0.3520  0.0136
 1339BOLB   C2A32118  12.575   7.838  11.912 -0.1448 -0.1675 -0.0824
 1339BOLB   C3A32119  12.758   7.540  11.735 -0.0918 -0.2589 -0.3203
 1339BOLB   C4A32120  12.965   7.410  11.369  0.0741  0.0749  0.2821
 1339BOLB   C1B32121  13.015   8.194  11.945  0.1356 -0.0485 -0.0492
 1339BOLB   C2B32122  12.993   7.953  11.539 -0.0204  0.2606  0.0246
 1339BOLB   C3B32123  13.152   7.826  11.159  0.3696 -0.1633  0.1541
 1339BOLB   C4B32124  13.031   7.786  10.796 -0.2211 -0.0638 -0.2442
 1339BOLB   NC232125  12.125   6.985   8.602 -0.2962 -0.1222  0.1184
 1339BOLB   PO232126  12.431   7.138   8.826  0.2468  0.2069 -0.0506
 1339BOLB   GL332127  12.483   7.064   9.240  0.1578  0.1247  0.0226
 1339BOLB   GL432128  12.736   6.829   9.379  0.1048 -0.0294  0.4297
 1339BOLB   C1C32129  12.537   7.174   9.691 -0.0723  0.1053 -0.1116
 1339BOLB   C2C32130  12.764   7.259  10.105 -0.0261 -0.3152  0.0352
 1339BOLB   C3C32131  12.957   7.416  10.512  0.0326 -0.1180  0.5998
 1339BOLB   C4C32132  13.070   7.293  10.906 -0.0494  0.3416  0.0130
 1339BOLB   C1D32133  13.043   7.053   9.733 -0.1460 -0.1821  0.2146
 1339BOLB   C2D32134  13.261   7.358  10.023  0.0629 -0.4134 -0.0843
 1339BOLB   C3D32135  13.456   7.802  10.259  0.1593  0.4266 -0.2100
 1339BOLB   C4D32136  13.520   8.021  10.602 -0.1946 -0.0904  0.3605
 1340BOLB   NC132137  12.240  23.872  12.725 -0.3259  0.0311 -0.1431
 1340BOLB   PO132138  12.059  24.305  12.924  0.2451  0.1063 -0.0617
 1340BOLB   GL132139  12.277  24.528  12.625  0.1039 -0.1324  0.2107
 1340BOLB   GL232140  12.129  24.315  12.302  0.0205 -0.1490 -0.4217
 1340BOLB   C1A32141  12.419  24.885  12.386  0.1167 -0.0613 -0.2776
 1340BOLB   C2A32142  12.782  24.958  12.211 -0.1694  0.0015  0.2488
 1340BOLB   C3A32143  13.025  25.136  11.881 -0.0003  0.2219  0.0159
 1340BOLB   C4A32144  13.080  25.359  11.487 -0.4420  0.2472  0.1950
 1340BOLB   C1B32145  12.245  24.506  11.892  0.3677 -0.1184  0.2947
 1340BOLB   C2B32146  12.289  24.575  11.408 -0.0861 -0.1723  0.1546
 1340BOLB   C3B32147  12.315  24.487  10.931 -0.1444 -0.1006  0.3164
 1340BOLB   C4B32148  12.540  24.399  10.547  0.1390 -0.2015 -0.1816
 1340BOLB   NC232149  13.753  26.017   9.637  0.2462  0.1326  0.2058
 1340BOLB   PO232150  13.303  26.234   9.520 -0.2457 -0.0709 -0.0880
 1340BOLB   GL332151  13.265  25.808   9.505  0.3299 -0.3046 -0.1032
 1340BOLB   GL432152  13.438  25.612   9.740 -0.3675  0.1401  0.0275
 1340BOLB   C1C32153  12.958  25.736   9.835 -0.1022 -0.1503  0.1056
 1340BOLB   C2C32154  12.982  25.661  10.322  0.0671 -0.0455  0.0058
 1340BOLB   C3C32155  13.079  25.472  10.675  0.0879  0.0471 -0.3231
 1340BOLB   C4C32156  13.216  25.283  11.118  0.1374  0.3248  0.0671
 1340BOLB   C1D32157  13.305  25.354  10.017 -0.1510  0.2159  0.1103
 1340BOLB   C2D32158  13.421  25.117  10.440  0.0839  0.0936 -0.0459
 1340BOLB   C3D32159  13.651  24.769  10.576 -0.2660 -0.2375 -0.0198
 1340BOLB   C4D32160  13.684  24.458  10.466 -0.3647  0.2382  0.3286
 1341BOLB   NC132161  19.845  21.770  12.596  0.4353  0.1230  0.0842
 1341BOLB   PO132162  20.089  21.992  12.212  0.1438 -0.1219 -0.3567
 1341BOLB   GL132163  19.985  21.997  11.894  0.1568  0.1339  0.2065
 1341BOLB   GL232164  19.789  22.336  11.791 -0.0340  0.2750  0.0264
 1341BOLB   C1A32165  19.762  22.021  11.385 -0.1107 -0.2315 -0.2585
 1341BOLB   C2A32166  19.447  22.380  10.954  0.1701  0.2130  0.0964
 1341BOLB   C3A32167  19.439  22.584  10.503 -0.0710 -0.2487  0.0740
 1341BOLB   C4A32168  19.643  22.547  10.196  0.1743  0.0347  0.0612
 1341BOLB   C1B32169  19.570  22.798  11.710  0.0410  0.1009  0.0163
 1341BOLB   C2B32170  19.582  23.179  11.527  0.1725  0.1448  0.2084
 1341BOLB   C3B32171  19.835  23.511  11.376 -0.2873 -0.1894  0.4558
 1341BOLB   C4B32172  19.974  23.943  11.541 -0.3005  0.1473 -0.1226
 1341BOLB   NC232173  19.448  24.383   8.594 -0.0767 -0.0215 -0.3174
 1341BOLB   PO232174  19.782  24.054   8.501  0.1068  0.1207 -0.1896
 1341BOLB   GL332175  19.501  23.824   8.902 -0.2530 -0.1784  0.0779
 1341BOLB   GL432176  19.175  23.958   9.027 -0.1904 -0.2860  0.1062
 1341BOLB   C1C32177  19.782  23.585   9.180  0.1435 -0.0046 -0.0874
 1341BOLB   C2C32178  20.079  23.401   9.465 -0.5040  0.0557 -0.1025
 1341BOLB   C3C32179  20.154  23.040   9.667 -0.0008 -0.2069  0.0150
 1341BOLB   C4C32180  19.936  22.685   9.880 -0.0511  0.3049 -0.0694
 1341BOLB   C1D32181  18.844  23.955   9.336 -0.0380 -0.0196 -0.0626
 1341BOLB   C2D32182  18.536  23.992   9.543 -0.1022 -0.3797  0.0443
 1341BOLB   C3D32183  18.224  23.709   9.879 -0.1785  0.2225  0.0600
 1341BOLB   C4D32184  18.201  23.435  10.282  0.1156  0.2745  0.0329
 1342BOLB   NC132185  14.828   8.605  13.079 -0.0311 -0.0842  0.0488
 1342BOLB   PO132186  14.881   8.336  13.304 -0.1869 -0.2501  0.1229
 1342BOLB   GL132187  15.152   8.213  13.096  0.1451 -0.0435  0.0501
 1342BOLB   GL232188  15.513   8.073  13.012  0.0132 -0.1377  0.2458
 1342BOLB   C1A32189  15.039   8.073  12.682 -0.3329  0.3039 -0.0189
 1342BOLB   C2A32190  15.155   7.843  12.257  0.0159 -0.4162  0.0620
 1342BOLB   C3A32191  15.374   7.451  12.054 -0.0735 -0.0981 -0.1047
 1342BOLB   C4A32192  15.633   7.153  11.778 -0.0815 -0.3722 -0.0385
 1342BOLB   C1B32193  15.883   7.918  12.845  0.1828  0.0177 -0.0011
 1342BOLB   C2B32194  16.109   7.528  12.680 -0.1101  0.0646 -0.0786
 1342BOLB   C3B32195  16.477   7.319  12.585  0.2343  0.0476 -0.1146
 1342BOLB   C4B32196  16.669   7.053  12.271  0.0800 -0.0475  0.1837
 1342BOLB   NC232197  16.478   6.596  10.167  0.1381 -0.0489  0.2970
 1342BOLB   PO232198  16.793   6.855  10.084  0.1615 -0.0674  0.2528
 1342BOLB   GL332199  17.029   6.701  10.396 -0.0660  0.0338 -0.0214
 1342BOLB   GL432200  17.029   7.074  10.470  0.0291  0.0689  0.3067
 1342BOLB   C1C32201  17.001   6.791  10.826  0.2586  0.2211 -0.2759
 1342BOLB   C2C32202  16.748   6.808  11.248 -0.0836 -0.0598  0.1342
 1342BOLB   C3C32203  16.328   6.927  11.275 -0.0075  0.1383  0.0245
 1342BOLB   C4C32204  16.051   6.977  11.587  0.1050 -0.1277  0.1362
 1342BOLB   C1D32205  16.959   7.422  10.751  0.0306 -0.2416  0.1849
 1342BOLB   C2D32206  16.883   7.822  10.933  0.1074 -0.0361 -0.0895
 1342BOLB   C3D32207  17.220   8.120  10.995  0.1318  0.2893  0.0442
 1342BOLB   C4D32208  17.589   8.078  11.316 -0.0360 -0.0216  0.2488
 1343BOLB   NC132209  15.832  11.356  11.956  0.0096  0.1897 -0.2303
 1343BOLB   PO132210  15.958  11.471  11.579 -0.0220  0.0005 -0.0936
 1343BOLB   GL132211  15.901  11.110  11.236  0.1295 -0.0231  0.0220
 1343BOLB   GL232212  15.559  10.907  11.223  0.0056  0.0344  0.0754
 1343BOLB   C1A32213  15.934  10.968  10.798  0.1799  0.2082  0.0143
 1343BOLB   C2A32214  16.057  10.563  10.518 -0.1106  0.0279 -0.0883
 1343BOLB   C3A32215  16.301  10.320  10.381 -0.2061  0.4265 -0.0981
 1343BOLB   C4A32216  16.368  10.083  10.118  0.2254 -0.0820 -0.2226
 1343BOLB   C1B32217  15.776  10.509  11.125 -0.0306  0.1278 -0.1195
 1343BOLB   C2B32218  15.827  10.189  10.805  0.3199  0.1928 -0.3428
 1343BOLB   C3B32219  15.930   9.968  10.421 -0.1283  0.0842 -0.0589
 1343BOLB   C4B32220  15.793   9.568  10.345 -0.2573  0.1778  0.0513
 1343BOLB   NC232221  17.154   9.500   8.522 -0.2206 -0.1587  0.1572
 1343BOLB   PO232222  17.022   9.376   8.098 -0.1099  0.0664 -0.0363
 1343BOLB   GL332223  16.592   9.537   8.256 -0.1335  0.4368  0.0322
 1343BOLB   GL432224  16.639   9.464   8.584 -0.1565 -0.1084 -0.1899
 1343BOLB   C1C32225  16.358   9.869   8.507 -0.1858 -0.1570  0.1140
 1343BOLB   C2C32226  16.318  10.027   8.842 -0.1209  0.0614 -0.1557
 1343BOLB   C3C32227  16.445  10.018   9.226  0.2706  0.2120  0.2061
 1343BOLB   C4C32228  16.498  10.011   9.685  0.0579 -0.1720 -0.0837
 1343BOLB   C1D32229  16.438   9.563   8.894 -0.0628 -0.0728  0.3431
 1343BOLB   C2D32230  16.021   9.679   9.200  0.0874 -0.3079  0.1322
 1343BOLB   C3D32231  16.098   9.814   9.578  0.4087 -0.1760  0.1846
 1343BOLB   C4D32232  16.061   9.743   9.958 -0.1722  0.0545  0.1815
 1344BOLB   NC132233  17.589  10.521  12.425  0.0657 -0.0419 -0.5690
 1344BOLB   PO132234  17.710  10.212  12.752 -0.1599 -0.3935  0.0723
 1344BOLB   GL132235  18.115  10.009  12.896  0.0208 -0.1561  0.0977
 1344BOLB   GL232236  18.490   9.957  12.863  0.2153 -0.2013 -0.0240
 1344BOLB   C1A32237  18.213   9.607  12.604 -0.3390  0.2779 -0.1347
 1344BOLB   C2A32238  18.482   9.423  12.253  0.1408 -0.0931 -0.3541
 1344BOLB   C3A32239  18.856   9.134  12.076 -0.0735 -0.1986  0.2277
 1344BOLB   C4A32240  19.327   9.204  11.907  0.3551  0.0212 -0.4444
 1344BOLB   C1B32241  18.812   9.762  12.897 -0.1530 -0.2879  0.2526
 1344BOLB   C2B32242  18.764   9.505  12.660  0.1822  0.0989 -0.3213
 1344BOLB   C3B32243  18.893   9.036  12.600 -0.1709  0.1881  0.1104
 1344BOLB   C4B32244  19.107   8.737  12.300 -0.1645  0.0132 -0.0503
 1344BOLB   NC232245  19.845   7.693  10.584 -0.1657  0.2651  0.0298
 1344BOLB   PO232246  20.330   7.615  10.694 -0.1646  0.1638 -0.2444
 1344BOLB   GL332247  20.357   7.991  10.940  0.1978 -0.0503 -0.2242
 1344BOLB   GL432248  20.327   7.955  11.354  0.3311 -0.3070 -0.0489
 1344BOLB   C1C32249  20.083   8.305  11.046 -0.1199 -0.0608 -0.0242
 1344BOLB   C2C32250  19.931   8.656  11.404 -0.0731  0.0424  0.2967
 1344BOLB   C3C32251  19.808   9.120  11.374  0.3792  0.4726 -0.2807
 1344BOLB   C4C32252  19.734   9.241  11.649 -0.1540  0.1463  0.1644
 1344BOLB   C1D32253  20.447   8.430  11.319 -0.2114  0.1947  0.1819
 1344BOLB   C2D32254  20.368   8.881  11.300 -0.2431 -0.0766 -0.3420
 1344BOLB   C3D32255  20.384   9.291  11.359 -0.0742 -0.1464  0.2397
 1344BOLB   C4D32256  20.627   9.607  11.438 -0.1531 -0.0639  0.1442
 1345BOLB   NC132257  12.985  12.160  11.186  0.3037  0.3010  0.1908
 1345BOLB   PO132258  12.658  12.098  10.971 -0.1526  0.0029 -0.2040
 1345BOLB   GL132259  12.856  11.923  10.697  0.1026 -0.0669  0.0844
 1345BOLB   GL232260  12.886  11.531  10.623  0.3925 -0.1078  0.0104
 1345BOLB   C1A32261  12.620  11.904  10.343  0.3844 -0.1264  0.2143
 1345BOLB   C2A32262  12.598  11.741   9.850  0.0776  0.2037  0.1367
 1345BOLB   C3A32263  12.513  11.639   9.423  0.1869 -0.5417 -0.4672
 1345BOLB   C4A32264  12.359  11.549   9.108  0.3137  0.2464 -0.2323
 1345BOLB   C1B32265  13.036  11.740  10.150 -0.4652 -0.1292  0.2061
 1345BOLB   C2B32266  13.107  11.573   9.774 -0.2124 -0.0330  0.0621
 1345BOLB   C3B32267  13.260  11.304   9.449 -0.1472 -0.0386  0.4338
 1345BOLB   C4B32268  13.517  11.329   9.104  0.0259 -0.0433  0.3228
 1345BOLB   NC232269  12.574   9.904   6.884 -0.1227 -0.0034 -0.0263
 1345BOLB   PO232270  12.697  10.317   7.138 -0.1785 -0.2362 -0.1450
 1345BOLB   GL332271  12.419  10.197   7.402 -0.4007  0.2445  0.0746
 1345BOLB   GL432272  12.629  10.045   7.629  0.2244  0.1681 -0.2462
 1345BOLB   C1C32273  12.183  10.550   7.692 -0.1540 -0.2022 -0.3051
 1345BOLB   C2C32274  12.086  10.708   8.166  0.0261 -0.2611 -0.1259
 1345BOLB   C3C32275  12.209  10.816   8.599  0.2770  0.3160 -0.0174
 1345BOLB   C4C32276  12.356  11.207   8.766  0.0376  0.0538 -0.1201
 1345BOLB   C1D32277  12.477  10.290   7.935  0.3318 -0.0920  0.2514
 1345BOLB   C2D32278  12.254  10.277   8.332 -0.0632 -0.1160  0.1372
 1345BOLB   C3D32279  11.986  10.331   8.715  0.2168  0.3497 -0.0219
 1345BOLB   C4D32280  12.001  10.205   9.080 -0.0907  0.1228  0.0810
 1346BOLB   NC132281  21.941  20.774  12.002  0.1730  0.1170  0.0491
 1346BOLB   PO132282  22.042  21.057  12.167  0.0508  0.2592 -0.1849
 1346BOLB   GL132283  22.243  21.349  11.814  0.0428  0.0213  0.0499
 1346BOLB   GL232284  22.423  21.529  11.953  0.4363 -0.4429  0.0307
 1346BOLB   C1A32285  22.202  21.696  11.451 -0.2390 -0.1019 -0.1430
 1346BOLB   C2A32286  22.286  21.813  11.055  0.1502 -0.0933 -0.3510
 1346BOLB   C3A32287  22.455  22.030  10.773 -0.0363 -0.5136  0.0042
 1346BOLB   C4A32288  22.478  22.471  10.556  0.0114  0.0131 -0.0567
 1346BOLB   C1B32289  22.672  21.707  11.606 -0.4244 -0.0759  0.1342
 1346BOLB   C2B32290  22.834  21.937  11.213 -0.0961 -0.2106 -0.1575
 1346BOLB   C3B32291  22.944  21.871  10.825  0.0226 -0.1792 -0.0995
 1346BOLB   C4B32292  23.059  21.436  10.711  0.1340 -0.1360 -0.3055
 1346BOLB   NC232293  21.810  23.105   8.845 -0.1354 -0.0137  0.1836
 1346BOLB   PO232294  21.414  23.209   8.978  0.1106  0.2427  0.0439
 1346BOLB   GL332295  21.429  23.452   9.383 -0.1625 -0.2547  0.0067
 1346BOLB   GL432296  21.129  23.261   9.503  0.1092  0.1305 -0.0321
 1346BOLB   C1C32297  21.683  23.437   9.760  0.0230  0.0004 -0.0712
 1346BOLB   C2C32298  21.927  23.073   9.922  0.3090  0.0170  0.1735
 1346BOLB   C3C32299  22.092  23.143  10.181  0.3433  0.4572 -0.1986
 1346BOLB   C4C32300  22.480  22.927  10.371 -0.2208  0.0163 -0.0849
 1346BOLB   C1D32301  21.371  22.999   9.845  0.1012  0.1758  0.1030
 1346BOLB   C2D32302  21.543  23.081  10.261  0.0133 -0.4318 -0.2410
 1346BOLB   C3D32303  21.752  22.849  10.478  0.0370  0.2080 -0.2574
 1346BOLB   C4D32304  22.062  22.682  10.714  0.0907  0.3049 -0.2348
 1347BOLB   NC132305  16.260  12.718  11.122 -0.5311  0.1639 -0.0365
 1347BOLB   PO132306  16.349  12.338  11.247 -0.1870 -0.0472 -0.1169
 1347BOLB   GL132307  16.175  12.043  10.908 -0.3961 -0.0495  0.0521
 1347BOLB   GL232308  15.968  12.257  10.868 -0.0364  0.1180  0.3637
 1347BOLB   C1A32309  16.291  11.797  10.474  0.0051 -0.3965  0.0366
 1347BOLB   C2A32310  16.588  11.386  10.492  0.1277 -0.1882 -0.1444
 1347BOLB   C3A32311  16.793  11.209  10.078 -0.1029 -0.1144  0.2962
 1347BOLB   C4A32312  16.730  10.916   9.687 -0.3982 -0.0556 -0.1484
 1347BOLB   C1B32313  15.839  12.095  10.488 -0.2231  0.0885  0.0686
 1347BOLB   C2B32314  15.995  11.862  10.109  0.1158  0.1131  0.2361
 1347BOLB   C3B32315  15.920  11.480   9.958  0.0554  0.0049 -0.3154
 1347BOLB   C4B32316  15.926  11.256   9.563 -0.0437 -0.8667  0.1032
 1347BOLB   NC232317  16.875   9.774   7.810  0.2045 -0.0502  0.1082
 1347BOLB   PO232318  16.595  10.111   7.840  0.2288 -0.0533 -0.0852
 1347BOLB   GL332319  16.712  10.421   8.037  0.2837  0.0375  0.2116
 1347BOLB   GL432320  16.651  10.730   7.795  0.0339  0.0184  0.0555
 1347BOLB   C1C32321  16.912  10.634   8.315 -0.1630 -0.1912 -0.1254
 1347BOLB   C2C32322  17.195  10.723   8.692 -0.0638  0.2393  0.1592
 1347BOLB   C3C32323  17.195  10.797   9.065  0.4875 -0.2815  0.0174
 1347BOLB   C4C32324  16.861  10.932   9.304  0.1457 -0.2027 -0.2584
 1347BOLB   C1D32325  16.496  10.838   8.191 -0.2381  0.6829 -0.1278
 1347BOLB   C2D32326  16.373  10.883   8.669 -0.0165 -0.1519 -0.0281
 1347BOLB   C3D32327  16.376  10.869   9.115 -0.1707 -0.1010 -0.1896
 1347BOLB   C4D32328  16.041  10.826   9.467  0.0756  0.3134 -0.0724
 1348BOLB   NC132329  12.598  16.018  10.196  0.0325 -0.1487  0.1722
 1348BOLB   PO132330  12.421  15.654  10.007  0.3041 -0.0632 -0.1647
 1348BOLB   GL132331  12.530  15.623   9.648 -0.2621 -0.2352 -0.0441
 1348BOLB   GL232332  12.706  15.783   9.588 -0.0898 -0.0948  0.3066
 1348BOLB   C1A32333  12.666  15.487   9.217 -0.2313 -0.2841 -0.0049
 1348BOLB   C2A32334  12.671  15.458   8.734  0.0497  0.0906  0.2063
 1348BOLB   C3A32335  12.726  15.437   8.308 -0.0486 -0.0407 -0.4016
 1348BOLB   C4A32336  12.549  15.262   7.931  0.3742 -0.1304 -0.3118
 1348BOLB   C1B32337  12.855  16.196   9.355  0.2960  0.2000  0.2491
 1348BOLB   C2B32338  13.163  16.251   8.960 -0.1061  0.1713 -0.0813
 1348BOLB   C3B32339  13.583  16.413   8.806  0.0549 -0.0831  0.0232
 1348BOLB   C4B32340  13.724  16.514   8.394 -0.2079 -0.1048  0.2829
 1348BOLB   NC232341  10.905  14.396   5.808 -0.0273 -0.2849  0.1785
 1348BOLB   PO232342  11.102  14.726   6.207 -0.0392  0.0400  0.2566
 1348BOLB   GL332343  11.235  14.781   6.644  0.0007 -0.0028 -0.2968
 1348BOLB   GL432344  11.425  14.538   6.717 -0.1418 -0.0291  0.2392
 1348BOLB   C1C32345  11.447  14.943   7.023 -0.1482  0.2862  0.1763
 1348BOLB   C2C32346  11.683  15.079   7.337 -0.1145 -0.0834  0.0140
 1348BOLB   C3C32347  12.098  15.070   7.367  0.0299  0.0985  0.0646
 1348BOLB   C4C32348  12.487  15.075   7.578  0.0282 -0.1098 -0.1066
 1348BOLB   C1D32349  11.778  14.692   6.672  0.2585 -0.0412 -0.0689
 1348BOLB   C2D32350  12.101  14.677   6.983 -0.3712  0.0858 -0.1180
 1348BOLB   C3D32351  12.503  14.992   7.056  0.4715 -0.4862 -0.0100
 1348BOLB   C4D32352  12.896  15.182   6.948  0.0465 -0.0521  0.0506
 1349BOLB   NC132353  20.481  12.670  12.968  0.1432 -0.2278  0.2481
 1349BOLB   PO132354  20.899  12.674  13.091 -0.1400  0.2793 -0.0774
 1349BOLB   GL132355  21.032  12.537  12.709  0.1419 -0.0313 -0.0796
 1349BOLB   GL232356  20.810  12.226  12.687 -0.0778  0.5182  0.0090
 1349BOLB   C1A32357  21.128  12.338  12.289 -0.0711 -0.1989 -0.2840
 1349BOLB   C2A32358  21.348  12.293  11.906 -0.0692 -0.2881 -0.0965
 1349BOLB   C3A32359  21.406  12.069  11.525  0.2454  0.1559 -0.0173
 1349BOLB   C4A32360  21.300  11.847  11.084 -0.0252 -0.1102  0.0129
 1349BOLB   C1B32361  20.929  11.902  12.371  0.0164  0.0522  0.1232
 1349BOLB   C2B32362  21.163  11.625  12.145  0.2516 -0.2305  0.0898
 1349BOLB   C3B32363  21.368  11.339  11.874 -0.1102 -0.0121 -0.0304
 1349BOLB   C4B32364  21.254  10.900  11.845 -0.1177  0.0664  0.2182
 1349BOLB   NC232365  22.575  11.892   8.781  0.1000 -0.0833 -0.1079
 1349BOLB   PO232366  22.732  11.928   9.194  0.2092 -0.0249 -0.0971
 1349BOLB   GL332367  22.440  12.023   9.415 -0.3615 -0.1182  0.1005
 1349BOLB   GL432368  22.580  12.236   9.568 -0.0942 -0.0710 -0.2641
 1349BOLB   C1C32369  22.041  11.937   9.559 -0.0745 -0.0064 -0.1504
 1349BOLB   C2C32370  21.759  11.856   9.879  0.2475 -0.3359 -0.2519
 1349BOLB   C3C32371  21.529  11.764  10.318  0.1117 -0.0863 -0.2845
 1349BOLB   C4C32372  21.430  11.632  10.773  0.0689 -0.3300 -0.2364
 1349BOLB   C1D32373  22.464  12.655   9.750  0.2142 -0.0843 -0.0550
 1349BOLB   C2D32374  22.253  12.917   9.962  0.1367  0.1577  0.0689
 1349BOLB   C3D32375  22.285  13.330  10.058  0.1070 -0.0251 -0.2887
 1349BOLB   C4D32376  22.335  13.734  10.377 -0.1820 -0.0763  0.1515
 1350BOLB   NC132377  18.521  18.754  10.689 -0.1865  0.3623  0.1628
 1350BOLB   PO132378  18.666  18.976  10.452  0.0375  0.1039 -0.1874
 1350BOLB   GL132379  18.650  18.759  10.068  0.1484  0.0139  0.0630
 1350BOLB   GL232380  18.802  18.804   9.861 -0.0993 -0.3038 -0.0445
 1350BOLB   C1A32381  18.430  18.709   9.599  0.2084 -0.2726  0.2494
 1350BOLB   C2A32382  18.297  18.850   9.177  0.1605  0.2604  0.1282
 1350BOLB   C3A32383  18.122  18.930   8.780  0.1368  0.0464  0.1332
 1350BOLB   C4A32384  18.284  19.108   8.483 -0.2086 -0.3038 -0.2509
 1350BOLB   C1B32385  19.098  18.719   9.621 -0.2790  0.0785  0.0882
 1350BOLB   C2B32386  19.064  18.611   9.191 -0.0905  0.1530  0.4030
 1350BOLB   C3B32387  19.139  18.253   8.926  0.3547 -0.1087  0.2294
 1350BOLB   C4B32388  19.153  18.167   8.513  0.1775  0.0301 -0.0416
 1350BOLB   NC232389  20.310  19.544   6.712 -0.3893 -0.1183 -0.0670
 1350BOLB   PO232390  19.858  19.303   6.743  0.1527 -0.1604  0.1703
 1350BOLB   GL332391  19.639  19.194   7.073  0.0341  0.2127 -0.1661
 1350BOLB   GL432392  19.823  19.116   7.271 -0.1643 -0.0314  0.0374
 1350BOLB   C1C32393  19.231  19.078   7.326 -0.0928  0.1618  0.0113
 1350BOLB   C2C32394  19.296  19.119   7.788 -0.0431  0.1587  0.0024
 1350BOLB   C3C32395  19.070  19.127   8.106 -0.0800 -0.2089  0.1075
 1350BOLB   C4C32396  18.665  19.369   8.229  0.1966 -0.1763  0.0147
 1350BOLB   C1D32397  19.619  19.403   7.545  0.3490 -0.1494 -0.0966
 1350BOLB   C2D32398  19.195  19.556   7.529 -0.1257  0.1840 -0.2829
 1350BOLB   C3D32399  18.967  19.781   7.728 -0.0431 -0.3351 -0.2017
 1350BOLB   C4D32400  18.893  19.800   8.162 -0.0166 -0.1700 -0.3915
 1351BOLB   NC132401   9.258  12.419  11.877 -0.0777  0.0075 -0.2568
 1351BOLB   PO132402   8.799  12.464  11.856  0.0225  0.1349 -0.1837
 1351BOLB   GL132403   8.755  12.466  11.422  0.0798 -0.1198 -0.2761
 1351BOLB   GL232404   8.725  12.154  11.323 -0.0648 -0.0115  0.2333
 1351BOLB   C1A32405   8.890  12.501  10.947  0.1556 -0.0318  0.0204
 1351BOLB   C2A32406   8.980  12.549  10.590  0.2236  0.1531  0.4529
 1351BOLB   C3A32407   9.024  12.415  10.160  0.1464  0.1106 -0.3759
 1351BOLB   C4A32408   8.948  12.304   9.697  0.1029  0.0670  0.0548
 1351BOLB   C1B32409   8.662  12.024  10.867  0.1121 -0.1980 -0.0676
 1351BOLB   C2B32410   8.608  12.236  10.464 -0.1245  0.1768  0.0402
 1351BOLB   C3B32411   8.501  12.490  10.046  0.0902  0.2234  0.0634
 1351BOLB   C4B32412   8.536  12.739   9.685  0.2111  0.0898  0.0064
 1351BOLB   NC232413   8.357  11.157   7.808 -0.1509 -0.0324 -0.1065
 1351BOLB   PO232414   8.688  11.130   7.484  0.2101  0.2493  0.5509
 1351BOLB   GL332415   8.857  11.292   7.866 -0.3431  0.4383  0.1396
 1351BOLB   GL432416   9.044  11.001   8.008 -0.0956  0.4585 -0.4845
 1351BOLB   C1C32417   8.934  11.518   8.207  0.0303 -0.0270 -0.1213
 1351BOLB   C2C32418   8.954  11.796   8.523 -0.0380 -0.3764  0.1781
 1351BOLB   C3C32419   8.983  12.088   8.834  0.2126  0.2326 -0.0719
 1351BOLB   C4C32420   8.962  12.235   9.268 -0.1019 -0.3609  0.1302
 1351BOLB   C1D32421   8.786  11.066   8.373 -0.1327  0.2100  0.0657
 1351BOLB   C2D32422   8.454  11.351   8.407  0.2348  0.2997  0.0083
 1351BOLB   C3D32423   8.422  11.775   8.652  0.1843 -0.1451  0.2069
 1351BOLB   C4D32424   8.442  12.210   8.720  0.0249  0.0352 -0.1770
 1352BOLB   NC132425  16.882  18.090  10.479 -0.1034  0.1146 -0.0288
 1352BOLB   PO132426  16.725  18.217  10.041  0.3983 -0.2373 -0.2141
 1352BOLB   GL132427  16.683  18.504   9.662  0.4037  0.2496 -0.1050
 1352BOLB   GL232428  16.752  18.876   9.768  0.0434  0.2119 -0.0701
 1352BOLB   C1A32429  16.474  18.379   9.292  0.3568 -0.1341  0.4704
 1352BOLB   C2A32430  16.349  18.492   8.819 -0.0685  0.3624 -0.2522
 1352BOLB   C3A32431  16.141  18.669   8.470  0.0866  0.1670 -0.0105
 1352BOLB   C4A32432  16.136  18.722   8.042  0.2091  0.0701  0.1016
 1352BOLB   C1B32433  16.779  18.881   9.298  0.0245 -0.0155  0.0482
 1352BOLB   C2B32434  16.858  18.817   8.867  0.1723  0.2740  0.1892
 1352BOLB   C3B32435  17.032  18.909   8.427  0.1904 -0.1520  0.0208
 1352BOLB   C4B32436  17.338  19.038   8.074 -0.0837 -0.2692  0.2918
 1352BOLB   NC232437  14.953  19.850   6.208 -0.0875 -0.3042  0.3188
 1352BOLB   PO232438  15.129  20.139   6.503 -0.1630 -0.2130  0.2917
 1352BOLB   GL332439  15.473  20.224   6.850  0.1828 -0.1965  0.3737
 1352BOLB   GL432440  15.236  20.255   7.024 -0.1900 -0.0042 -0.0271
 1352BOLB   C1C32441  15.615  19.970   7.058 -0.1144  0.1969 -0.1130
 1352BOLB   C2C32442  15.769  19.623   7.323  0.0689 -0.3991 -0.2449
 1352BOLB   C3C32443  15.624  19.172   7.403  0.1554  0.1830  0.1976
 1352BOLB   C4C32444  15.921  19.045   7.696 -0.1384  0.1751 -0.2333
 1352BOLB   C1D32445  14.984  20.459   7.233  0.0096  0.2265  0.1264
 1352BOLB   C2D32446  14.868  20.610   7.592  0.1117 -0.0710  0.2161
 1352BOLB   C3D32447  14.633  20.853   7.828 -0.0204  0.0568 -0.2360
 1352BOLB   C4D32448  14.518  21.162   8.055  0.1625 -0.0240  0.0162
 1353BOLB   NC132449   9.419  20.852  12.467 -0.0229 -0.2186  0.0641
 1353BOLB   PO132450   9.119  21.094  12.304 -0.0070 -0.0463 -0.3865
 1353BOLB   GL132451   9.047  20.767  11.979  0.0003 -0.1891 -0.0597
 1353BOLB   GL232452   9.093  20.889  11.737 -0.0826  0.1143  0.1755
 1353BOLB   C1A32453   8.659  20.740  11.756 -0.1888  0.2814  0.0775
 1353BOLB   C2A32454   8.173  20.883  11.690 -0.2893  0.1188  0.0784
 1353BOLB   C3A32455   7.845  20.916  11.379  0.0788  0.0455  0.1087
 1353BOLB   C4A32456   7.479  21.195  11.280  0.3058 -0.2025 -0.0219
 1353BOLB   C1B32457   8.989  20.901  11.321  0.2682  0.0961  0.2085
 1353BOLB   C2B32458   8.795  20.838  10.967  0.3656 -0.4473 -0.0145
 1353BOLB   C3B32459   8.575  20.918  10.533  0.2908 -0.3113  0.0264
 1353BOLB   C4B32460   8.641  21.201  10.226  0.0131  0.0669 -0.2408
 1353BOLB   NC232461   5.596  21.481   9.656 -0.0207 -0.1156  0.0807
 1353BOLB   PO232462   6.027  21.484   9.575 -0.0561 -0.0454 -0.0101
 1353BOLB   GL332463   6.335  21.231   9.883  0.2521 -0.1065  0.1444
 1353BOLB   GL432464   6.465  21.011   9.615 -0.5684 -0.0426 -0.2431
 1353BOLB   C1C32465   6.418  21.145  10.261  0.0933 -0.2896 -0.2018
 1353BOLB   C2C32466   6.599  21.408  10.525 -0.3933  0.3084  0.0668
 1353BOLB   C3C32467   6.841  21.562  10.817 -0.2148  0.0325  0.1901
 1353BOLB   C4C32468   7.147  21.418  11.091  0.1368  0.0598 -0.1759
 1353BOLB   C1D32469   6.673  20.880   9.871 -0.0934 -0.0645 -0.1673
 1353BOLB   C2D32470   6.801  21.343  10.006 -0.2359  0.1991 -0.0030
 1353BOLB   C3D32471   7.093  21.588  10.313  0.3129  0.0430 -0.0405
 1353BOLB   C4D32472   7.152  21.935  10.748  0.1436  0.2465 -0.0120
 1354BOLB   NC132473  18.891  14.696  10.939  0.1116 -0.2204 -0.1148
 1354BOLB   PO132474  19.264  14.526  10.659  0.3370 -0.0361  0.1854
 1354BOLB   GL132475  19.446  14.569  10.275  0.0565 -0.1295  0.4299
 1354BOLB   GL232476  19.771  14.643  10.119  0.0126 -0.0156  0.0506
 1354BOLB   C1A32477  19.481  14.190  10.100  0.1480 -0.0934 -0.0573
 1354BOLB   C2A32478  19.742  14.172   9.676 -0.3196 -0.1274  0.0649
 1354BOLB   C3A32479  19.616  14.033   9.350 -0.3267  0.0018 -0.3765
 1354BOLB   C4A32480  19.442  13.831   8.949 -0.0778  0.1251  0.0091
 1354BOLB   C1B32481  19.529  14.689   9.717  0.0984  0.2058  0.3314
 1354BOLB   C2B32482  19.289  15.025   9.405  0.0117  0.0665 -0.0551
 1354BOLB   C3B32483  19.309  15.183   9.066 -0.3898  0.1268  0.0363
 1354BOLB   C4B32484  19.553  15.223   8.727 -0.0541  0.0022 -0.1654
 1354BOLB   NC232485  19.300  12.685   6.568  0.0732 -0.0194  0.1300
 1354BOLB   PO232486  19.610  12.906   6.873 -0.0485  0.0445 -0.0556
 1354BOLB   GL332487  19.786  12.818   7.373  0.0171  0.1947 -0.1937
 1354BOLB   GL432488  19.927  12.624   7.519 -0.1006  0.0445  0.2745
 1354BOLB   C1C32489  19.539  12.839   7.750 -0.3361 -0.2193 -0.0146
 1354BOLB   C2C32490  19.343  13.004   8.044  0.0969 -0.1758  0.1648
 1354BOLB   C3C32491  19.141  13.404   8.250 -0.1941 -0.0397  0.3413
 1354BOLB   C4C32492  19.289  13.706   8.548  0.0573 -0.0424 -0.1254
 1354BOLB   C1D32493  19.972  12.691   7.935 -0.0027 -0.0687  0.1201
 1354BOLB   C2D32494  19.822  12.876   8.367  0.0135  0.2967 -0.1314
 1354BOLB   C3D32495  19.891  12.873   8.790 -0.0626  0.1583 -0.3481
 1354BOLB   C4D32496  20.131  12.816   9.227  0.3259 -0.2533 -0.3139
 1355BOLB   NC132497  10.913  13.801  11.049 -0.2026 -0.3090  0.1689
 1355BOLB   PO132498  10.761  13.581  10.627 -0.0730  0.0576  0.0562
 1355BOLB   GL132499  10.695  13.291  10.332 -0.0498 -0.0614  0.0910
 1355BOLB   GL232500  11.052  13.051  10.234  0.2255  0.0402 -0.2222
 1355BOLB   C1A32501  10.790  13.225   9.892 -0.0109 -0.1871  0.1013
 1355BOLB   C2A32502  10.663  13.155   9.407 -0.3601  0.2984  0.0973
 1355BOLB   C3A32503  10.693  13.327   9.043 -0.2276  0.0488  0.0654
 1355BOLB   C4A32504  11.007  13.438   8.669  0.0813 -0.2607 -0.0279
 1355BOLB   C1B32505  11.193  12.870   9.927 -0.0309 -0.3502  0.1066
 1355BOLB   C2B32506  11.041  12.753   9.610  0.0585 -0.2117 -0.0862
 1355BOLB   C3B32507  11.064  12.883   9.293 -0.0700  0.1770  0.2832
 1355BOLB   C4B32508  10.743  12.827   9.045  0.1771 -0.0121 -0.2895
 1355BOLB   NC232509  10.644  13.387   6.707  0.1857  0.1288 -0.1682
 1355BOLB   PO232510  10.829  13.841   6.571 -0.0140 -0.2176  0.1278
 1355BOLB   GL332511  10.987  13.629   7.002  0.0349 -0.1087  0.0271
 1355BOLB   GL432512  10.745  13.726   7.104  0.0403 -0.3322  0.2229
 1355BOLB   C1C32513  10.990  13.363   7.370  0.3605  0.0885  0.0529
 1355BOLB   C2C32514  11.176  13.214   7.587 -0.0795 -0.0365 -0.0359
 1355BOLB   C3C32515  11.157  13.387   8.010  0.1184  0.0956 -0.2041
 1355BOLB   C4C32516  10.981  13.480   8.366  0.0496 -0.2486  0.2839
 1355BOLB   C1D32517  10.688  13.950   7.596 -0.0665  0.0326  0.0126
 1355BOLB   C2D32518  10.805  13.990   8.014 -0.1393  0.0989  0.1781
 1355BOLB   C3D32519  10.593  13.799   8.386  0.3208 -0.0654  0.0146
 1355BOLB   C4D32520  10.576  13.327   8.530  0.2224  0.0303  0.0655
 1356BOLB   NC132521   9.714  20.358  12.327 -0.1752 -0.0044  0.4074
 1356BOLB   PO132522   9.724  20.233  11.806  0.1568 -0.3935  0.2769
 1356BOLB   GL132523   9.483  20.362  11.513  0.1228 -0.2434 -0.0599
 1356BOLB   GL232524   9.230  20.341  11.627  0.2931 -0.1694  0.0495
 1356BOLB   C1A32525   9.429  20.486  11.078 -0.2358 -0.4763 -0.0238
 1356BOLB   C2A32526   9.094  20.654  10.644  0.1020 -0.0066  0.1303
 1356BOLB   C3A32527   8.847  20.474  10.313 -0.0019 -0.0071 -0.0375
 1356BOLB   C4A32528   8.632  20.358   9.831 -0.0956  0.2147 -0.0319
 1356BOLB   C1B32529   8.919  20.419  11.406  0.3027 -0.2105 -0.0285
 1356BOLB   C2B32530   8.433  20.534  11.394 -0.1210 -0.0416  0.1855
 1356BOLB   C3B32531   8.142  20.700  10.963  0.2043 -0.1516 -0.0492
 1356BOLB   C4B32532   7.978  20.831  10.534 -0.3032  0.0345  0.0604
 1356BOLB   NC232533   8.870  20.357   7.126 -0.1866  0.1125 -0.0358
 1356BOLB   PO232534   8.895  20.520   7.554  0.1900  0.1373  0.2000
 1356BOLB   GL332535   8.815  20.166   7.933  0.5953 -0.1454 -0.1081
 1356BOLB   GL432536   8.764  19.921   7.865  0.0881 -0.0360 -0.1935
 1356BOLB   C1C32537   8.522  20.107   8.269 -0.2649 -0.0980 -0.0203
 1356BOLB   C2C32538   8.395  20.151   8.726  0.4054  0.0284 -0.0564
 1356BOLB   C3C32539   8.647  19.898   9.029 -0.2016 -0.7164  0.1810
 1356BOLB   C4C32540   8.685  20.042   9.457 -0.0352  0.0526  0.0360
 1356BOLB   C1D32541   9.109  19.915   8.212  0.0729 -0.0523 -0.0872
 1356BOLB   C2D32542   9.171  19.944   8.666  0.0192  0.1047 -0.0359
 1356BOLB   C3D32543   9.603  20.122   8.728  0.4382  0.3160  0.3022
 1356BOLB   C4D32544   9.926  19.913   8.874  0.2038 -0.1951  0.2934
 1357BOLB   NC132545  20.868  10.484  14.276  0.4002 -0.3656  0.1149
 1357BOLB   PO132546  21.170  10.321  14.425 -0.0219 -0.3160  0.0163
 1357BOLB   GL132547  21.243   9.936  14.543  0.2104 -0.3503 -0.1373
 1357BOLB   GL232548  21.137   9.892  14.866  0.1846 -0.0610 -0.1573
 1357BOLB   C1A32549  21.558   9.680  14.640 -0.0361  0.0899  0.0793
 1357BOLB   C2A32550  21.711   9.343  14.612 -0.0885 -0.2568  0.3516
 1357BOLB   C3A32551  21.688   8.853  14.626  0.0866 -0.1539  0.0074
 1357BOLB   C4A32552  21.894   8.486  14.449  0.0174  0.1021 -0.1821
 1357BOLB   C1B32553  21.526   9.745  15.136  0.0200 -0.3246 -0.0904
 1357BOLB   C2B32554  21.856   9.578  15.105  0.4104 -0.3323  0.0802
 1357BOLB   C3B32555  22.052   9.234  14.968  0.0957  0.0591  0.3664
 1357BOLB   C4B32556  22.201   8.952  14.644  0.1995  0.2964 -0.1771
 1357BOLB   NC232557  23.427   7.045  14.792  0.0398  0.1616 -0.2985
 1357BOLB   PO232558  22.979   6.998  14.816  0.2503  0.0493 -0.1768
 1357BOLB   GL332559  23.149   7.380  14.473  0.0813 -0.0192 -0.0467
 1357BOLB   GL432560  23.413   7.634  14.342  0.2388 -0.0299  0.0523
 1357BOLB   C1C32561  22.924   7.753  14.325 -0.2673  0.0417  0.0364
 1357BOLB   C2C32562  22.909   8.176  14.279  0.0448  0.1881 -0.1072
 1357BOLB   C3C32563  22.526   8.078  14.114 -0.1106 -0.2862 -0.4243
 1357BOLB   C4C32564  22.126   8.125  14.344  0.0751  0.0878  0.3480
 1357BOLB   C1D32565  23.146   7.971  14.681 -0.0959 -0.2562 -0.3545
 1357BOLB   C2D32566  22.915   8.363  14.948  0.0029  0.2607  0.2947
 1357BOLB   C3D32567  22.903   8.396  15.422 -0.0275 -0.3850 -0.1260
 1357BOLB   C4D32568  22.884   8.473  15.835  0.1218  0.0744  0.0109
 1358BOLB   NC132569  17.564  15.872  10.014 -0.2634 -0.1383 -0.0275
 1358BOLB   PO132570  17.231  15.578  10.163 -0.1266 -0.1526 -0.0100
 1358BOLB   GL132571  17.117  15.534   9.664  0.1065 -0.2149  0.2453
 1358BOLB   GL232572  17.314  15.768   9.542 -0.3977  0.1371  0.1619
 1358BOLB   C1A32573  17.089  15.616   9.167 -0.0960  0.1060  0.1979
 1358BOLB   C2A32574  17.315  15.726   8.807 -0.0216  0.1220  0.1363
 1358BOLB   C3A32575  17.473  15.875   8.332  0.1098  0.3499  0.3190
 1358BOLB   C4A32576  17.684  15.837   7.944 -0.0239 -0.0429 -0.3232
 1358BOLB   C1B32577  17.625  15.713   9.337  0.3872  0.2682 -0.0660
 1358BOLB   C2B32578  17.834  15.313   9.068 -0.0464  0.1802 -0.1767
 1358BOLB   C3B32579  18.067  15.226   8.751 -0.0765 -0.2862 -0.2763
 1358BOLB   C4B32580  18.391  15.468   8.588 -0.0984 -0.0218  0.0248
 1358BOLB   NC232581  18.029  15.398   5.578  0.1606  0.2730  0.1653
 1358BOLB   PO232582  18.284  15.234   5.894 -0.1316  0.1253 -0.1474
 1358BOLB   GL332583  17.889  15.181   6.109 -0.4607  0.0656 -0.1915
 1358BOLB   GL432584  17.650  14.923   6.240 -0.1370  0.0866  0.1630
 1358BOLB   C1C32585  17.784  15.382   6.431  0.2220  0.0275 -0.0055
 1358BOLB   C2C32586  17.591  15.539   6.823 -0.1118 -0.0652 -0.1574
 1358BOLB   C3C32587  17.749  15.786   7.160  0.0878  0.3324  0.4039
 1358BOLB   C4C32588  17.809  16.005   7.542  0.3526 -0.0444  0.0346
 1358BOLB   C1D32589  17.632  14.970   6.650 -0.0191 -0.1097  0.0058
 1358BOLB   C2D32590  17.556  15.143   7.089  0.1566 -0.1218  0.2792
 1358BOLB   C3D32591  17.532  14.951   7.525  0.0739 -0.0448 -0.0502
 1358BOLB   C4D32592  17.575  14.798   7.891  0.2559  0.2868  0.4628
 1359BOLB   NC132593  13.916  22.326  12.118 -0.2302  0.1789 -0.3495
 1359BOLB   PO132594  14.185  22.145  11.730 -0.1216 -0.0027  0.1696
 1359BOLB   GL132595  14.034  22.417  11.307  0.0650 -0.2834  0.3243
 1359BOLB   GL232596  13.781  22.200  11.044  0.2581 -0.1994 -0.1192
 1359BOLB   C1A32597  14.118  22.723  11.111 -0.2421 -0.1029  0.1398
 1359BOLB   C2A32598  14.194  23.161  10.999 -0.2326  0.1283 -0.1671
 1359BOLB   C3A32599  14.333  23.385  10.684 -0.3331 -0.2590 -0.0329
 1359BOLB   C4A32600  14.432  23.885  10.441  0.1857 -0.0646 -0.0235
 1359BOLB   C1B32601  13.643  22.606  10.928 -0.2309 -0.0214 -0.1658
 1359BOLB   C2B32602  13.629  22.978  10.817  0.0689  0.2163 -0.3235
 1359BOLB   C3B32603  13.490  23.269  10.627  0.2174 -0.2112  0.0403
 1359BOLB   C4B32604  13.461  23.601  10.360 -0.2046  0.1460 -0.0201
 1359BOLB   NC232605  15.039  25.651   8.830  0.0775  0.0476 -0.0058
 1359BOLB   PO232606  14.894  25.296   8.580 -0.2961  0.1682  0.0879
 1359BOLB   GL332607  14.767  24.860   8.724 -0.2303  0.0845  0.0705
 1359BOLB   GL432608  14.506  24.876   8.678 -0.3423 -0.2681  0.1112
 1359BOLB   C1C32609  14.729  24.512   8.992  0.0466 -0.1600  0.0028
 1359BOLB   C2C32610  14.614  24.349   9.466 -0.0577 -0.3374 -0.0967
 1359BOLB   C3C32611  14.559  24.290   9.957  0.0526 -0.2664  0.0613
 1359BOLB   C4C32612  14.331  24.265  10.209 -0.2544 -0.1991 -0.0782
 1359BOLB   C1D32613  14.247  24.538   8.846  0.0824  0.2224 -0.2100
 1359BOLB   C2D32614  13.989  24.134   8.985  0.2154  0.3044 -0.2230
 1359BOLB   C3D32615  13.697  24.041   9.323 -0.1111 -0.3005  0.1120
 1359BOLB   C4D32616  13.602  23.915   9.692  0.0165 -0.1511 -0.3077
 1360BOLB   NC132617  15.713  12.158  11.961 -0.0924  0.0091 -0.3705
 1360BOLB   PO132618  15.542  12.107  11.436 -0.1229  0.0832  0.0156
 1360BOLB   GL132619  15.671  11.859  11.022 -0.0238 -0.1431  0.2340
 1360BOLB   GL232620  16.013  11.593  11.097  0.2593 -0.1672 -0.0888
 1360BOLB   C1A32621  15.710  11.593  10.631  0.1504 -0.0262  0.3392
 1360BOLB   C2A32622  15.738  11.199  10.406 -0.0480  0.3670  0.1491
 1360BOLB   C3A32623  15.813  10.846  10.155 -0.0987 -0.1445 -0.2289
 1360BOLB   C4A32624  16.044  10.547  10.030  0.2050  0.2388  0.0692
 1360BOLB   C1B32625  16.155  11.438  10.785 -0.0013  0.0211  0.0166
 1360BOLB   C2B32626  16.191  11.139  10.398 -0.0872  0.3695 -0.0632
 1360BOLB   C3B32627  16.270  11.129   9.926  0.0304  0.1550 -0.2792
 1360BOLB   C4B32628  16.404  11.193   9.484  0.2392 -0.0832 -0.0539
 1360BOLB   NC232629  15.352   9.776   7.810  0.0929 -0.3256 -0.1330
 1360BOLB   PO232630  15.420  10.152   7.570  0.0078 -0.2059 -0.1560
 1360BOLB   GL332631  15.569  10.229   7.947  0.1114 -0.1933 -0.1405
 1360BOLB   GL432632  15.230  10.316   8.097 -0.2711 -0.0520  0.2367
 1360BOLB   C1C32633  15.649  10.240   8.377  0.1481 -0.0433 -0.0041
 1360BOLB   C2C32634  15.932  10.412   8.661  0.0799 -0.0952  0.0434
 1360BOLB   C3C32635  16.054  10.405   9.184 -0.1850 -0.0427  0.1968
 1360BOLB   C4C32636  16.027  10.357   9.627  0.4074 -0.3797  0.1089
 1360BOLB   C1D32637  15.133  10.121   8.501  0.0313  0.2319  0.3857
 1360BOLB   C2D32638  14.897  10.185   8.848  0.1402  0.2751  0.0561
 1360BOLB   C3D32639  14.384  10.268   8.809 -0.0050  0.0663 -0.2886
 1360BOLB   C4D32640  14.147  10.211   8.436  0.1344  0.0942  0.2178
 1361BOLB   NC132641  11.421   8.637  12.773 -0.2983 -0.0871 -0.1892
 1361BOLB   PO132642  11.012   8.575  12.582 -0.1277  0.2516 -0.0575
 1361BOLB   GL132643  11.242   8.545  12.142  0.3415  0.1280  0.0584
 1361BOLB   GL232644  11.458   8.764  12.037 -0.0612  0.1061  0.2571
 1361BOLB   C1A32645  11.502   8.206  12.006 -0.0692 -0.2270  0.2501
 1361BOLB   C2A32646  11.556   8.296  11.649 -0.0130 -0.0228 -0.2152
 1361BOLB   C3A32647  11.612   8.289  11.142  0.2775 -0.1982  0.4073
 1361BOLB   C4A32648  11.940   8.230  10.793 -0.1096  0.2179 -0.0141
 1361BOLB   C1B32649  11.161   8.701  11.576 -0.1301  0.1259 -0.1093
 1361BOLB   C2B32650  11.146   8.396  11.246 -0.3865 -0.0739  0.0725
 1361BOLB   C3B32651  11.139   8.450  10.837 -0.0318 -0.1130 -0.3327
 1361BOLB   C4B32652  11.511   8.377  10.553  0.3466 -0.1735  0.1972
 1361BOLB   NC232653  12.960   7.057   8.835  0.1797 -0.2599  0.0675
 1361BOLB   PO232654  12.753   7.418   8.535  0.3590  0.2546  0.1440
 1361BOLB   GL332655  12.695   7.654   8.988  0.0773 -0.0288 -0.0503
 1361BOLB   GL432656  12.387   7.602   9.144  0.1963  0.2258 -0.0619
 1361BOLB   C1C32657  12.640   7.909   9.481  0.0199  0.1530  0.2730
 1361BOLB   C2C32658  12.458   8.001   9.781 -0.0087  0.1389  0.0077
 1361BOLB   C3C32659  12.430   8.141  10.157  0.4774 -0.1642 -0.1463
 1361BOLB   C4C32660  12.098   8.372  10.430  0.2189  0.0153 -0.0314
 1361BOLB   C1D32661  12.160   7.473   9.512 -0.2363  0.0498 -0.2610
 1361BOLB   C2D32662  12.277   7.563   9.946  0.0038 -0.0220  0.1019
 1361BOLB   C3D32663  12.099   7.758  10.214  0.3789 -0.1054 -0.3183
 1361BOLB   C4D32664  11.745   7.922  10.428 -0.0172  0.1631  0.2464
 1362BOLB   NC132665  17.822  22.671  13.238 -0.1238  0.0631 -0.1051
 1362BOLB   PO132666  17.908  23.048  13.135 -0.4231 -0.0418 -0.1668
 1362BOLB   GL132667  17.783  23.319  12.842 -0.2597  0.0705 -0.1815
 1362BOLB   GL232668  17.997  23.444  12.658  0.0187 -0.1448  0.0223
 1362BOLB   C1A32669  17.585  23.698  12.710  0.2080  0.1078 -0.0071
 1362BOLB   C2A32670  17.718  24.155  12.487  0.2850  0.1447  0.1489
 1362BOLB   C3A32671  17.757  24.592  12.239 -0.2697 -0.3586  0.0935
 1362BOLB   C4A32672  17.791  25.069  12.124  0.0668  0.2266 -0.2127
 1362BOLB   C1B32673  18.112  23.680  12.408  0.1721  0.2301  0.1971
 1362BOLB   C2B32674  18.414  23.788  12.137  0.0742 -0.0327  0.1517
 1362BOLB   C3B32675  18.528  23.953  11.789 -0.0282  0.1990 -0.2566
 1362BOLB   C4B32676  18.595  24.067  11.260 -0.2883  0.1275  0.2342
 1362BOLB   NC232677  17.840  27.599  11.647 -0.0855  0.0467 -0.0420
 1362BOLB   PO232678  17.880  27.283  11.289  0.2811  0.4773 -0.0125
 1362BOLB   GL332679  17.922  27.051  11.681 -0.1015 -0.1976  0.1343
 1362BOLB   GL432680  17.650  27.156  11.809  0.1030 -0.0325 -0.0929
 1362BOLB   C1C32681  17.849  26.764  12.055 -0.0096  0.0675 -0.1350
 1362BOLB   C2C32682  18.106  26.422  12.095  0.1342  0.0181 -0.0303
 1362BOLB   C3C32683  18.164  25.930  12.005 -0.0869  0.0835 -0.2436
 1362BOLB   C4C32684  17.931  25.468  12.139  0.2084 -0.0765  0.1610
 1362BOLB   C1D32685  17.445  27.069  12.234  0.2534  0.2477  0.1113
 1362BOLB   C2D32686  17.338  26.696  12.539  0.1656 -0.2527  0.2295
 1362BOLB   C3D32687  17.337  26.357  12.816 -0.3577  0.0184  0.0707
 1362BOLB   C4D32688  17.259  25.951  12.764  0.2868  0.1251  0.2397
 1363BOLB   NC132689  12.282  18.172  10.704 -0.0255 -0.1654  0.2564
 1363BOLB   PO132690  12.246  18.575  10.415 -0.3295 -0.0685 -0.2268
 1363BOLB   GL132691  12.160  18.673  10.029 -0.2383  0.2021 -0.0117
 1363BOLB   GL232692  12.308  18.968  10.040 -0.1183  0.1056 -0.2108
 1363BOLB   C1A32693  12.007  18.777   9.628 -0.2890  0.3699 -0.2361
 1363BOLB   C2A32694  11.848  18.743   9.164 -0.0893  0.1229  0.0387
 1363BOLB   C3A32695  11.732  18.348   9.046  0.0564  0.3296 -0.1236
 1363BOLB   C4A32696  11.430  18.094   8.942 -0.0927  0.0710  0.0463
 1363BOLB   C1B32697  12.210  19.188   9.807  0.2406 -0.1183 -0.0800
 1363BOLB   C2B32698  11.942  19.233   9.381 -0.1417  0.2302  0.0192
 1363BOLB   C3B32699  11.797  19.261   8.955  0.0330  0.0515  0.1073
 1363BOLB   C4B32700  11.520  19.152   8.602  0.0658 -0.1639 -0.0777
 1363BOLB   NC232701  10.387  17.907   6.340 -0.1631 -0.2961  0.2206
 1363BOLB   PO232702  10.278  18.186   6.814  0.1204 -0.1918 -0.0682
 1363BOLB   GL332703  10.512  18.135   7.125 -0.0723  0.0075 -0.0086
 1363BOLB   GL432704  10.863  18.351   7.013 -0.3011 -0.0049 -0.0297
 1363BOLB   C1C32705  10.402  18.003   7.543 -0.3410  0.1830 -0.1169
 1363BOLB   C2C32706  10.577  18.017   7.827 -0.2612 -0.1914  0.3136
 1363BOLB   C3C32707  10.953  18.020   8.125 -0.3477 -0.1823  0.0829
 1363BOLB   C4C32708  11.093  17.983   8.544 -0.1194  0.2401  0.0299
 1363BOLB   C1D32709  10.899  18.223   7.420 -0.0830  0.3992 -0.1207
 1363BOLB   C2D32710  11.188  17.926   7.659  0.0910 -0.2378  0.1043
 1363BOLB   C3D32711  11.431  17.739   8.019  0.2399 -0.1086  0.0492
 1363BOLB   C4D32712  11.621  17.861   8.385  0.3061 -0.0895  0.2370
 1364BOLB   NC132713  12.237  11.815  11.877 -0.0771 -0.1520 -0.1357
 1364BOLB   PO132714  12.166  12.016  11.412 -0.1969  0.1134 -0.1696
 1364BOLB   GL132715  12.195  11.670  11.078  0.2059 -0.2031 -0.1110
 1364BOLB   GL232716  11.941  11.687  10.879  0.0560 -0.0027 -0.1536
 1364BOLB   C1A32717  12.344  11.462  10.683  0.1222 -0.0356 -0.2613
 1364BOLB   C2A32718  12.335  11.409  10.216  0.2285  0.0168 -0.1305
 1364BOLB   C3A32719  12.311  11.307   9.836 -0.1911 -0.5217  0.1161
 1364BOLB   C4A32720  12.260  11.123   9.419  0.3823  0.1306 -0.1640
 1364BOLB   C1B32721  12.128  11.901  10.534  0.1219 -0.2115 -0.1322
 1364BOLB   C2B32722  12.139  11.903  10.139 -0.0122  0.1239  0.2222
 1364BOLB   C3B32723  12.123  11.981   9.666 -0.1977 -0.2650 -0.1283
 1364BOLB   C4B32724  11.912  11.906   9.301 -0.0507 -0.1626 -0.0264
 1364BOLB   NC232725  12.656   9.608   7.477  0.0390  0.0527  0.1104
 1364BOLB   PO232726  12.661   9.460   7.811 -0.0821 -0.2528 -0.1964
 1364BOLB   GL332727  12.686   9.633   8.158 -0.0511  0.3042 -0.3060
 1364BOLB   GL432728  12.659   9.442   8.444  0.0619  0.0920 -0.2536
 1364BOLB   C1C32729  12.740  10.050   8.488  0.1877  0.0796  0.1894
 1364BOLB   C2C32730  12.522  10.298   8.857  0.1405  0.2998  0.0661
 1364BOLB   C3C32731  12.311  10.596   9.085  0.2383  0.1693 -0.0667
 1364BOLB   C4C32732  12.061  10.883   9.124 -0.1140 -0.0482 -0.0203
 1364BOLB   C1D32733  12.615   9.679   8.855 -0.0213 -0.2531 -0.0038
 1364BOLB   C2D32734  12.413   9.875   9.126 -0.2952  0.2247 -0.3851
 1364BOLB   C3D32735  12.535  10.238   9.387 -0.0494  0.1502 -0.3201
 1364BOLB   C4D32736  12.763  10.343   9.712 -0.0440 -0.0412 -0.0004
 1365BOLB   NC132737  20.005  20.089  11.619  0.0061  0.0508 -0.0330
 1365BOLB   PO132738  20.176  20.628  11.536 -0.2550 -0.1936  0.0564
 1365BOLB   GL132739  20.158  20.471  11.053  0.2923  0.0225 -0.2160
 1365BOLB   GL232740  20.124  20.134  10.704  0.0165 -0.0354  0.2414
 1365BOLB   C1A32741  20.235  20.716  10.697 -0.0340 -0.2770  0.0900
 1365BOLB   C2A32742  20.282  20.890  10.320 -0.1676 -0.1270 -0.4113
 1365BOLB   C3A32743  20.113  20.654  10.006  0.1306  0.0368 -0.2052
 1365BOLB   C4A32744  20.015  20.756   9.507 -0.1384  0.2755 -0.1922
 1365BOLB   C1B32745  20.196  20.187  10.297  0.0377 -0.1323  0.0356
 1365BOLB   C2B32746  20.437  20.295   9.905  0.0007  0.1050 -0.0818
 1365BOLB   C3B32747  20.501  20.305   9.469  0.0588  0.0779 -0.3974
 1365BOLB   C4B32748  20.650  20.579   9.221  0.3835  0.1130  0.0003
 1365BOLB   NC232749  21.305  22.274   7.660 -0.2944  0.4094 -0.4129
 1365BOLB   PO232750  21.375  21.879   7.870  0.3499 -0.0604  0.1253
 1365BOLB   GL332751  21.235  21.717   8.291 -0.0838 -0.0333 -0.0086
 1365BOLB   GL432752  21.031  21.501   8.091  0.2764 -0.4797  0.0711
 1365BOLB   C1C32753  21.159  21.515   8.677  0.2552  0.3501  0.4134
 1365BOLB   C2C32754  20.771  21.491   8.889 -0.1307 -0.0277 -0.0906
 1365BOLB   C3C32755  20.457  21.293   8.960 -0.0300  0.1228 -0.1104
 1365BOLB   C4C32756  20.312  20.925   9.194 -0.0082 -0.1052  0.1167
 1365BOLB   C1D32757  20.738  21.468   8.374  0.1225  0.1239 -0.0038
 1365BOLB   C2D32758  20.360  21.458   8.520 -0.2027 -0.2723  0.2955
 1365BOLB   C3D32759  19.981  21.181   8.536 -0.1736 -0.3527 -0.0755
 1365BOLB   C4D32760  19.561  21.332   8.804  0.0580  0.3181  0.0144
 1366BOLB   NC132761  13.204  11.754  10.970 -0.1006 -0.0900 -0.0399
 1366BOLB   PO132762  13.376  12.138  10.840  0.2406 -0.0639  0.0199
 1366BOLB   GL132763  13.377  11.959  10.484 -0.0149 -0.2781  0.0416
 1366BOLB   GL232764  13.507  11.622  10.474  0.0008 -0.0867 -0.1231
 1366BOLB   C1A32765  13.490  11.861  10.041  0.1171 -0.1196 -0.0887
 1366BOLB   C2A32766  13.506  11.845   9.549 -0.1130 -0.2336 -0.0904
 1366BOLB   C3A32767  13.647  11.799   9.064 -0.0279  0.0229  0.2860
 1366BOLB   C4A32768  13.480  11.730   8.697 -0.0589  0.1782  0.0199
 1366BOLB   C1B32769  13.330  11.298  10.196  0.1398  0.2164  0.2585
 1366BOLB   C2B32770  13.145  11.056   9.873  0.0894  0.0890 -0.1470
 1366BOLB   C3B32771  13.078  10.794   9.568  0.4340  0.1703 -0.1586
 1366BOLB   C4B32772  13.110  10.842   9.163  0.0000 -0.0809 -0.0523
 1366BOLB   NC232773  13.651  11.243   6.157 -0.0506 -0.0659  0.3160
 1366BOLB   PO232774  13.800  11.542   6.484 -0.3398  0.1841 -0.1413
 1366BOLB   GL332775  13.450  11.765   6.730 -0.0112 -0.1465  0.0914
 1366BOLB   GL432776  13.373  11.974   6.920 -0.1862  0.1322 -0.0789
 1366BOLB   C1C32777  13.266  11.467   6.983  0.1159 -0.0570 -0.0656
 1366BOLB   C2C32778  13.193  11.470   7.375 -0.1082  0.3627 -0.1925
 1366BOLB   C3C32779  13.126  11.596   7.888  0.1073  0.2008  0.0194
 1366BOLB   C4C32780  13.252  11.616   8.325 -0.1842 -0.2279 -0.0192
 1366BOLB   C1D32781  13.712  12.175   7.181 -0.3010 -0.0855 -0.1595
 1366BOLB   C2D32782  14.010  12.365   7.291 -0.1984 -0.0247 -0.3359
 1366BOLB   C3D32783  14.342  12.462   7.098  0.3236  0.1115  0.1837
 1366BOLB   C4D32784  14.776  12.498   7.102 -0.1999  0.0845  0.1386
 1367BOLB   NC132785  17.090   8.758  13.796  0.2176  0.0994 -0.1140
 1367BOLB   PO132786  16.708   8.673  13.711 -0.1435 -0.0901 -0.1946
 1367BOLB   GL132787  16.687   8.288  13.708  0.3912 -0.1284  0.0019
 1367BOLB   GL232788  16.588   8.127  13.479 -0.1190  0.0924 -0.2113
 1367BOLB   C1A32789  16.922   7.911  13.798  0.0090 -0.1016 -0.0155
 1367BOLB   C2A32790  17.048   7.559  13.564 -0.2709 -0.2626  0.1044
 1367BOLB   C3A32791  17.329   7.230  13.602  0.2463  0.0007  0.0959
 1367BOLB   C4A32792  17.662   6.996  13.535  0.4043  0.1988  0.0984
 1367BOLB   C1B32793  16.832   7.912  13.174  0.2024  0.1035  0.0432
 1367BOLB   C2B32794  17.247   7.795  13.104  0.0697 -0.0182 -0.2413
 1367BOLB   C3B32795  17.517   7.646  12.834 -0.3174  0.0568 -0.3183
 1367BOLB   C4B32796  17.671   7.276  12.639 -0.1832 -0.0334  0.1507
 1367BOLB   NC232797  18.389   6.296  11.348 -0.1789  0.1871 -0.0753
 1367BOLB   PO232798  18.242   5.907  11.635 -0.1869  0.0209  0.0833
 1367BOLB   GL332799  18.180   6.215  11.931  0.1107  0.0156 -0.1354
 1367BOLB   GL432800  17.876   6.357  11.865 -0.0446  0.2031 -0.3510
 1367BOLB   C1C32801  18.121   6.374  12.287 -0.1232 -0.2228 -0.3945
 1367BOLB   C2C32802  17.980   6.438  12.703 -0.2720  0.2076 -0.0316
 1367BOLB   C3C32803  17.643   6.415  13.016 -0.2549 -0.0050  0.4648
 1367BOLB   C4C32804  17.718   6.561  13.389 -0.2721  0.1717 -0.1341
 1367BOLB   C1D32805  17.803   6.711  12.046 -0.2073  0.0936  0.0112
 1367BOLB   C2D32806  17.523   7.116  12.166  0.1422  0.0168  0.2065
 1367BOLB   C3D32807  17.059   7.322  12.084 -0.1289 -0.0269 -0.1047
 1367BOLB   C4D32808  16.710   7.633  12.256 -0.0761  0.1503  0.3421
 1368BOLB   NC132809  15.513  11.686  11.763  0.2289 -0.4711 -0.1407
 1368BOLB   PO132810  15.489  11.548  11.307 -0.1925  0.1105 -0.0583
 1368BOLB   GL132811  15.372  11.372  10.968 -0.1037 -0.1405 -0.0127
 1368BOLB   GL232812  15.205  11.505  10.720 -0.1549  0.2258  0.0720
 1368BOLB   C1A32813  15.411  11.037  10.760 -0.0183 -0.2708 -0.0644
 1368BOLB   C2A32814  15.502  10.585  10.710 -0.1961 -0.2501 -0.2229
 1368BOLB   C3A32815  15.537  10.483  10.304 -0.0218  0.0648 -0.0692
 1368BOLB   C4A32816  15.549  10.382   9.950  0.2495 -0.2411 -0.0489
 1368BOLB   C1B32817  15.052  11.263  10.456  0.0146 -0.2614  0.0532
 1368BOLB   C2B32818  14.820  11.080  10.093 -0.3693 -0.0328  0.0961
 1368BOLB   C3B32819  15.021  11.096   9.707 -0.0479 -0.0358  0.0825
 1368BOLB   C4B32820  15.405  10.958   9.646  0.1569  0.1006  0.0600
 1368BOLB   NC232821  15.223  10.319   7.131  0.2538 -0.3187 -0.3095
 1368BOLB   PO232822  15.555  10.647   7.270 -0.0377 -0.1275 -0.0808
 1368BOLB   GL332823  15.532  10.622   7.675  0.3512  0.2320 -0.0332
 1368BOLB   GL432824  15.236  10.749   7.696  0.2753 -0.1375  0.3347
 1368BOLB   C1C32825  15.527  10.704   8.145 -0.4460 -0.0209  0.1097
 1368BOLB   C2C32826  15.548  10.784   8.561 -0.1206 -0.0020 -0.1712
 1368BOLB   C3C32827  15.687  10.713   9.018  0.1372 -0.1712 -0.1052
 1368BOLB   C4C32828  15.567  10.502   9.455  0.0012 -0.0845 -0.0163
 1368BOLB   C1D32829  15.535  11.083   7.782  0.0527 -0.2758 -0.3197
 1368BOLB   C2D32830  15.558  11.401   8.070 -0.0934 -0.0826 -0.0834
 1368BOLB   C3D32831  15.724  11.872   8.166  0.1058  0.2103  0.2315
 1368BOLB   C4D32832  15.912  12.360   8.065 -0.1325  0.2597  0.2991
 1369BOLB   NC132833  17.566  17.832  10.135 -0.0706  0.1158 -0.6509
 1369BOLB   PO132834  17.910  18.180  10.183  0.2257 -0.1438  0.3069
 1369BOLB   GL132835  17.717  18.208   9.749  0.3282 -0.1293  0.0464
 1369BOLB   GL232836  17.842  18.554   9.532 -0.4605 -0.1213 -0.2206
 1369BOLB   C1A32837  17.507  18.134   9.397  0.0358 -0.0360 -0.4553
 1369BOLB   C2A32838  17.317  18.173   8.906  0.0792 -0.1700 -0.1549
 1369BOLB   C3A32839  17.248  18.528   8.650 -0.0433 -0.1632  0.2312
 1369BOLB   C4A32840  17.449  18.613   8.352  0.1627  0.1440 -0.0884
 1369BOLB   C1B32841  17.667  18.890   9.325 -0.0923  0.0048  0.0143
 1369BOLB   C2B32842  17.748  19.248   9.070 -0.0667  0.2648 -0.3278
 1369BOLB   C3B32843  17.884  19.554   8.759  0.3011 -0.0937  0.2344
 1369BOLB   C4B32844  18.011  19.588   8.386 -0.3403  0.1562 -0.2031
 1369BOLB   NC232845  18.524  19.912   6.605 -0.0145 -0.1479 -0.3915
 1369BOLB   PO232846  18.586  19.468   6.487  0.1741 -0.1648  0.2447
 1369BOLB   GL332847  18.465  19.521   6.928  0.1701 -0.0192 -0.0717
 1369BOLB   GL432848  18.197  19.629   6.844  0.0314  0.2827  0.0702
 1369BOLB   C1C32849  18.229  19.237   7.201 -0.1275 -0.0698  0.2212
 1369BOLB   C2C32850  17.936  19.067   7.477 -0.0839 -0.0220  0.1800
 1369BOLB   C3C32851  17.724  18.854   7.756  0.1205  0.1443 -0.3577
 1369BOLB   C4C32852  17.621  18.530   8.013  0.0747  0.2117 -0.3200
 1369BOLB   C1D32853  17.981  19.808   7.204  0.4232  0.1835  0.1214
 1369BOLB   C2D32854  17.859  19.575   7.458  0.0651 -0.3348  0.1199
 1369BOLB   C3D32855  17.530  19.640   7.658 -0.0147  0.0201 -0.1163
 1369BOLB   C4D32856  17.204  19.515   7.893  0.0455 -0.2475 -0.0489
 1370BOLB   NC132857   8.784  14.278  12.341  0.2060  0.2922 -0.1535
 1370BOLB   PO132858   8.954  14.420  11.830 -0.0802 -0.1542 -0.1223
 1370BOLB   GL132859   9.164  14.637  11.421  0.1656 -0.0182  0.1899
 1370BOLB   GL232860   9.097  14.375  11.270  0.0114 -0.1995  0.0725
 1370BOLB   C1A32861   9.081  14.766  11.015  0.3582 -0.2498 -0.0365
 1370BOLB   C2A32862   8.970  14.814  10.571 -0.2949 -0.0801 -0.0963
 1370BOLB   C3A32863   8.998  14.651  10.080 -0.0097  0.3025  0.0292
 1370BOLB   C4A32864   9.011  14.551   9.668 -0.0606 -0.2263 -0.1036
 1370BOLB   C1B32865   8.894  14.280  10.843  0.0195  0.2608 -0.0236
 1370BOLB   C2B32866   8.893  14.328  10.447  0.0677  0.0523 -0.1059
 1370BOLB   C3B32867   8.685  14.259   9.978 -0.0553  0.0461  0.0602
 1370BOLB   C4B32868   8.267  14.386   9.800  0.1865 -0.1011 -0.0528
 1370BOLB   NC232869   7.770  14.483   7.715  0.3686  0.2075  0.1957
 1370BOLB   PO232870   7.477  14.289   7.932  0.1137  0.1647  0.1366
 1370BOLB   GL332871   7.804  14.383   8.180 -0.1184  0.2919  0.1289
 1370BOLB   GL432872   8.145  14.559   8.021 -0.0874 -0.0580  0.0691
 1370BOLB   C1C32873   7.830  14.587   8.641  0.0334  0.1016  0.0885
 1370BOLB   C2C32874   7.990  14.547   9.068  0.1571 -0.1246 -0.2148
 1370BOLB   C3C32875   8.184  14.286   9.287 -0.0801  0.1936 -0.0393
 1370BOLB   C4C32876   8.621  14.471   9.403  0.2958 -0.1346 -0.1991
 1370BOLB   C1D32877   8.463  14.777   8.218  0.2709 -0.0394  0.0015
 1370BOLB   C2D32878   8.657  15.146   8.165  0.0931  0.1752 -0.2812
 1370BOLB   C3D32879   8.661  15.580   8.210  0.0300 -0.1165  0.2091
 1370BOLB   C4D32880   8.798  15.958   8.093  0.2510  0.0474  0.1007
 1371BOLB   NC132881   9.444  14.180  11.830 -0.0843 -0.1718  0.0623
 1371BOLB   PO132882   9.410  13.757  11.643 -0.1183  0.4218  0.2564
 1371BOLB   GL132883   9.074  13.825  11.482  0.3476  0.1016  0.1054
 1371BOLB   GL232884   9.198  13.877  11.072  0.1358  0.1055  0.2119
 1371BOLB   C1A32885   8.653  13.989  11.333  0.0268 -0.1418 -0.0687
 1371BOLB   C2A32886   8.441  14.111  11.016  0.0784  0.2184 -0.2616
 1371BOLB   C3A32887   7.992  14.028  10.808 -0.1712  0.1562 -0.1474
 1371BOLB   C4A32888   7.755  14.120  10.451  0.2385  0.0043  0.3051
 1371BOLB   C1B32889   8.831  13.789  10.876  0.2311 -0.0042 -0.3359
 1371BOLB   C2B32890   8.536  13.979  10.555  0.1195 -0.0141  0.3469
 1371BOLB   C3B32891   8.228  14.225  10.244 -0.0687  0.0577 -0.1320
 1371BOLB   C4B32892   7.817  14.362   9.998 -0.0313  0.0151 -0.2985
 1371BOLB   NC232893   7.054  14.490   7.865 -0.0053 -0.0401  0.1118
 1371BOLB   PO232894   6.918  14.280   8.215  0.1330  0.0285  0.4304
 1371BOLB   GL332895   6.788  14.526   8.561 -0.3774 -0.0778  0.1655
 1371BOLB   GL432896   6.478  14.337   8.610  0.3578 -0.0178  0.0453
 1371BOLB   C1C32897   7.000  14.262   8.960  0.2048  0.2794  0.2424
 1371BOLB   C2C32898   7.228  14.076   9.235  0.0738  0.0533  0.0830
 1371BOLB   C3C32899   7.145  14.055   9.657 -0.0468 -0.1102  0.3022
 1371BOLB   C4C32900   7.314  14.051  10.107 -0.5682  0.0082  0.3119
 1371BOLB   C1D32901   6.474  14.229   9.068 -0.1441  0.4269 -0.2784
 1371BOLB   C2D32902   6.752  14.302   9.477 -0.1586  0.0623 -0.1269
 1371BOLB   C3D32903   6.988  14.455   9.941  0.1658 -0.1193 -0.2831
 1371BOLB   C4D32904   7.240  14.548  10.324 -0.1296 -0.0639  0.1367
 1372BOLB   NC132905  12.821  17.237  10.056  0.0324 -0.1283 -0.0945
 1372BOLB   PO132906  12.513  17.391   9.900 -0.1370 -0.4152 -0.0440
 1372BOLB   GL132907  12.347  17.445   9.480 -0.1213 -0.1802 -0.1023
 1372BOLB   GL232908  12.178  17.163   9.306  0.2368  0.0648 -0.1793
 1372BOLB   C1A32909  12.530  17.452   9.074 -0.2750 -0.3096  0.1677
 1372BOLB   C2A32910  12.464  17.330   8.655  0.2095 -0.1746 -0.1866
 1372BOLB   C3A32911  12.677  17.363   8.287 -0.5208 -0.1778  0.0979
 1372BOLB   C4A32912  12.969  17.346   7.914 -0.4154  0.0193  0.2542
 1372BOLB   C1B32913  12.050  17.307   8.930 -0.0283  0.1386 -0.1882
 1372BOLB   C2B32914  11.911  17.460   8.531 -0.0724  0.1437 -0.1805
 1372BOLB   C3B32915  11.637  17.315   8.182  0.1727  0.0430 -0.2082
 1372BOLB   C4B32916  11.778  16.874   8.050  0.1531 -0.2499 -0.1199
 1372BOLB   NC232917  12.052  16.647   6.005 -0.1338  0.1382  0.1920
 1372BOLB   PO232918  12.432  16.970   5.980 -0.1135  0.2468 -0.3214
 1372BOLB   GL332919  12.606  17.311   6.280  0.0906 -0.0088 -0.2250
 1372BOLB   GL432920  12.508  17.236   6.582 -0.0683 -0.0148 -0.0090
 1372BOLB   C1C32921  12.997  17.520   6.459 -0.0380  0.0336 -0.2544
 1372BOLB   C2C32922  13.367  17.461   6.669 -0.0402 -0.4031  0.1543
 1372BOLB   C3C32923  13.353  17.465   7.067  0.2430 -0.0646 -0.1695
 1372BOLB   C4C32924  13.139  17.474   7.492  0.1477  0.0657  0.0189
 1372BOLB   C1D32925  12.573  17.095   6.965  0.2074  0.1063  0.0236
 1372BOLB   C2D32926  12.322  17.212   7.302 -0.0009  0.1911 -0.0328
 1372BOLB   C3D32927  12.365  17.397   7.716 -0.0481  0.0814 -0.3747
 1372BOLB   C4D32928  12.231  17.202   8.185 -0.0854  0.5085 -0.1626
 1373BOLB   NC132929  10.184  19.554  11.958 -0.3711  0.2706  0.0849
 1373BOLB   PO132930  10.056  19.491  11.479  0.4105  0.4664  0.2568
 1373BOLB   GL132931   9.908  19.603  11.060  0.3330  0.1193 -0.0550
 1373BOLB   GL232932  10.095  19.725  10.865 -0.1796  0.0140  0.1314
 1373BOLB   C1A32933   9.712  19.461  10.713  0.1682 -0.2329  0.1587
 1373BOLB   C2A32934   9.462  19.726  10.397  0.1075  0.2328 -0.1665
 1373BOLB   C3A32935   9.322  19.900  10.117 -0.1166  0.0267  0.1219
 1373BOLB   C4A32936   8.929  19.810   9.955 -0.3327  0.1109  0.1007
 1373BOLB   C1B32937   9.986  19.807  10.511 -0.3895  0.2790  0.0108
 1373BOLB   C2B32938   9.787  20.087  10.150 -0.2127  0.0145  0.2813
 1373BOLB   C3B32939   9.669  20.286   9.721 -0.0461 -0.1373 -0.2051
 1373BOLB   C4B32940   9.678  20.252   9.240  0.2312 -0.2178  0.3548
 1373BOLB   NC232941   7.157  20.601   8.215 -0.0138 -0.1998 -0.1692
 1373BOLB   PO232942   7.477  20.705   8.573  0.1141 -0.2004  0.3356
 1373BOLB   GL332943   7.710  20.540   8.843  0.1491 -0.0219  0.0698
 1373BOLB   GL432944   7.965  20.374   8.693  0.1087 -0.1147  0.0235
 1373BOLB   C1C32945   7.668  20.344   9.190 -0.0454  0.4996 -0.1492
 1373BOLB   C2C32946   7.633  20.149   9.675 -0.1597 -0.2813 -0.0579
 1373BOLB   C3C32947   7.953  19.827   9.823  0.0870  0.0429 -0.2432
 1373BOLB   C4C32948   8.479  19.842   9.845 -0.0596 -0.0733  0.0126
 1373BOLB   C1D32949   8.282  20.558   9.034  0.2442  0.0713 -0.0822
 1373BOLB   C2D32950   8.636  20.392   9.106  0.1458 -0.1273  0.0262
 1373BOLB   C3D32951   8.901  20.600   9.429  0.0994  0.1135 -0.1970
 1373BOLB   C4D32952   9.108  20.889   9.513  0.2095 -0.0389  0.1172
 1374BOLB   NC132953  11.817  17.507  10.134  0.0457  0.2791 -0.4828
 1374BOLB   PO132954  12.090  17.705   9.947 -0.0314  0.1344  0.2266
 1374BOLB   GL132955  11.901  17.761   9.556  0.2136  0.1118 -0.2883
 1374BOLB   GL232956  11.793  17.522   9.460 -0.0062 -0.1631 -0.3620
 1374BOLB   C1A32957  11.988  17.920   9.135 -0.0613  0.0303  0.0804
 1374BOLB   C2A32958  11.948  18.054   8.713 -0.0376 -0.1373  0.0840
 1374BOLB   C3A32959  11.789  18.444   8.528 -0.1073 -0.2189 -0.1898
 1374BOLB   C4A32960  11.306  18.504   8.611  0.0366 -0.4311 -0.0995
 1374BOLB   C1B32961  11.439  17.655   9.194 -0.1594 -0.1168 -0.1231
 1374BOLB   C2B32962  11.319  17.574   8.712  0.0622 -0.0477  0.0430
 1374BOLB   C3B32963  11.055  17.459   8.287  0.0136 -0.0891  0.0002
 1374BOLB   C4B32964  11.077  17.463   7.822  0.1071 -0.2747  0.0731
 1374BOLB   NC232965  10.719  19.381   6.617 -0.3876  0.0806 -0.0373
 1374BOLB   PO232966  10.334  19.499   6.875  0.1409  0.1469  0.0842
 1374BOLB   GL332967  10.612  19.153   7.118 -0.0873 -0.2529  0.0651
 1374BOLB   GL432968  10.999  19.248   7.097 -0.0450 -0.0182  0.1420
 1374BOLB   C1C32969  10.736  18.815   7.311  0.0069  0.0063  0.1564
 1374BOLB   C2C32970  10.637  18.510   7.658  0.0179  0.1452 -0.3294
 1374BOLB   C3C32971  10.669  18.469   8.091  0.2871 -0.1387  0.3325
 1374BOLB   C4C32972  10.976  18.539   8.336 -0.3373  0.0844  0.0219
 1374BOLB   C1D32973  11.430  19.272   7.414  0.2261 -0.2365 -0.0244
 1374BOLB   C2D32974  11.668  19.190   7.806  0.0032  0.1214 -0.2286
 1374BOLB   C3D32975  11.712  19.474   8.185 -0.3190 -0.0615 -0.1393
 1374BOLB   C4D32976  11.606  19.639   8.576  0.0658 -0.1475 -0.0400
 1375BOLB   NC132977  15.209  17.075   9.833 -0.2411 -0.0113 -0.4771
 1375BOLB   PO132978  14.829  17.285   9.870 -0.1267 -0.1564  0.2049
 1375BOLB   GL132979  15.055  17.325   9.447  0.2589 -0.0851  0.1296
 1375BOLB   GL232980  14.936  16.992   9.396  0.1040  0.1099  0.1506
 1375BOLB   C1A32981  14.931  17.307   8.989 -0.0630  0.0435  0.0464
 1375BOLB   C2A32982  14.849  17.219   8.521 -0.1331 -0.3999  0.2453
 1375BOLB   C3A32983  14.902  17.422   8.074 -0.0267  0.1556  0.0383
 1375BOLB   C4A32984  15.089  17.329   7.671  0.1753 -0.2881 -0.0060
 1375BOLB   C1B32985  15.209  16.953   9.111  0.0028  0.0098  0.1114
 1375BOLB   C2B32986  15.260  16.873   8.697 -0.1110 -0.4477  0.0775
 1375BOLB   C3B32987  15.301  17.096   8.262 -0.0233 -0.5868 -0.1037
 1375BOLB   C4B32988  15.493  17.322   7.898 -0.0311 -0.1365 -0.0611
 1375BOLB   NC232989  16.951  17.301   5.929 -0.5179 -0.1719  0.5168
 1375BOLB   PO232990  17.246  17.601   6.191 -0.1316 -0.0266 -0.1084
 1375BOLB   GL332991  16.901  17.447   6.406 -0.1942  0.0195 -0.1522
 1375BOLB   GL432992  16.975  17.182   6.577 -0.0985  0.4617  0.0087
 1375BOLB   C1C32993  16.495  17.416   6.682 -0.1190 -0.3950 -0.0879
 1375BOLB   C2C32994  16.204  17.362   6.982 -0.0264 -0.2537 -0.2095
 1375BOLB   C3C32995  15.856  17.210   7.236  0.0372 -0.1469 -0.0483
 1375BOLB   C4C32996  15.362  17.233   7.321 -0.1243  0.0247 -0.0362
 1375BOLB   C1D32997  17.335  17.373   6.771  0.0603 -0.0574 -0.3225
 1375BOLB   C2D32998  17.678  17.425   7.050  0.0747 -0.2673  0.1514
 1375BOLB   C3D32999  17.863  17.407   7.401 -0.0095  0.0697  0.0618
 1375BOLB   C4D33000  17.947  17.673   7.753  0.2103  0.1758 -0.1119
 1376BOLB   NC133001  18.397  22.990  13.153 -0.3851  0.2200 -0.1303
 1376BOLB   PO133002  18.449  23.190  12.721 -0.0544 -0.0261  0.1150
 1376BOLB   GL133003  18.709  23.474  12.575  0.3198 -0.2449 -0.0259
 1376BOLB   GL233004  18.894  23.393  12.367 -0.2495 -0.1150 -0.3732
 1376BOLB   C1A33005  18.873  23.919  12.373 -0.0281  0.1044 -0.1333
 1376BOLB   C2A33006  18.881  24.278  12.160 -0.1940  0.0994 -0.2302
 1376BOLB   C3A33007  18.650  24.576  12.093 -0.2680 -0.0343  0.1837
 1376BOLB   C4A33008  18.678  24.858  11.717 -0.0025 -0.0066  0.0545
 1376BOLB   C1B33009  18.949  23.597  11.930 -0.0519  0.1598 -0.0428
 1376BOLB   C2B33010  18.983  23.842  11.576 -0.0384 -0.1977 -0.0996
 1376BOLB   C3B33011  19.065  24.204  11.367 -0.1419  0.1077  0.2420
 1376BOLB   C4B33012  19.229  24.268  10.947  0.3917  0.0920  0.2373
 1376BOLB   NC233013  20.328  26.284   9.570 -0.0174 -0.1968 -0.1460
 1376BOLB   PO233014  19.894  26.066   9.678  0.3367  0.0661 -0.4790
 1376BOLB   GL333015  19.860  25.673   9.972  0.0664  0.0931  0.1849
 1376BOLB   GL433016  20.075  25.624  10.286 -0.1147 -0.1011 -0.1001
 1376BOLB   C1C33017  19.667  25.352  10.268 -0.2348 -0.1552  0.1400
 1376BOLB   C2C33018  19.321  25.229  10.625  0.1614  0.1048  0.1882
 1376BOLB   C3C33019  19.070  25.129  11.054  0.1210  0.2455  0.0816
 1376BOLB   C4C33020  18.926  25.207  11.462 -0.3040 -0.2062  0.1997
 1376BOLB   C1D33021  20.101  25.363  10.756 -0.2685 -0.0710  0.5396
 1376BOLB   C2D33022  20.273  25.273  11.131  0.2033  0.0748 -0.0466
 1376BOLB   C3D33023  20.408  25.239  11.512 -0.0736  0.3804 -0.2515
 1376BOLB   C4D33024  20.792  25.408  11.660  0.1749  0.2629 -0.1605
 1377BOLB   NC133025  15.411  19.697  10.575 -0.0131  0.0040  0.0996
 1377BOLB   PO133026  14.958  19.710  10.400 -0.1801  0.0929  0.2280
 1377BOLB   GL133027  15.261  19.859  10.101 -0.0974  0.3037  0.3380
 1377BOLB   GL233028  15.553  19.921  10.167 -0.4212  0.0263  0.3425
 1377BOLB   C1A33029  15.150  19.966   9.693 -0.1719 -0.0403 -0.0400
 1377BOLB   C2A33030  15.294  19.873   9.361 -0.0395  0.2357 -0.0155
 1377BOLB   C3A33031  15.190  19.797   8.981  0.1716 -0.2322  0.1467
 1377BOLB   C4A33032  15.055  19.755   8.598 -0.3792  0.1681 -0.2275
 1377BOLB   C1B33033  15.613  20.215   9.865 -0.1720  0.1433 -0.2059
 1377BOLB   C2B33034  15.554  20.292   9.430 -0.0506  0.1111  0.0031
 1377BOLB   C3B33035  15.314  20.302   8.968 -0.0872  0.0830 -0.3415
 1377BOLB   C4B33036  15.272  20.188   8.520 -0.0775  0.0757  0.1319
 1377BOLB   NC233037  14.408  19.495   6.101 -0.3308  0.3483  0.6297
 1377BOLB   PO233038  14.478  19.961   6.287 -0.0330  0.1212  0.3000
 1377BOLB   GL333039  14.328  20.018   6.588  0.2631  0.2016 -0.3116
 1377BOLB   GL433040  14.080  19.919   6.708 -0.0772  0.1846 -0.2298
 1377BOLB   C1C33041  14.448  19.917   7.062 -0.2930  0.1980  0.2175
 1377BOLB   C2C33042  14.281  19.965   7.486 -0.1064 -0.0020 -0.0477
 1377BOLB   C3C33043  14.539  19.816   7.786 -0.1041 -0.1326 -0.0973
 1377BOLB   C4C33044  14.881  19.922   8.179 -0.0054 -0.0086 -0.0482
 1377BOLB   C1D33045  13.937  20.094   7.028 -0.0128  0.0725  0.3014
 1377BOLB   C2D33046  13.775  19.914   7.430  0.0219  0.1186 -0.1518
 1377BOLB   C3D33047  13.855  19.705   7.645 -0.1586  0.0871  0.0795
 1377BOLB   C4D33048  13.824  19.415   7.930  0.1752 -0.0404  0.1240
 1378BOLB   NC133049  20.197  13.879  12.411  0.0952  0.1085  0.0515
 1378BOLB   PO133050  20.602  13.559  12.355  0.1663  0.1203 -0.0366
 1378BOLB   GL133051  20.686  13.320  11.953  0.1833  0.3500 -0.0707
 1378BOLB   GL233052  21.039  13.414  11.784  0.0817  0.0209 -0.0531
 1378BOLB   C1A33053  20.670  13.097  11.588  0.0031 -0.0957 -0.3404
 1378BOLB   C2A33054  20.636  12.743  11.322 -0.3379  0.1813 -0.2585
 1378BOLB   C3A33055  20.463  12.506  10.922 -0.1779 -0.0397  0.0100
 1378BOLB   C4A33056  20.504  12.181  10.647  0.0051 -0.0022 -0.0860
 1378BOLB   C1B33057  21.270  13.101  11.495  0.1675 -0.1838 -0.5451
 1378BOLB   C2B33058  21.429  13.099  11.186  0.1611 -0.0938  0.2429
 1378BOLB   C3B33059  21.535  12.761  10.862 -0.3394 -0.0768  0.0347
 1378BOLB   C4B33060  21.872  12.544  10.858 -0.2307  0.4170 -0.0950
 1378BOLB   NC233061  21.771  10.854   9.252 -0.1040  0.3508  0.2150
 1378BOLB   PO233062  21.605  11.108   8.842 -0.1041 -0.1195  0.2191
 1378BOLB   GL333063  21.731  11.342   9.271  0.1083 -0.2131 -0.2315
 1378BOLB   GL433064  21.665  11.625   9.161 -0.1791 -0.3278  0.0297
 1378BOLB   C1C33065  21.590  11.466   9.661  0.2581  0.0543  0.1985
 1378BOLB   C2C33066  21.270  11.641   9.871 -0.0377 -0.2321  0.0667
 1378BOLB   C3C33067  20.869  11.700  10.026 -0.2922 -0.0507  0.0839
 1378BOLB   C4C33068  20.625  11.959  10.273  0.1382 -0.1170  0.0097
 1378BOLB   C1D33069  21.487  11.918   9.474  0.0515  0.0388  0.0097
 1378BOLB   C2D33070  21.481  12.281   9.688 -0.2695 -0.0661 -0.1320
 1378BOLB   C3D33071  21.598  12.276  10.085  0.1683  0.2477 -0.1130
 1378BOLB   C4D33072  21.939  12.014  10.315  0.0860  0.2809  0.4384
 1379BOLB   NC133073  19.404  17.047  10.423  0.0250 -0.2091 -0.1919
 1379BOLB   PO133074  19.073  16.844  10.322  0.0763 -0.0734 -0.2187
 1379BOLB   GL133075  18.849  16.814   9.966 -0.1030  0.0218 -0.1297
 1379BOLB   GL233076  18.992  16.530   9.846  0.0853  0.3565 -0.2404
 1379BOLB   C1A33077  18.781  16.889   9.529  0.1322  0.0594 -0.2285
 1379BOLB   C2A33078  18.995  16.983   9.154 -0.0925  0.0351 -0.0808
 1379BOLB   C3A33079  19.014  17.104   8.707 -0.1081 -0.0877 -0.3606
 1379BOLB   C4A33080  19.143  17.054   8.360  0.2239 -0.0118  0.2651
 1379BOLB   C1B33081  19.180  16.562   9.360  0.1323  0.0372  0.0777
 1379BOLB   C2B33082  19.450  16.679   8.992 -0.1487 -0.1118 -0.0846
 1379BOLB   C3B33083  19.594  16.706   8.549 -0.0194 -0.0365 -0.4451
 1379BOLB   C4B33084  19.598  16.729   8.097 -0.0219 -0.0776 -0.6896
 1379BOLB   NC233085  18.700  17.103   5.823 -0.1747 -0.1495 -0.1758
 1379BOLB   PO233086  18.631  17.385   6.151  0.3390 -0.2641 -0.0321
 1379BOLB   GL333087  18.769  17.140   6.522 -0.1930 -0.1374  0.0759
 1379BOLB   GL433088  18.878  16.779   6.539 -0.0028  0.0019  0.1392
 1379BOLB   C1C33089  19.145  17.074   6.829  0.0161  0.1001  0.3759
 1379BOLB   C2C33090  19.215  16.834   7.156  0.1786  0.0383  0.1467
 1379BOLB   C3C33091  19.444  16.890   7.524 -0.1383  0.1660 -0.0335
 1379BOLB   C4C33092  19.265  17.135   7.924 -0.1594 -0.1974  0.0170
 1379BOLB   C1D33093  18.578  16.675   6.872 -0.1720  0.1195 -0.1047
 1379BOLB   C2D33094  18.156  16.741   7.000  0.1023  0.4665  0.0215
 1379BOLB   C3D33095  17.921  16.893   7.191 -0.0708 -0.0358  0.4410
 1379BOLB   C4D33096  17.739  16.979   7.565  0.1035  0.2204  0.0381
 1380BOLB   NC133097  20.329  10.863  13.513  0.0051  0.0900 -0.0666
 1380BOLB   PO133098  20.150  10.558  13.827  0.2556 -0.2569  0.0362
 1380BOLB   GL133099  20.219  10.248  13.501  0.3922  0.5268  0.1165
 1380BOLB   GL233100  20.253  10.439  13.259 -0.0447 -0.0164 -0.1900
 1380BOLB   C1A33101  20.108   9.967  13.244 -0.2794  0.0054 -0.3480
 1380BOLB   C2A33102  20.186   9.783  12.856 -0.0185  0.2274 -0.0367
 1380BOLB   C3A33103  20.336   9.481  12.527  0.1504 -0.1308 -0.0447
 1380BOLB   C4A33104  20.457   9.223  12.293  0.0688 -0.0286 -0.4011
 1380BOLB   C1B33105  20.590  10.389  13.039 -0.0218  0.0660 -0.0731
 1380BOLB   C2B33106  20.811  10.420  12.679  0.0072  0.3401 -0.1181
 1380BOLB   C3B33107  21.049  10.123  12.490 -0.2110 -0.4783 -0.1168
 1380BOLB   C4B33108  21.005  10.000  12.113 -0.0340  0.2306 -0.2486
 1380BOLB   NC233109  22.208   7.330  12.172  0.1570 -0.2480 -0.0044
 1380BOLB   PO233110  22.249   7.627  11.692  0.0051 -0.0296  0.0863
 1380BOLB   GL333111  21.930   7.954  11.770  0.1722 -0.0740  0.0285
 1380BOLB   GL433112  21.999   8.196  11.916  0.0754 -0.3986 -0.0656
 1380BOLB   C1C33113  21.516   8.271  11.758 -0.2263  0.3216  0.1671
 1380BOLB   C2C33114  21.386   8.559  11.973  0.1567  0.1155 -0.1733
 1380BOLB   C3C33115  21.169   8.955  12.006  0.0552 -0.0890 -0.2749
 1380BOLB   C4C33116  20.777   9.036  12.201 -0.0576 -0.1083  0.3388
 1380BOLB   C1D33117  21.913   8.571  12.149 -0.0242 -0.0866 -0.1009
 1380BOLB   C2D33118  21.964   8.791  12.588  0.2608  0.4140 -0.1414
 1380BOLB   C3D33119  21.913   8.982  13.030 -0.1210 -0.0496  0.1312
 1380BOLB   C4D33120  21.703   8.884  13.376 -0.3724  0.0297 -0.0561
 1381BOLB   NC133121  21.314  16.889  11.847 -0.2138  0.0998 -0.0929
 1381BOLB   PO133122  21.679  17.111  11.645 -0.3066  0.1835  0.0554
 1381BOLB   GL133123  21.925  17.007  11.452 -0.0645 -0.1125 -0.0233
 1381BOLB   GL233124  22.237  16.912  11.561 -0.1452 -0.1717  0.4621
 1381BOLB   C1A33125  22.235  17.041  11.054 -0.0309 -0.1670 -0.1934
 1381BOLB   C2A33126  22.152  17.173  10.581 -0.0347  0.1544 -0.0706
 1381BOLB   C3A33127  22.291  17.082  10.250 -0.1719 -0.1031 -0.1506
 1381BOLB   C4A33128  22.565  17.324  10.007  0.2014 -0.0627 -0.5076
 1381BOLB   C1B33129  22.611  16.753  11.340 -0.3982 -0.1590  0.0402
 1381BOLB   C2B33130  22.814  16.449  11.042 -0.1057  0.0128  0.3297
 1381BOLB   C3B33131  22.918  16.316  10.564 -0.3948 -0.2314  0.2141
 1381BOLB   C4B33132  23.073  16.142  10.204  0.0812 -0.1695 -0.1712
 1381BOLB   NC233133  23.845  17.182   7.757  0.1154 -0.1054 -0.0523
 1381BOLB   PO233134  23.515  17.519   7.594 -0.4769  0.0131  0.2061
 1381BOLB   GL333135  23.279  17.323   7.891  0.0966 -0.0141  0.0770
 1381BOLB   GL433136  23.033  17.454   8.027  0.1078 -0.0152  0.1326
 1381BOLB   C1C33137  23.281  17.189   8.351 -0.0434  0.3107  0.0396
 1381BOLB   C2C33138  23.066  17.142   8.799  0.1919  0.2025  0.1015
 1381BOLB   C3C33139  22.753  17.179   9.058  0.0575 -0.0872  0.1524
 1381BOLB   C4C33140  22.692  17.223   9.552  0.1693  0.0613 -0.0040
 1381BOLB   C1D33141  22.780  17.388   8.346 -0.0798  0.0643 -0.3265
 1381BOLB   C2D33142  22.720  17.653   8.709  0.2768  0.1120 -0.1957
 1381BOLB   C3D33143  22.728  17.652   9.187 -0.0325  0.2794  0.1391
 1381BOLB   C4D33144  22.444  17.698   9.473 -0.2178  0.3307 -0.2020
 1382BOLB   NC133145  21.227  21.430  12.032  0.0542  0.2784 -0.2829
 1382BOLB   PO133146  21.368  21.706  12.160  0.1382  0.0167 -0.4379
 1382BOLB   GL133147  21.310  21.893  11.744 -0.2547 -0.1526 -0.1962
 1382BOLB   GL233148  21.041  22.131  11.754 -0.1097  0.0386  0.1510
 1382BOLB   C1A33149  21.462  21.973  11.328  0.1527 -0.1037 -0.2096
 1382BOLB   C2A33150  21.126  22.145  11.190  0.0495  0.2982 -0.0844
 1382BOLB   C3A33151  20.959  22.410  10.903 -0.0071 -0.3726  0.1468
 1382BOLB   C4A33152  20.769  22.394  10.479  0.1805  0.0533  0.0507
 1382BOLB   C1B33153  21.338  22.403  11.545  0.1533  0.3528  0.2335
 1382BOLB   C2B33154  21.467  22.523  11.072 -0.1158  0.0696 -0.3340
 1382BOLB   C3B33155  21.354  22.629  10.632  0.0186  0.2176 -0.2746
 1382BOLB   C4B33156  21.131  22.722  10.151 -0.3055  0.0819  0.1279
 1382BOLB   NC233157  20.641  23.826   9.014  0.1935 -0.0626 -0.2511
 1382BOLB   PO233158  20.253  24.051   9.120 -0.1125  0.1610  0.3226
 1382BOLB   GL333159  20.144  23.913   9.479 -0.0165  0.1228 -0.0147
 1382BOLB   GL433160  20.401  23.874   9.747  0.0775 -0.0684 -0.0955
 1382BOLB   C1C33161  19.914  23.682   9.773  0.0526  0.0441 -0.1378
 1382BOLB   C2C33162  20.167  23.331  10.095 -0.0796  0.2696  0.1352
 1382BOLB   C3C33163  20.230  22.938  10.181 -0.1511  0.2807 -0.2475
 1382BOLB   C4C33164  20.640  22.707  10.223 -0.1066 -0.0972  0.4473
 1382BOLB   C1D33165  20.512  23.474   9.785 -0.0935  0.0267  0.3275
 1382BOLB   C2D33166  20.869  23.113   9.918  0.1574  0.0394  0.1831
 1382BOLB   C3D33167  21.048  23.326  10.243 -0.2186  0.1981  0.1867
 1382BOLB   C4D33168  21.417  23.561  10.241 -0.1684 -0.1479 -0.2007
 1383BOLB   NC133169  20.997  13.861  11.995 -0.0614  0.0090  0.0490
 1383BOLB   PO133170  20.581  13.846  11.822 -0.2661  0.2428  0.2332
 1383BOLB   GL133171  20.961  13.871  11.510  0.3002 -0.2209 -0.4520
 1383BOLB   GL233172  21.303  14.060  11.653 -0.0866 -0.4602 -0.3988
 1383BOLB   C1A33173  21.264  13.763  11.297  0.1991 -0.0243  0.2068
 1383BOLB   C2A33174  21.236  13.536  10.918 -0.1393  0.2459 -0.1932
 1383BOLB   C3A33175  21.370  13.232  10.638 -0.2485 -0.3077 -0.2202
 1383BOLB   C4A33176  21.332  13.147  10.139  0.2723  0.2350  0.0070
 1383BOLB   C1B33177  21.553  14.141  11.237  0.2868  0.0244 -0.3116
 1383BOLB   C2B33178  21.652  13.999  10.794  0.1164 -0.0507  0.1888
 1383BOLB   C3B33179  21.487  13.730  10.552 -0.0065  0.0481  0.0634
 1383BOLB   C4B33180  21.171  13.596  10.247 -0.0544  0.0104  0.2678
 1383BOLB   NC233181  22.135  13.357   8.143 -0.1029  0.1549  0.0690
 1383BOLB   PO233182  22.428  13.078   8.282 -0.0260 -0.0633 -0.0862
 1383BOLB   GL333183  22.183  13.162   8.637 -0.0017 -0.1706 -0.0910
 1383BOLB   GL433184  22.264  13.256   8.791  0.0338 -0.0210  0.3917
 1383BOLB   C1C33185  21.760  13.109   8.818  0.1507  0.0574  0.1125
 1383BOLB   C2C33186  21.494  13.226   9.128 -0.0353 -0.0244  0.1592
 1383BOLB   C3C33187  21.547  13.418   9.434  0.1468 -0.0897 -0.0927
 1383BOLB   C4C33188  21.330  13.255   9.768  0.0721  0.0102 -0.0006
 1383BOLB   C1D33189  22.125  13.435   9.189  0.1628 -0.0449  0.0437
 1383BOLB   C2D33190  21.951  13.715   9.482  0.2302 -0.0553 -0.0088
 1383BOLB   C3D33191  21.796  14.036   9.574 -0.2364  0.1383 -0.1842
 1383BOLB   C4D33192  21.850  14.486   9.546 -0.0787  0.0960 -0.2217
 1384BOLB   NC133193  15.094  19.275  10.624 -0.2247  0.2124 -0.4715
 1384BOLB   PO133194  15.328  19.356  10.225  0.0318 -0.7107 -0.4101
 1384BOLB   GL133195  15.051  19.493   9.864 -0.1927  0.1304 -0.0680
 1384BOLB   GL233196  15.293  19.419   9.613  0.0801 -0.0609 -0.3518
 1384BOLB   C1A33197  14.765  19.600   9.612 -0.1264  0.1883  0.3420
 1384BOLB   C2A33198  14.751  19.860   9.271  0.0323  0.0905  0.2364
 1384BOLB   C3A33199  14.612  19.772   8.853 -0.0379  0.0273 -0.0873
 1384BOLB   C4A33200  14.534  19.676   8.389 -0.3994 -0.0121  0.0544
 1384BOLB   C1B33201  15.018  19.413   9.253  0.0222  0.0274 -0.0450
 1384BOLB   C2B33202  14.873  19.157   8.997 -0.2482 -0.0496 -0.2742
 1384BOLB   C3B33203  14.503  19.208   8.695  0.1572 -0.0329 -0.1651
 1384BOLB   C4B33204  14.163  18.929   8.524 -0.1897 -0.1100  0.1545
 1384BOLB   NC233205  13.630  19.886   6.151 -0.2127 -0.0117  0.1868
 1384BOLB   PO233206  13.972  19.734   6.181  0.0223  0.0457 -0.0100
 1384BOLB   GL333207  13.983  19.429   6.392 -0.1315  0.3142 -0.3031
 1384BOLB   GL433208  14.113  19.108   6.348 -0.2491 -0.0080 -0.0328
 1384BOLB   C1C33209  14.161  19.437   6.859  0.0799  0.1315  0.0818
 1384BOLB   C2C33210  14.144  19.530   7.259 -0.2640 -0.0814  0.1079
 1384BOLB   C3C33211  14.292  19.321   7.688 -0.0700 -0.2730  0.2839
 1384BOLB   C4C33212  14.399  19.353   8.023 -0.0298 -0.1188 -0.2520
 1384BOLB   C1D33213  14.317  19.007   6.738  0.0800  0.0798  0.0405
 1384BOLB   C2D33214  14.426  18.810   7.154 -0.2699  0.2677  0.0031
 1384BOLB   C3D33215  14.774  18.732   7.437  0.2503  0.1056  0.0694
 1384BOLB   C4D33216  15.115  18.776   7.785 -0.1426 -0.0569  0.2531
 1385BOLB   NC133217  14.470  23.620  12.826 -0.0075 -0.2095  0.1645
 1385BOLB   PO133218  14.309  23.578  12.430 -0.0157  0.1003 -0.4516
 1385BOLB   GL133219  14.389  23.835  12.169  0.0659 -0.1988 -0.0134
 1385BOLB   GL233220  14.093  23.872  12.009 -0.0726  0.0670  0.0821
 1385BOLB   C1A33221  14.558  23.879  11.772 -0.1105 -0.1160  0.2739
 1385BOLB   C2A33222  14.486  24.062  11.386 -0.0855 -0.4870 -0.2987
 1385BOLB   C3A33223  14.299  24.288  11.121 -0.1761  0.0872 -0.1187
 1385BOLB   C4A33224  14.143  24.500  10.649 -0.3270  0.2034  0.0683
 1385BOLB   C1B33225  14.127  24.190  11.721 -0.2764 -0.2280  0.5256
 1385BOLB   C2B33226  14.217  24.679  11.580 -0.0606  0.0609 -0.0412
 1385BOLB   C3B33227  13.988  24.972  11.396  0.1587 -0.1079  0.2970
 1385BOLB   C4B33228  13.680  25.142  10.937 -0.0706  0.1102 -0.1673
 1385BOLB   NC233229  15.062  26.904   9.637  0.1783  0.0026 -0.2938
 1385BOLB   PO233230  15.406  26.834  10.019  0.2762 -0.1713 -0.0487
 1385BOLB   GL333231  15.327  26.415  10.284 -0.0778  0.2057 -0.1324
 1385BOLB   GL433232  15.499  26.355  10.610  0.1497 -0.2155  0.1696
 1385BOLB   C1C33233  15.304  25.957  10.097 -0.2164 -0.3444 -0.0297
 1385BOLB   C2C33234  15.081  25.476  10.055 -0.0403 -0.4209 -0.2680
 1385BOLB   C3C33235  14.782  25.105  10.247 -0.2918  0.4456  0.0424
 1385BOLB   C4C33236  14.516  24.751  10.383 -0.0252 -0.3413 -0.2030
 1385BOLB   C1D33237  15.732  26.067  10.775  0.1738 -0.1098 -0.3062
 1385BOLB   C2D33238  15.732  25.577  10.768  0.0268  0.3250  0.1760
 1385BOLB   C3D33239  15.924  25.468  11.100  0.1102 -0.3234 -0.2902
 1385BOLB   C4D33240  15.597  25.432  11.372 -0.2870 -0.0847 -0.0387
 1386BOLB   NC133241  14.152  21.116  10.791 -0.2285  0.3974  0.0854
 1386BOLB   PO133242  14.451  21.461  10.988 -0.3795 -0.0975  0.0007
 1386BOLB   GL133243  14.379  21.471  10.478 -0.0120  0.0481  0.0758
 1386BOLB   GL233244  14.431  21.200  10.416 -0.1619 -0.0178 -0.1754
 1386BOLB   C1A33245  14.397  21.829  10.132  0.1328 -0.0878 -0.3283
 1386BOLB   C2A33246  14.535  21.963   9.679 -0.1718  0.2403  0.0511
 1386BOLB   C3A33247  14.643  21.835   9.314 -0.0586 -0.0163 -0.0072
 1386BOLB   C4A33248  14.725  21.723   8.816 -0.0425  0.0416 -0.0335
 1386BOLB   C1B33249  14.101  21.340  10.106 -0.1482 -0.1496 -0.1839
 1386BOLB   C2B33250  14.091  21.691   9.793  0.3140  0.3029 -0.0304
 1386BOLB   C3B33251  14.073  22.121   9.776 -0.2096 -0.1875 -0.1436
 1386BOLB   C4B33252  13.917  22.387  10.135  0.0999 -0.0627  0.4261
 1386BOLB   NC233253  14.764  21.905   6.465  0.1724 -0.0455  0.2425
 1386BOLB   PO233254  14.776  21.430   6.439 -0.1939  0.4298  0.0597
 1386BOLB   GL333255  14.662  21.494   6.866  0.0396  0.2217 -0.0865
 1386BOLB   GL433256  14.431  21.330   6.995  0.1662  0.0195  0.0265
 1386BOLB   C1C33257  14.702  21.664   7.300  0.1348 -0.0993 -0.0341
 1386BOLB   C2C33258  14.395  21.788   7.566  0.0918  0.3131 -0.0033
 1386BOLB   C3C33259  14.473  21.681   7.985  0.0720  0.1253 -0.3253
 1386BOLB   C4C33260  14.626  21.634   8.388  0.0720  0.1182  0.2734
 1386BOLB   C1D33261  14.058  21.372   7.235  0.1906 -0.1345  0.3065
 1386BOLB   C2D33262  13.810  21.146   7.406 -0.0995 -0.0104  0.0335
 1386BOLB   C3D33263  13.590  20.870   7.718 -0.1001 -0.1984  0.0619
 1386BOLB   C4D33264  13.290  20.822   8.106  0.2641 -0.1272  0.0307
 1387BOLB   NC133265  18.483  17.254  10.049 -0.0932  0.1748  0.0448
 1387BOLB   PO133266  18.206  17.139   9.845  0.0022 -0.0985  0.0209
 1387BOLB   GL133267  18.269  17.294   9.508  0.3173  0.1786  0.0941
 1387BOLB   GL233268  18.565  17.385   9.419  0.0075 -0.0221 -0.0687
 1387BOLB   C1A33269  18.189  17.543   9.163  0.0569 -0.0484  0.3221
 1387BOLB   C2A33270  18.366  17.834   8.944 -0.2121 -0.0993  0.0664
 1387BOLB   C3A33271  18.295  17.974   8.547  0.3462 -0.0111 -0.1827
 1387BOLB   C4A33272  18.087  18.167   8.323 -0.0417  0.2364 -0.0862
 1387BOLB   C1B33273  18.710  17.458   9.067 -0.2075 -0.0982  0.2748
 1387BOLB   C2B33274  18.755  17.554   8.699 -0.1138 -0.3918 -0.2050
 1387BOLB   C3B33275  18.726  17.840   8.382 -0.1560  0.1622 -0.2854
 1387BOLB   C4B33276  18.887  18.131   8.066 -0.5042 -0.0278 -0.1108
 1387BOLB   NC233277  18.396  17.872   5.788  0.0721 -0.2599 -0.0115
 1387BOLB   PO233278  18.103  17.804   6.132  0.0685  0.0252  0.0863
 1387BOLB   GL333279  18.138  17.601   6.482 -0.0036  0.3702 -0.3478
 1387BOLB   GL433280  18.445  17.545   6.584 -0.2327  0.0876  0.2265
 1387BOLB   C1C33281  18.236  17.801   6.924  0.1743  0.1988 -0.0839
 1387BOLB   C2C33282  18.188  17.893   7.359  0.2086  0.3393  0.5077
 1387BOLB   C3C33283  17.952  18.158   7.506  0.5116  0.3056 -0.1041
 1387BOLB   C4C33284  18.009  18.169   7.913  0.0350 -0.0491  0.3198
 1387BOLB   C1D33285  18.764  17.414   6.923  0.1716 -0.2361  0.1593
 1387BOLB   C2D33286  18.726  17.068   7.225 -0.0742  0.1127  0.0417
 1387BOLB   C3D33287  18.788  16.687   7.523 -0.1595 -0.2483 -0.1006
 1387BOLB   C4D33288  19.054  16.677   7.869 -0.1508 -0.0936  0.0707
 1388BOLB   NC133289  13.773  11.264  11.109 -0.0530 -0.0658  0.1247
 1388BOLB   PO133290  13.696  10.913  10.933 -0.3922  0.0455  0.2049
 1388BOLB   GL133291  13.514  10.782  10.690  0.2447 -0.0209 -0.2523
 1388BOLB   GL233292  13.820  10.586  10.505  0.0075 -0.0446  0.4440
 1388BOLB   C1A33293  13.471  10.784  10.237 -0.0625 -0.1448 -0.2640
 1388BOLB   C2A33294  13.690  10.548   9.921 -0.1727 -0.2132  0.1118
 1388BOLB   C3A33295  13.616  10.094   9.918 -0.0359 -0.0890  0.0390
 1388BOLB   C4A33296  13.728   9.760   9.597 -0.1247  0.1273  0.0117
 1388BOLB   C1B33297  14.112  10.461  10.246  0.1347 -0.0989  0.1405
 1388BOLB   C2B33298  14.085  10.205   9.871 -0.0200  0.0830  0.1255
 1388BOLB   C3B33299  14.388  10.323   9.543 -0.1167 -0.1616 -0.0177
 1388BOLB   C4B33300  14.672  10.156   9.337 -0.1321  0.1924  0.2475
 1388BOLB   NC233301  14.409   8.247   8.025 -0.1163 -0.0241  0.0732
 1388BOLB   PO233302  14.825   8.476   8.029 -0.0360 -0.0593  0.0730
 1388BOLB   GL333303  14.605   8.685   8.312  0.0556 -0.3729  0.1920
 1388BOLB   GL433304  14.778   8.892   8.361 -0.0931  0.0806  0.1556
 1388BOLB   C1C33305  14.373   8.736   8.691 -0.1300  0.0058 -0.2837
 1388BOLB   C2C33306  14.144   8.785   9.012 -0.5013 -0.0270  0.0411
 1388BOLB   C3C33307  13.986   8.897   9.430 -0.0150  0.0332  0.0583
 1388BOLB   C4C33308  13.826   9.307   9.535 -0.2015 -0.3678 -0.0197
 1388BOLB   C1D33309  15.156   8.880   8.458 -0.3041 -0.1692 -0.0538
 1388BOLB   C2D33310  15.371   8.968   8.754  0.0109  0.2562 -0.0643
 1388BOLB   C3D33311  15.177   9.000   9.146 -0.2053 -0.1493 -0.3099
 1388BOLB   C4D33312  15.102   8.999   9.587  0.0613  0.2449  0.2649
 1389BOLB   NC133313  16.336  19.868  10.900  0.0119 -0.1763  0.2825
 1389BOLB   PO133314  16.334  19.508  10.687  0.1507 -0.0256 -0.4372
 1389BOLB   GL133315  16.246  19.885  10.375  0.1711  0.0280 -0.2585
 1389BOLB   GL233316  16.072  19.762  10.152  0.1679  0.1841 -0.0911
 1389BOLB   C1A33317  16.052  20.264  10.109  0.0035  0.0586 -0.2481
 1389BOLB   C2A33318  16.060  20.440   9.607  0.0697 -0.1107  0.0898
 1389BOLB   C3A33319  16.144  20.780   9.254 -0.1156 -0.0068  0.0570
 1389BOLB   C4A33320  15.890  21.177   9.238 -0.4494  0.1113 -0.0603
 1389BOLB   C1B33321  16.379  19.661   9.835  0.2430  0.0561  0.1876
 1389BOLB   C2B33322  16.532  19.751   9.374 -0.3942 -0.1430 -0.1160
 1389BOLB   C3B33323  16.421  19.431   9.040 -0.0632 -0.1158 -0.1838
 1389BOLB   C4B33324  16.336  19.555   8.697 -0.3297 -0.0091  0.0474
 1389BOLB   NC233325  15.380  22.346   6.852 -0.3804  0.0173  0.1415
 1389BOLB   PO233326  15.737  22.502   7.217  0.1569 -0.2743 -0.2488
 1389BOLB   GL333327  15.514  22.198   7.384  0.1096  0.4441 -0.0404
 1389BOLB   GL433328  15.227  22.102   7.217 -0.3019 -0.1905  0.2806
 1389BOLB   C1C33329  15.486  22.055   7.771  0.1322 -0.3883  0.3899
 1389BOLB   C2C33330  15.472  21.822   8.184  0.4834 -0.0966  0.1133
 1389BOLB   C3C33331  15.613  21.822   8.627  0.2918  0.0103  0.0689
 1389BOLB   C4C33332  15.699  21.577   9.035 -0.0521  0.0995  0.0450
 1389BOLB   C1D33333  15.144  21.789   7.517 -0.0434  0.0045 -0.1117
 1389BOLB   C2D33334  14.940  21.860   7.918 -0.0681  0.1579  0.1350
 1389BOLB   C3D33335  14.983  21.945   8.350  0.3158  0.3380 -0.2486
 1389BOLB   C4D33336  15.114  22.125   8.658 -0.2641  0.1632  0.1205
 1390BOLB   NC133337  20.054  12.374  12.051  0.3033 -0.1281  0.0490
 1390BOLB   PO133338  20.022  12.031  12.502 -0.0068 -0.1991 -0.0425
 1390BOLB   GL133339  19.893  11.831  12.112  0.1775  0.2336 -0.0724
 1390BOLB   GL233340  20.067  11.579  12.186 -0.0998  0.2794  0.2431
 1390BOLB   C1A33341  19.861  11.521  11.751 -0.1006  0.0930  0.0327
 1390BOLB   C2A33342  19.934  11.135  11.614  0.0927  0.0097  0.2962
 1390BOLB   C3A33343  20.130  10.736  11.342  0.0146  0.0802 -0.0566
 1390BOLB   C4A33344  20.445  10.508  11.090  0.1154  0.0556  0.1282
 1390BOLB   C1B33345  20.345  11.302  11.834 -0.4622 -0.0414  0.0575
 1390BOLB   C2B33346  20.521  11.066  11.528 -0.0622 -0.0475 -0.2569
 1390BOLB   C3B33347  20.840  10.833  11.511  0.1576 -0.0964 -0.0587
 1390BOLB   C4B33348  21.140  10.604  11.414  0.1236  0.1791  0.0667
 1390BOLB   NC233349  21.950   8.874  10.125 -0.0528  0.1212  0.3106
 1390BOLB   PO233350  21.639   8.818  10.319  0.2677 -0.1149  0.0086
 1390BOLB   GL333351  21.604   9.079  10.592 -0.0087  0.2156  0.2678
 1390BOLB   GL433352  21.611   8.915  10.927  0.0289 -0.1441  0.1545
 1390BOLB   C1C33353  21.288   9.437  10.734 -0.0256  0.1829  0.2504
 1390BOLB   C2C33354  21.057   9.733  10.548 -0.2847  0.1062 -0.0094
 1390BOLB   C3C33355  20.713  10.029  10.484  0.1488 -0.2774 -0.0291
 1390BOLB   C4C33356  20.546  10.237  10.697 -0.0636 -0.1049 -0.2687
 1390BOLB   C1D33357  21.441   9.274  11.242  0.0331 -0.0519 -0.2726
 1390BOLB   C2D33358  21.056   9.495  11.188  0.0249  0.0224  0.1849
 1390BOLB   C3D33359  20.987   9.828  11.171  0.0571  0.0274  0.2949
 1390BOLB   C4D33360  20.896  10.283  11.070 -0.0210 -0.1435  0.2878
 1391BOLB   NC133361  19.744  22.493  12.243 -0.1407 -0.1513  0.0293
 1391BOLB   PO133362  20.024  22.356  12.551  0.1198  0.0798 -0.0360
 1391BOLB   GL133363  20.249  22.424  12.113 -0.0259 -0.0344 -0.5261
 1391BOLB   GL233364  20.216  22.770  12.213 -0.3919 -0.1303  0.1833
 1391BOLB   C1A33365  20.146  22.681  11.687  0.0715  0.2524 -0.3463
 1391BOLB   C2A33366  20.093  22.996  11.485  0.1262  0.2676 -0.1053
 1391BOLB   C3A33367  19.967  23.150  11.071 -0.4285 -0.2256 -0.1763
 1391BOLB   C4A33368  19.823  23.418  10.782  0.0709 -0.2359  0.2032
 1391BOLB   C1B33369  20.254  23.142  11.903 -0.1791  0.0395  0.0504
 1391BOLB   C2B33370  20.278  23.460  11.633 -0.3678  0.0121  0.0248
 1391BOLB   C3B33371  20.310  23.625  11.210 -0.1434  0.2849 -0.4061
 1391BOLB   C4B33372  20.265  23.446  10.736  0.1604 -0.2575  0.2154
 1391BOLB   NC233373  19.017  25.123   9.107  0.0056 -0.3492  0.0700
 1391BOLB   PO233374  19.129  25.236   9.443  0.2070  0.4846 -0.4391
 1391BOLB   GL333375  19.275  24.799   9.466 -0.3902  0.1253 -0.0176
 1391BOLB   GL433376  18.926  24.700   9.524  0.1596  0.0036 -0.3417
 1391BOLB   C1C33377  19.299  24.594   9.876  0.3308  0.2512  0.0610
 1391BOLB   C2C33378  19.336  24.201  10.016  0.1293  0.0917  0.0661
 1391BOLB   C3C33379  19.370  23.846  10.281 -0.1182  0.0599 -0.0891
 1391BOLB   C4C33380  19.693  23.570  10.344 -0.1515  0.0067 -0.1811
 1391BOLB   C1D33381  18.770  24.752   9.924 -0.1863 -0.1074  0.0867
 1391BOLB   C2D33382  18.649  24.463  10.287 -0.0959  0.1247 -0.0330
 1391BOLB   C3D33383  18.251  24.273  10.515 -0.0365 -0.1747 -0.0193
 1391BOLB   C4D33384  17.820  24.470  10.609 -0.2115 -0.1382  0.0244
 1392BOLB   NC133385  10.840  12.475  11.330  0.2133  0.1185 -0.0592
 1392BOLB   PO133386  10.432  12.672  10.963  0.1008  0.2361  0.2185
 1392BOLB   GL133387  10.464  12.554  10.550  0.1850 -0.4776 -0.0179
 1392BOLB   GL233388  10.746  12.732  10.561 -0.2748  0.3039  0.0294
 1392BOLB   C1A33389  10.444  12.443  10.119  0.0409 -0.1121 -0.1514
 1392BOLB   C2A33390  10.512  12.631   9.738  0.0395  0.1892 -0.0968
 1392BOLB   C3A33391  10.758  12.438   9.355  0.1643  0.0866  0.2218
 1392BOLB   C4A33392  10.804  12.371   8.900  0.2316 -0.3568  0.0527
 1392BOLB   C1B33393  10.904  12.491  10.254 -0.1126  0.0663  0.3207
 1392BOLB   C2B33394  10.834  12.227   9.925  0.0519  0.1198  0.2265
 1392BOLB   C3B33395  10.391  12.175   9.565 -0.0385  0.2129  0.2665
 1392BOLB   C4B33396  10.451  12.008   9.102 -0.0693 -0.2706  0.3467
 1392BOLB   NC233397   9.841  12.459   7.062 -0.0195  0.0893 -0.4352
 1392BOLB   PO233398   9.371  12.300   7.023  0.0640 -0.4194 -0.2068
 1392BOLB   GL333399   9.340  12.432   7.386 -0.4186  0.1936  0.1424
 1392BOLB   GL433400   9.520  12.760   7.419 -0.0377 -0.1170 -0.1891
 1392BOLB   C1C33401   9.446  12.462   7.860 -0.1961  0.3341  0.3518
 1392BOLB   C2C33402   9.803  12.318   8.111  0.1979  0.0808 -0.1640
 1392BOLB   C3C33403  10.149  12.282   8.420  0.0070 -0.1449  0.1720
 1392BOLB   C4C33404  10.564  12.113   8.636 -0.3808 -0.1382 -0.0582
 1392BOLB   C1D33405   9.803  12.814   7.870 -0.0249 -0.1465  0.1214
 1392BOLB   C2D33406   9.837  12.755   8.311  0.0408  0.1197 -0.0423
 1392BOLB   C3D33407   9.669  12.650   8.648 -0.1878 -0.2429  0.1314
 1392BOLB   C4D33408   9.317  12.732   8.832 -0.2522  0.0410 -0.0416
 1393BOLB   NC133409  14.704  14.161  10.210 -0.0363 -0.1596  0.1247
 1393BOLB   PO133410  15.077  14.023  10.106 -0.0676  0.1640 -0.2047
 1393BOLB   GL133411  15.000  14.219   9.760  0.2028  0.0840 -0.1245
 1393BOLB   GL233412  14.629  14.084   9.701 -0.0698 -0.0089  0.1899
 1393BOLB   C1A33413  14.976  14.228   9.316  0.3332  0.0138  0.1035
 1393BOLB   C2A33414  14.803  14.347   8.925 -0.0085  0.0008  0.1685
 1393BOLB   C3A33415  14.818  14.407   8.523 -0.3317  0.0271  0.0609
 1393BOLB   C4A33416  15.074  14.222   8.176 -0.2346 -0.0528  0.0493
 1393BOLB   C1B33417  14.829  13.745   9.397 -0.1977 -0.3456 -0.1921
 1393BOLB   C2B33418  14.968  13.847   8.926  0.0377 -0.1315 -0.1941
 1393BOLB   C3B33419  15.164  13.745   8.460 -0.0603  0.0830  0.1286
 1393BOLB   C4B33420  15.299  13.637   8.046 -0.2823 -0.1861  0.2482
 1393BOLB   NC233421  15.780  13.220   6.438 -0.1060  0.2044 -0.2231
 1393BOLB   PO233422  15.908  13.614   6.317  0.1446 -0.1512  0.0412
 1393BOLB   GL333423  15.803  13.745   6.767  0.0545 -0.1590  0.3509
 1393BOLB   GL433424  15.591  13.963   6.874  0.0322  0.0140 -0.0333
 1393BOLB   C1C33425  15.993  13.597   7.169  0.0641 -0.0968 -0.1412
 1393BOLB   C2C33426  16.144  13.732   7.577  0.4425 -0.0260  0.2160
 1393BOLB   C3C33427  15.817  14.002   7.574 -0.0065  0.1054 -0.2174
 1393BOLB   C4C33428  15.446  14.083   7.925  0.1763 -0.1190  0.0807
 1393BOLB   C1D33429  15.451  14.069   7.238 -0.1174 -0.2719 -0.0604
 1393BOLB   C2D33430  15.336  14.448   7.331  0.2210 -0.1917 -0.3758
 1393BOLB   C3D33431  15.174  14.869   7.064  0.1126 -0.0243  0.3020
 1393BOLB   C4D33432  15.215  15.275   6.811  0.1904 -0.0789 -0.2594
 1394BOLB   NC133433  16.171   8.422  13.747  0.1954 -0.3125  0.1299
 1394BOLB   PO133434  15.756   8.347  13.695 -0.1001  0.0847 -0.4008
 1394BOLB   GL133435  15.803   8.298  13.375 -0.0920 -0.2953 -0.0099
 1394BOLB   GL233436  15.799   8.484  13.059 -0.0069 -0.1155 -0.1609
 1394BOLB   C1A33437  16.122   8.085  13.235 -0.0288  0.1358  0.0204
 1394BOLB   C2A33438  16.432   7.936  12.910 -0.1176  0.4305 -0.1956
 1394BOLB   C3A33439  16.929   7.820  12.687 -0.0940  0.0491 -0.1235
 1394BOLB   C4A33440  16.962   7.359  12.629  0.0910  0.2599  0.3060
 1394BOLB   C1B33441  16.163   8.392  12.890 -0.3421 -0.1439  0.1245
 1394BOLB   C2B33442  16.532   8.302  12.551  0.0324  0.0942  0.0693
 1394BOLB   C3B33443  16.857   8.222  12.202 -0.3330  0.1150 -0.1296
 1394BOLB   C4B33444  17.070   7.895  12.009 -0.2770 -0.1135 -0.3136
 1394BOLB   NC233445  17.236   5.845  10.838 -0.0708 -0.2791 -0.3977
 1394BOLB   PO233446  17.467   5.402  10.946  0.0926  0.2784 -0.1597
 1394BOLB   GL333447  17.262   5.593  11.405 -0.1943  0.2248 -0.0777
 1394BOLB   GL433448  17.057   5.417  11.527  0.1690 -0.0871  0.0385
 1394BOLB   C1C33449  17.202   5.883  11.721 -0.2250  0.0266  0.0972
 1394BOLB   C2C33450  17.256   6.315  11.982  0.0689 -0.0559  0.2796
 1394BOLB   C3C33451  17.247   6.634  12.239 -0.0193  0.1158  0.3631
 1394BOLB   C4C33452  17.148   7.024  12.472  0.3417 -0.0454  0.1734
 1394BOLB   C1D33453  16.779   5.649  11.892  0.1707  0.0391  0.2529
 1394BOLB   C2D33454  16.554   5.904  12.222 -0.1940 -0.1859  0.2234
 1394BOLB   C3D33455  16.311   6.300  12.328 -0.2080 -0.2567  0.3454
 1394BOLB   C4D33456  16.040   6.482  12.470  0.1797  0.1786 -0.1107
 1395BOLB   NC133457  20.337  12.225  12.809 -0.1023  0.1311  0.0748
 1395BOLB   PO133458  20.438  12.526  12.477  0.1990 -0.3133 -0.1286
 1395BOLB   GL133459  20.611  12.274  12.122 -0.0286  0.6215 -0.3282
 1395BOLB   GL233460  20.446  12.042  12.224  0.0966 -0.2549 -0.0050
 1395BOLB   C1A33461  20.866  12.014  11.810  0.0374  0.2040 -0.1782
 1395BOLB   C2A33462  21.062  11.759  11.641  0.0237 -0.0857 -0.1452
 1395BOLB   C3A33463  21.399  11.443  11.374 -0.6135 -0.1140 -0.2755
 1395BOLB   C4A33464  21.721  11.097  11.528 -0.3026  0.3261  0.3106
 1395BOLB   C1B33465  20.377  11.899  11.808  0.2001  0.1876 -0.0061
 1395BOLB   C2B33466  20.528  11.699  11.470 -0.0207  0.0065  0.1778
 1395BOLB   C3B33467  20.817  11.778  11.170  0.0777  0.5121 -0.1936
 1395BOLB   C4B33468  20.923  12.151  11.294 -0.3427 -0.1038  0.1015
 1395BOLB   NC233469  22.337   9.461  10.309  0.1384  0.1257  0.1154
 1395BOLB   PO233470  22.696   9.691  10.147 -0.0111  0.0931 -0.2160
 1395BOLB   GL333471  22.516  10.036  10.405 -0.0010 -0.1642  0.2954
 1395BOLB   GL433472  22.254  10.109  10.192 -0.0439 -0.0307 -0.1153
 1395BOLB   C1C33473  22.324  10.372  10.671 -0.2536  0.1414 -0.2246
 1395BOLB   C2C33474  22.248  10.413  11.064 -0.1989  0.2067 -0.2578
 1395BOLB   C3C33475  21.983  10.383  11.387 -0.2012  0.1684  0.2778
 1395BOLB   C4C33476  21.805  10.614  11.506 -0.1691 -0.1275  0.3085
 1395BOLB   C1D33477  21.862  10.117  10.365 -0.0430 -0.0787 -0.1140
 1395BOLB   C2D33478  21.832  10.395  10.748 -0.2699 -0.0614  0.1220
 1395BOLB   C3D33479  21.628  10.718  11.023 -0.0777 -0.0652  0.1794
 1395BOLB   C4D33480  21.302  10.964  11.176  0.0730 -0.3506  0.3912
 1396BOLB   NC133481  11.878  15.675  10.059  0.0640  0.2571  0.2249
 1396BOLB   PO133482  11.421  15.599  10.223 -0.2584 -0.1125 -0.0944
 1396BOLB   GL133483  10.961  15.675   9.995 -0.3785 -0.0933 -0.1614
 1396BOLB   GL233484  10.991  15.358   9.751 -0.1554 -0.1022 -0.3392
 1396BOLB   C1A33485  10.535  15.692   9.824 -0.1216 -0.5016  0.1092
 1396BOLB   C2A33486  10.464  15.629   9.426  0.1676 -0.2254  0.2050
 1396BOLB   C3A33487  10.437  15.519   8.967 -0.2985 -0.2103 -0.1142
 1396BOLB   C4A33488  10.512  15.575   8.493 -0.0005 -0.0986  0.2819
 1396BOLB   C1B33489  10.891  15.343   9.365 -0.2151 -0.1222 -0.0963
 1396BOLB   C2B33490  10.921  15.348   8.870  0.0621 -0.1501 -0.0174
 1396BOLB   C3B33491  11.194  15.456   8.416 -0.4759 -0.2144 -0.0162
 1396BOLB   C4B33492  11.634  15.727   8.278 -0.3267  0.3185 -0.0575
 1396BOLB   NC233493   9.490  16.112   5.988 -0.0226 -0.0067  0.2140
 1396BOLB   PO233494   9.550  15.804   6.486  0.0678  0.0770 -0.1247
 1396BOLB   GL333495   9.911  15.776   6.770 -0.1512  0.3872 -0.2859
 1396BOLB   GL433496   9.829  15.592   7.114  0.0815 -0.0489 -0.0908
 1396BOLB   C1C33497  10.364  15.687   7.074  0.2489 -0.1818 -0.1012
 1396BOLB   C2C33498  10.610  15.454   7.433  0.1059 -0.2653 -0.0193
 1396BOLB   C3C33499  10.830  15.498   7.808 -0.1585  0.0045  0.0679
 1396BOLB   C4C33500  10.764  15.514   8.168 -0.0574 -0.1461 -0.0359
 1396BOLB   C1D33501   9.731  15.783   7.615  0.0088  0.1113  0.3658
 1396BOLB   C2D33502   9.818  15.988   7.957  0.1178  0.2314  0.3610
 1396BOLB   C3D33503   9.964  15.774   8.299 -0.0115 -0.0454  0.0450
 1396BOLB   C4D33504  10.003  15.418   8.488  0.2103  0.3277  0.3316
 1397BOLB   NC133505  13.038  18.570   9.955 -0.2030 -0.0527  0.1143
 1397BOLB   PO133506  13.385  18.835   9.738  0.0984  0.0779  0.2678
 1397BOLB   GL133507  13.059  19.083   9.610  0.2973 -0.0356  0.0424
 1397BOLB   GL233508  12.997  19.009   9.328 -0.2028 -0.1087 -0.1573
 1397BOLB   C1A33509  12.990  19.494   9.355 -0.0265 -0.1549 -0.0951
 1397BOLB   C2A33510  13.059  19.671   8.919  0.0061  0.2415  0.0361
 1397BOLB   C3A33511  13.076  19.444   8.532 -0.0046  0.0453  0.0994
 1397BOLB   C4A33512  13.322  19.297   8.108  0.4174 -0.4237 -0.1981
 1397BOLB   C1B33513  13.090  19.015   8.818  0.1448 -0.3475  0.1450
 1397BOLB   C2B33514  13.200  18.889   8.399 -0.1380 -0.4290 -0.2058
 1397BOLB   C3B33515  13.259  18.544   8.049  0.0305 -0.0632  0.3348
 1397BOLB   C4B33516  13.104  18.203   7.873 -0.0017  0.0199  0.3738
 1397BOLB   NC233517  14.001  18.857   5.890 -0.0149  0.3311  0.0442
 1397BOLB   PO233518  13.523  19.010   5.910  0.3180 -0.0049  0.0538
 1397BOLB   GL333519  13.532  18.883   6.319 -0.0912 -0.0175 -0.2408
 1397BOLB   GL433520  13.903  18.613   6.371 -0.2582 -0.0518 -0.0518
 1397BOLB   C1C33521  13.726  18.997   6.674  0.0510 -0.1700 -0.0432
 1397BOLB   C2C33522  13.956  18.932   7.048  0.0780  0.1325 -0.0517
 1397BOLB   C3C33523  13.851  19.065   7.526  0.0669  0.2191  0.2417
 1397BOLB   C4C33524  13.600  18.981   7.889  0.0445 -0.0338  0.1634
 1397BOLB   C1D33525  13.688  18.294   6.709 -0.1357 -0.1068 -0.0486
 1397BOLB   C2D33526  13.268  18.074   6.757 -0.3066 -0.0678  0.0495
 1397BOLB   C3D33527  12.909  17.752   7.000 -0.0071  0.0570 -0.0703
 1397BOLB   C4D33528  12.652  17.621   7.333  0.0124  0.0158  0.1303
 1398BOLB   NC133529  12.152  23.036  12.481 -0.0404  0.2021  0.0219
 1398BOLB   PO133530  12.448  23.416  12.582 -0.1435 -0.0916 -0.2596
 1398BOLB   GL133531  12.341  23.667  12.256  0.1487 -0.0345  0.0566
 1398BOLB   GL233532  12.062  23.829  12.166 -0.1432  0.3139 -0.2411
 1398BOLB   C1A33533  12.510  23.958  11.998  0.3408  0.1062  0.3693
 1398BOLB   C2A33534  12.542  24.199  11.614 -0.1008 -0.1428  0.1843
 1398BOLB   C3A33535  12.759  24.306  11.284  0.0080 -0.1391  0.3058
 1398BOLB   C4A33536  12.771  24.690  11.085  0.3489  0.0067 -0.1620
 1398BOLB   C1B33537  12.011  23.961  11.785  0.3320 -0.1221  0.0988
 1398BOLB   C2B33538  12.057  24.134  11.428  0.0804 -0.0953 -0.1150
 1398BOLB   C3B33539  11.955  24.086  10.984  0.1937  0.0123  0.0819
 1398BOLB   C4B33540  11.956  24.194  10.479  0.1128  0.3080 -0.0387
 1398BOLB   NC233541  12.556  25.329   8.452  0.2852 -0.2133 -0.0151
 1398BOLB   PO233542  12.353  25.774   8.681 -0.0893 -0.0771 -0.1908
 1398BOLB   GL333543  12.440  25.367   8.983  0.1312 -0.0589  0.2208
 1398BOLB   GL433544  12.819  25.286   9.007  0.4282 -0.0303  0.1870
 1398BOLB   C1C33545  12.360  25.304   9.469 -0.0863 -0.0448 -0.1046
 1398BOLB   C2C33546  12.316  25.089   9.893 -0.0438  0.0756  0.1122
 1398BOLB   C3C33547  12.352  24.978  10.355 -0.0061  0.0368 -0.2001
 1398BOLB   C4C33548  12.548  24.863  10.700  0.0843  0.0909 -0.0347
 1398BOLB   C1D33549  12.782  25.003   9.287 -0.3784 -0.0198  0.0149
 1398BOLB   C2D33550  12.614  24.827   9.665  0.1800  0.0022 -0.2183
 1398BOLB   C3D33551  12.574  24.634  10.057 -0.1480 -0.1426 -0.3979
 1398BOLB   C4D33552  12.323  24.337  10.041 -0.3579  0.0447  0.1172
 1399BOLB   NC133553  20.168  10.094  15.263 -0.0651 -0.0862  0.3720
 1399BOLB   PO133554  20.175   9.994  14.726 -0.2503 -0.1289 -0.1791
 1399BOLB   GL133555  20.354   9.694  14.333  0.3013 -0.0798 -0.0296
 1399BOLB   GL233556  20.208   9.397  14.181  0.4333 -0.0212  0.0354
 1399BOLB   C1A33557  20.700   9.536  14.133 -0.1177  0.5227  0.0504
 1399BOLB   C2A33558  20.960   9.251  13.915 -0.1431 -0.0100  0.2631
 1399BOLB   C3A33559  21.136   8.793  13.879 -0.0652 -0.0645 -0.0847
 1399BOLB   C4A33560  21.274   8.368  13.785 -0.0492 -0.1218 -0.1024
 1399BOLB   C1B33561  20.419   9.241  13.848  0.0604 -0.1204  0.0566
 1399BOLB   C2B33562  20.688   9.207  13.486 -0.0188  0.1238  0.1559
 1399BOLB   C3B33563  20.857   8.968  13.167  0.1621  0.1708  0.1308
 1399BOLB   C4B33564  20.978   8.656  12.825 -0.3190  0.0825 -0.0770
 1399BOLB   NC233565  21.325   5.736  13.994  0.0407 -0.3193 -0.1738
 1399BOLB   PO233566  21.354   6.082  13.738  0.1369  0.2585  0.0853
 1399BOLB   GL333567  21.053   6.343  13.608  0.1960  0.0407  0.2148
 1399BOLB   GL433568  20.936   6.311  13.903 -0.0943 -0.2917  0.0124
 1399BOLB   C1C33569  20.778   6.714  13.653 -0.2416  0.1718  0.0853
 1399BOLB   C2C33570  20.954   7.122  13.815 -0.2354 -0.5392 -0.3164
 1399BOLB   C3C33571  21.182   7.521  13.908  0.2312 -0.3558 -0.2451
 1399BOLB   C4C33572  21.138   8.031  14.013 -0.2261  0.0135  0.1940
 1399BOLB   C1D33573  21.032   6.646  14.128  0.0778 -0.1577  0.1515
 1399BOLB   C2D33574  21.268   6.964  14.350  0.1550 -0.0264 -0.0488
 1399BOLB   C3D33575  21.195   7.286  14.631  0.1736  0.0666 -0.0509
 1399BOLB   C4D33576  21.088   7.653  14.816 -0.1848  0.0997  0.0291
 1400BOLB   NC133577  13.523  16.432  10.059 -0.1043 -0.1415  0.1055
 1400BOLB   PO133578  13.059  16.261  10.073  0.2777  0.0900  0.0663
 1400BOLB   GL133579  13.190  16.078   9.670  0.0094 -0.1066  0.2192
 1400BOLB   GL233580  13.417  16.347   9.485 -0.1733  0.0263  0.5075
 1400BOLB   C1A33581  13.253  15.880   9.283  0.0030  0.3094  0.3765
 1400BOLB   C2A33582  13.127  15.630   8.871 -0.0840 -0.1134  0.0139
 1400BOLB   C3A33583  13.234  15.453   8.426  0.2424  0.0659  0.1030
 1400BOLB   C4A33584  13.124  15.405   7.949 -0.1547  0.2645  0.1017
 1400BOLB   C1B33585  13.249  16.600   9.267  0.2096 -0.2537 -0.2629
 1400BOLB   C2B33586  12.968  16.901   9.059 -0.2018  0.2592 -0.1227
 1400BOLB   C3B33587  12.988  16.646   8.600  0.0084 -0.1123  0.0809
 1400BOLB   C4B33588  13.210  16.423   8.349 -0.4365  0.2276 -0.0782
 1400BOLB   NC233589  12.140  15.815   6.085  0.3800 -0.1826  0.0707
 1400BOLB   PO233590  11.855  16.168   5.945 -0.2572 -0.0192 -0.0176
 1400BOLB   GL333591  11.862  16.190   6.406  0.0033 -0.2144 -0.0846
 1400BOLB   GL433592  11.595  16.189   6.495 -0.0750 -0.2807 -0.0316
 1400BOLB   C1C33593  12.257  16.158   6.597 -0.0723  0.0146 -0.1953
 1400BOLB   C2C33594  12.493  15.976   7.048 -0.1478 -0.2410  0.1338
 1400BOLB   C3C33595  12.695  15.548   7.205  0.0255  0.0040 -0.2115
 1400BOLB   C4C33596  12.952  15.371   7.529 -0.0737  0.0695 -0.0357
 1400BOLB   C1D33597  11.408  16.472   6.822 -0.1751 -0.1885 -0.2599
 1400BOLB   C2D33598  11.395  16.729   7.290 -0.1207  0.1849 -0.0049
 1400BOLB   C3D33599  11.543  16.560   7.670  0.0824  0.1704 -0.2319
 1400BOLB   C4D33600  11.407  16.548   8.171 -0.0319 -0.0645 -0.0539
 1401BOLB   NC133601  17.550  16.550  10.487  0.2658  0.0264  0.1120
 1401BOLB   PO133602  17.448  16.444  10.071  0.0877 -0.1067 -0.2372
 1401BOLB   GL133603  17.572  16.696   9.668 -0.1308  0.0092 -0.0354
 1401BOLB   GL233604  17.815  16.964   9.617 -0.0373 -0.1617  0.0234
 1401BOLB   C1A33605  17.588  16.542   9.219 -0.0891 -0.1138 -0.0459
 1401BOLB   C2A33606  17.772  16.590   8.736  0.0729  0.0284 -0.2948
 1401BOLB   C3A33607  17.916  16.849   8.441  0.1022  0.3029  0.0618
 1401BOLB   C4A33608  18.205  17.012   8.117 -0.1013  0.0296  0.1324
 1401BOLB   C1B33609  17.955  16.890   9.183  0.1949 -0.6982 -0.0295
 1401BOLB   C2B33610  18.111  17.162   8.887 -0.0650  0.3625  0.0977
 1401BOLB   C3B33611  18.028  17.569   8.690  0.1183  0.2497 -0.1463
 1401BOLB   C4B33612  17.952  17.692   8.245  0.2253 -0.0614 -0.1627
 1401BOLB   NC233613  18.628  16.812   5.312 -0.1983 -0.0226  0.0661
 1401BOLB   PO233614  18.347  16.755   5.766 -0.0836 -0.1083 -0.1534
 1401BOLB   GL333615  18.590  16.707   6.146  0.0053  0.1031  0.1897
 1401BOLB   GL433616  18.547  16.445   6.318  0.0650 -0.0283 -0.0873
 1401BOLB   C1C33617  18.304  16.934   6.520 -0.4793 -0.3606 -0.0181
 1401BOLB   C2C33618  18.204  17.299   6.929 -0.1876  0.0102  0.2320
 1401BOLB   C3C33619  18.402  17.415   7.292  0.1855  0.1605  0.0446
 1401BOLB   C4C33620  18.292  17.290   7.723  0.0070 -0.1145 -0.1778
 1401BOLB   C1D33621  18.596  16.176   6.694  0.2023  0.0204 -0.0878
 1401BOLB   C2D33622  18.541  16.260   7.213 -0.4830 -0.1681  0.1952
 1401BOLB   C3D33623  18.432  16.251   7.664  0.3774 -0.3277 -0.1617
 1401BOLB   C4D33624  18.109  16.477   7.988 -0.1687 -0.0521  0.0947
 1402BOLB   NC133625  20.739  11.668  14.588 -0.1939  0.1314  0.2771
 1402BOLB   PO133626  21.164  11.412  14.498 -0.0858  0.0296 -0.0078
 1402BOLB   GL133627  21.439  11.135  14.192 -0.2573 -0.2352  0.4120
 1402BOLB   GL233628  21.409  10.718  14.156  0.1997  0.0915 -0.2336
 1402BOLB   C1A33629  21.657  10.964  13.760 -0.1855  0.0236 -0.2019
 1402BOLB   C2A33630  21.409  10.622  13.540  0.0066  0.0439  0.2168
 1402BOLB   C3A33631  21.591  10.317  13.267  0.2716 -0.2179  0.2784
 1402BOLB   C4A33632  21.668  10.100  12.941 -0.1918  0.1818 -0.0818
 1402BOLB   C1B33633  21.674  10.438  13.970  0.0098  0.1173  0.1648
 1402BOLB   C2B33634  21.977  10.217  13.902  0.1439 -0.0196 -0.2721
 1402BOLB   C3B33635  22.404  10.280  13.728  0.1497  0.2117 -0.1147
 1402BOLB   C4B33636  22.650  10.594  13.702 -0.0718  0.1212 -0.1695
 1402BOLB   NC233637  23.818   9.651  11.497 -0.0933  0.1525 -0.2846
 1402BOLB   PO233638  23.741  10.033  11.666  0.1994  0.0728 -0.2318
 1402BOLB   GL333639  23.389  10.108  12.057 -0.0715  0.0324  0.0787
 1402BOLB   GL433640  23.326  10.366  11.955  0.1720  0.2152  0.2505
 1402BOLB   C1C33641  23.026   9.970  12.275  0.2224 -0.1347  0.0824
 1402BOLB   C2C33642  22.647   9.782  12.419 -0.1759  0.0260  0.1744
 1402BOLB   C3C33643  22.194   9.681  12.475 -0.0519  0.0373  0.2028
 1402BOLB   C4C33644  21.818   9.754  12.665 -0.0219 -0.0155 -0.0006
 1402BOLB   C1D33645  23.441  10.748  11.855 -0.3421 -0.0046 -0.1325
 1402BOLB   C2D33646  23.735  11.005  11.967 -0.1488 -0.2176  0.0035
 1402BOLB   C3D33647  23.798  11.313  12.342 -0.4032 -0.1081  0.2443
 1402BOLB   C4D33648  23.981  11.608  12.695  0.2180  0.0925  0.0169
 1403BOLB   NC133649  17.621  15.440  10.596  0.0358 -0.1739  0.0820
 1403BOLB   PO133650  17.650  15.049  10.417  0.0152 -0.1002  0.0011
 1403BOLB   GL133651  17.458  15.073   9.980 -0.1830  0.3785  0.0324
 1403BOLB   GL233652  17.707  14.798   9.786 -0.1953 -0.1179 -0.3019
 1403BOLB   C1A33653  17.506  15.231   9.605 -0.0412  0.0166 -0.1283
 1403BOLB   C2A33654  17.319  15.185   9.310  0.1861 -0.0803 -0.1860
 1403BOLB   C3A33655  17.421  15.209   8.919  0.0798 -0.0711  0.1946
 1403BOLB   C4A33656  17.531  15.333   8.501  0.0999  0.0063 -0.0148
 1403BOLB   C1B33657  17.747  14.824   9.356  0.3155 -0.0723 -0.0593
 1403BOLB   C2B33658  17.920  14.737   8.943 -0.1957  0.1014 -0.0593
 1403BOLB   C3B33659  18.145  14.691   8.584  0.0594  0.0991  0.1041
 1403BOLB   C4B33660  18.303  15.018   8.360 -0.0819  0.1899 -0.1298
 1403BOLB   NC233661  18.606  14.946   6.236  0.1202  0.0841  0.2609
 1403BOLB   PO233662  18.181  14.714   6.183  0.1738 -0.1337 -0.1902
 1403BOLB   GL333663  18.115  14.975   6.493 -0.0226  0.2285 -0.0536
 1403BOLB   GL433664  18.086  14.782   6.865 -0.1300 -0.0131  0.0600
 1403BOLB   C1C33665  18.069  15.316   6.840  0.0494  0.0469  0.1466
 1403BOLB   C2C33666  18.036  15.380   7.263  0.0185  0.0982  0.3940
 1403BOLB   C3C33667  17.772  15.393   7.621  0.2190  0.2884 -0.3908
 1403BOLB   C4C33668  17.478  15.322   7.970 -0.2803 -0.2884  0.1635
 1403BOLB   C1D33669  18.011  14.843   7.258 -0.3115  0.1245 -0.1715
 1403BOLB   C2D33670  18.313  15.066   7.574  0.0361  0.2194  0.0316
 1403BOLB   C3D33671  18.429  15.293   7.775 -0.0175 -0.0364 -0.2843
 1403BOLB   C4D33672  18.488  15.496   8.122  0.0607  0.3944  0.0997
 1404BOLB   NC133673   9.551  19.177  12.248  0.4012  0.0935 -0.2021
 1404BOLB   PO133674   9.729  19.349  11.915 -0.0134  0.1491 -0.4330
 1404BOLB   GL133675   9.457  19.292  11.598  0.2344 -0.2543 -0.0037
 1404BOLB   GL233676   9.551  19.411  11.358  0.1713  0.0078  0.0633
 1404BOLB   C1A33677   9.066  19.120  11.375 -0.0706 -0.3239  0.0674
 1404BOLB   C2A33678   8.860  19.109  10.882  0.1691 -0.0224 -0.0295
 1404BOLB   C3A33679   8.648  19.465  10.659  0.2511  0.1478 -0.0318
 1404BOLB   C4A33680   8.476  19.590  10.256 -0.1059  0.3206 -0.1339
 1404BOLB   C1B33681   9.376  19.601  11.070  0.2859 -0.0599  0.0354
 1404BOLB   C2B33682   9.083  19.798  10.762  0.0555  0.0665  0.1510
 1404BOLB   C3B33683   8.911  19.924  10.441 -0.1665 -0.2501  0.2521
 1404BOLB   C4B33684   8.635  20.059  10.235  0.0333 -0.0421  0.0048
 1404BOLB   NC233685   6.535  19.474   8.108  0.2223  0.2639  0.0194
 1404BOLB   PO233686   7.093  19.459   8.191  0.2319  0.1327  0.0881
 1404BOLB   GL333687   7.286  19.191   8.464 -0.1298 -0.2930  0.0997
 1404BOLB   GL433688   7.580  19.041   8.544  0.1064  0.1462 -0.1073
 1404BOLB   C1C33689   7.240  18.975   8.889  0.1304 -0.1518 -0.1225
 1404BOLB   C2C33690   7.558  19.106   9.283 -0.0543 -0.3245 -0.0144
 1404BOLB   C3C33691   7.879  19.319   9.589  0.1054  0.2724 -0.1623
 1404BOLB   C4C33692   8.248  19.379   9.839  0.0672  0.3164  0.1220
 1404BOLB   C1D33693   7.759  19.312   8.709  0.0336 -0.1496  0.1955
 1404BOLB   C2D33694   7.965  19.437   9.104 -0.0398  0.1012 -0.1093
 1404BOLB   C3D33695   8.341  19.523   9.377 -0.2763 -0.2192  0.1685
 1404BOLB   C4D33696   8.784  19.551   9.417 -0.0259  0.3123 -0.1539
 1405BOLB   NC133697  17.344   8.383  14.441 -0.1870  0.1676 -0.0138
 1405BOLB   PO133698  17.299   8.683  14.259  0.0447  0.0518  0.0507
 1405BOLB   GL133699  17.457   8.376  13.972 -0.1152  0.0743  0.1361
 1405BOLB   GL233700  17.481   8.405  13.692 -0.0999  0.2486  0.4017
 1405BOLB   C1A33701  17.732   7.979  13.948  0.0782 -0.0866 -0.2366
 1405BOLB   C2A33702  18.181   7.849  14.032  0.2579  0.4029  0.1404
 1405BOLB   C3A33703  18.539   7.537  13.966  0.0450 -0.0360 -0.2675
 1405BOLB   C4A33704  18.755   7.296  13.731 -0.1973  0.3032  0.0594
 1405BOLB   C1B33705  17.387   8.018  13.579  0.0763 -0.0396 -0.0517
 1405BOLB   C2B33706  17.553   7.671  13.421  0.3905  0.0670  0.2073
 1405BOLB   C3B33707  17.597   7.299  13.164  0.2174 -0.3410 -0.0448
 1405BOLB   C4B33708  17.894   6.895  13.002 -0.0370 -0.1427  0.0112
 1405BOLB   NC233709  19.135   5.062  13.560  0.0788  0.1503  0.3046
 1405BOLB   PO233710  19.007   5.220  13.216  0.0130 -0.1534  0.1311
 1405BOLB   GL333711  18.819   5.472  13.404  0.2146  0.0271 -0.1286
 1405BOLB   GL433712  18.960   5.510  13.708 -0.0080 -0.1024 -0.0852
 1405BOLB   C1C33713  18.526   5.803  13.317  0.2348  0.0083  0.0721
 1405BOLB   C2C33714  18.694   6.084  13.114 -0.0306 -0.0953 -0.1121
 1405BOLB   C3C33715  18.799   6.529  13.277 -0.0281 -0.2581  0.0343
 1405BOLB   C4C33716  18.765   6.990  13.341 -0.0075  0.5104 -0.0176
 1405BOLB   C1D33717  18.827   5.772  13.891 -0.1675 -0.0552  0.1501
 1405BOLB   C2D33718  18.698   6.032  14.173 -0.3165  0.1858  0.3320
 1405BOLB   C3D33719  18.671   6.411  14.117 -0.0998  0.0398 -0.1574
 1405BOLB   C4D33720  18.631   6.694  13.734 -0.1736 -0.1612 -0.1433
 1406BOLB   NC133721   9.646  19.757  11.719 -0.0865  0.0844  0.0506
 1406BOLB   PO133722   9.190  19.524  11.902 -0.0901 -0.1820  0.1800
 1406BOLB   GL133723   9.039  19.598  11.544  0.2663  0.0934  0.0331
 1406BOLB   GL233724   9.164  19.960  11.375 -0.0063  0.1412 -0.0051
 1406BOLB   C1A33725   8.833  19.604  11.166  0.1462  0.0512  0.1437
 1406BOLB   C2A33726   8.351  19.594  11.069  0.0000  0.0117  0.1632
 1406BOLB   C3A33727   8.115  19.556  10.731  0.0661  0.0929  0.0595
 1406BOLB   C4A33728   7.830  19.520  10.312  0.0045  0.0710  0.2046
 1406BOLB   C1B33729   8.920  20.157  11.006  0.2562 -0.1105  0.1057
 1406BOLB   C2B33730   8.756  20.315  10.721  0.2086 -0.0259 -0.0565
 1406BOLB   C3B33731   8.365  20.437  10.567  0.2024 -0.1231 -0.1275
 1406BOLB   C4B33732   8.279  20.758  10.146 -0.0205 -0.0199  0.0198
 1406BOLB   NC233733   6.196  18.498   8.342  0.0562  0.1063 -0.1142
 1406BOLB   PO233734   6.573  18.470   8.536 -0.2272  0.0838  0.1179
 1406BOLB   GL333735   6.864  18.564   8.805 -0.1150 -0.0135 -0.2202
 1406BOLB   GL433736   6.998  18.258   8.941 -0.3559 -0.2282 -0.0183
 1406BOLB   C1C33737   6.848  18.654   9.205 -0.1192 -0.0697  0.3261
 1406BOLB   C2C33738   7.180  18.801   9.493 -0.0510  0.2781  0.0157
 1406BOLB   C3C33739   7.406  19.044   9.778 -0.1154 -0.3314 -0.0623
 1406BOLB   C4C33740   7.491  19.277  10.097  0.3312 -0.2663  0.0509
 1406BOLB   C1D33741   6.919  18.052   9.248 -0.2828 -0.5168 -0.2342
 1406BOLB   C2D33742   6.919  17.884   9.692  0.0353  0.3909  0.1041
 1406BOLB   C3D33743   6.543  17.830   9.991 -0.1706  0.2163  0.0655
 1406BOLB   C4D33744   6.209  17.830   9.785 -0.0361 -0.0208  0.2894
 1407BOLB   NC133745  21.886  23.018  13.256 -0.0748  0.2597  0.1507
 1407BOLB   PO133746  22.067  23.315  13.470 -0.0777  0.0987 -0.0981
 1407BOLB   GL133747  22.094  23.573  13.110  0.1022  0.1666  0.0608
 1407BOLB   GL233748  22.261  23.945  13.172 -0.1263  0.1446  0.3470
 1407BOLB   C1A33749  21.883  23.791  12.738  0.0993  0.1657 -0.3144
 1407BOLB   C2A33750  21.996  23.787  12.382  0.0998 -0.0819  0.2956
 1407BOLB   C3A33751  22.174  24.205  12.356 -0.0481  0.0945  0.2431
 1407BOLB   C4A33752  22.216  24.592  12.201  0.0650  0.0132  0.2890
 1407BOLB   C1B33753  22.405  24.040  12.786  0.1942  0.2448 -0.2692
 1407BOLB   C2B33754  22.561  23.871  12.420 -0.3335 -0.0397 -0.0083
 1407BOLB   C3B33755  22.838  23.737  12.021  0.0197 -0.0319  0.1133
 1407BOLB   C4B33756  23.251  23.794  12.073  0.2309  0.0706 -0.2527
 1407BOLB   NC233757  23.002  25.987   9.975 -0.2292  0.2423  0.1484
 1407BOLB   PO233758  22.884  25.652  10.147  0.0307  0.0171 -0.0820
 1407BOLB   GL333759  22.654  25.503  10.392  0.0511  0.0081 -0.2973
 1407BOLB   GL433760  22.618  25.114  10.365 -0.3037 -0.1083 -0.2058
 1407BOLB   C1C33761  22.548  25.420  10.889 -0.0713  0.0828 -0.0340
 1407BOLB   C2C33762  22.299  25.479  11.234 -0.0940  0.0728  0.1303
 1407BOLB   C3C33763  22.113  25.192  11.512  0.1552 -0.1702  0.0696
 1407BOLB   C4C33764  22.128  24.896  11.894 -0.3481  0.0194 -0.0020
 1407BOLB   C1D33765  22.460  24.841  10.654  0.2589 -0.1564  0.2570
 1407BOLB   C2D33766  22.293  24.441  10.657 -0.1455  0.3036 -0.0118
 1407BOLB   C3D33767  21.836  24.380  10.705 -0.1756 -0.0283  0.1604
 1407BOLB   C4D33768  21.375  24.338  10.652  0.1136 -0.3180 -0.0293
 1408BOLB   NC133769  18.376  13.437  11.909  0.0545  0.0962 -0.0954
 1408BOLB   PO133770  18.686  13.557  11.458 -0.0410  0.3160  0.1757
 1408BOLB   GL133771  18.839  13.666  10.953  0.2032 -0.0571  0.1769
 1408BOLB   GL233772  18.597  13.712  10.676  0.0428  0.1085  0.0014
 1408BOLB   C1A33773  19.076  13.421  10.632 -0.0564  0.1037  0.0296
 1408BOLB   C2A33774  19.213  13.184  10.317 -0.0412 -0.0537  0.0246
 1408BOLB   C3A33775  19.073  12.897  10.097  0.1041  0.1911  0.0752
 1408BOLB   C4A33776  19.092  12.661   9.614  0.1168  0.1368 -0.1015
 1408BOLB   C1B33777  18.632  13.532  10.407  0.1367 -0.1689  0.3584
 1408BOLB   C2B33778  18.811  13.415  10.044  0.0548  0.0830  0.2126
 1408BOLB   C3B33779  19.157  13.426   9.878 -0.2051  0.0151  0.0472
 1408BOLB   C4B33780  19.386  13.173   9.787 -0.2749 -0.0489 -0.2083
 1408BOLB   NC233781  20.387  11.317   8.292  0.0313  0.0214  0.3512
 1408BOLB   PO233782  20.233  11.498   7.963  0.1339  0.0778 -0.0350
 1408BOLB   GL333783  19.839  11.725   7.956 -0.0959 -0.1906  0.1810
 1408BOLB   GL433784  19.907  11.977   7.783  0.5170  0.1650 -0.0634
 1408BOLB   C1C33785  19.629  11.973   8.195  0.1681 -0.3525 -0.2153
 1408BOLB   C2C33786  19.371  12.022   8.551  0.0514  0.0858  0.0330
 1408BOLB   C3C33787  19.408  12.207   8.971  0.2165  0.0207  0.0764
 1408BOLB   C4C33788  19.067  12.474   9.274 -0.1936  0.1945 -0.0160
 1408BOLB   C1D33789  20.207  12.159   8.145 -0.1480 -0.2031 -0.1475
 1408BOLB   C2D33790  20.189  12.539   8.437 -0.1458  0.3023  0.0751
 1408BOLB   C3D33791  20.481  12.749   8.714  0.1463 -0.1933 -0.2401
 1408BOLB   C4D33792  20.781  12.488   8.977 -0.0772  0.3045 -0.0612
 1409BOLB   NC133793  20.053  12.067  13.723 -0.0464 -0.0128  0.1428
 1409BOLB   PO133794  20.269  11.931  13.251 -0.0074  0.1429 -0.2782
 1409BOLB   GL133795  20.176  11.696  12.820 -0.0240  0.2619 -0.2005
 1409BOLB   GL233796  20.376  11.692  12.558 -0.1999 -0.1688  0.2356
 1409BOLB   C1A33797  20.205  11.228  12.555  0.1024  0.4110 -0.1916
 1409BOLB   C2A33798  20.321  10.970  12.237  0.0449 -0.5863  0.0332
 1409BOLB   C3A33799  20.465  10.771  11.890  0.1363 -0.2133 -0.2050
 1409BOLB   C4A33800  20.553  10.469  11.636  0.3076 -0.1005 -0.1455
 1409BOLB   C1B33801  20.616  11.535  12.176 -0.1179  0.2832 -0.0185
 1409BOLB   C2B33802  20.898  11.257  11.922 -0.4394  0.2579  0.0909
 1409BOLB   C3B33803  20.953  11.321  11.446 -0.0821 -0.3470  0.1785
 1409BOLB   C4B33804  21.007  11.370  11.034  0.1801  0.4322  0.0650
 1409BOLB   NC233805  22.188   8.807  10.891  0.0137  0.1573  0.0209
 1409BOLB   PO233806  22.142   9.060  10.573 -0.1019  0.0201 -0.1561
 1409BOLB   GL333807  21.914   9.301  10.931 -0.0818 -0.0449 -0.1510
 1409BOLB   GL433808  22.099   9.263  11.174 -0.0332 -0.4081 -0.2161
 1409BOLB   C1C33809  21.689   9.667  11.204 -0.1649 -0.2128 -0.0371
 1409BOLB   C2C33810  21.517   9.776  11.562 -0.0485  0.2979  0.0630
 1409BOLB   C3C33811  21.113   9.877  11.642 -0.0367  0.2417  0.1820
 1409BOLB   C4C33812  20.778  10.148  11.600  0.1439 -0.0509 -0.1568
 1409BOLB   C1D33813  21.844   9.305  11.555 -0.4165  0.0961  0.1034
 1409BOLB   C2D33814  21.491   9.263  11.767  0.2260 -0.0037  0.2846
 1409BOLB   C3D33815  21.309   9.611  12.068 -0.0408  0.3662 -0.0226
 1409BOLB   C4D33816  21.509   9.923  12.178 -0.0705  0.1137 -0.0387
 1410BOLB   NC133817  13.119  20.247  11.044  0.1936 -0.5047 -0.1042
 1410BOLB   PO133818  13.412  20.291  10.723 -0.0310 -0.2994 -0.0379
 1410BOLB   GL133819  13.296  20.412  10.352 -0.0891 -0.1282  0.2266
 1410BOLB   GL233820  13.545  20.419  10.180  0.0326 -0.1120  0.0982
 1410BOLB   C1A33821  13.050  20.774  10.154 -0.0668  0.0083 -0.5301
 1410BOLB   C2A33822  12.846  20.783   9.793 -0.0061 -0.3058  0.1587
 1410BOLB   C3A33823  12.806  20.803   9.368 -0.0064  0.0488 -0.2128
 1410BOLB   C4A33824  12.812  20.893   8.902 -0.0382 -0.0639 -0.2657
 1410BOLB   C1B33825  13.300  20.574   9.818 -0.1275 -0.0128  0.1259
 1410BOLB   C2B33826  13.335  20.914   9.492 -0.0086  0.2351 -0.0965
 1410BOLB   C3B33827  13.221  21.160   9.170 -0.1149  0.1258  0.0242
 1410BOLB   C4B33828  13.122  21.369   8.800  0.0162 -0.1118 -0.1102
 1410BOLB   NC233829  12.500  20.452   6.427  0.1452 -0.0990  0.2827
 1410BOLB   PO233830  12.412  20.927   6.568 -0.1160 -0.0479  0.4848
 1410BOLB   GL333831  12.392  20.857   6.968 -0.2323 -0.0517  0.0518
 1410BOLB   GL433832  12.307  20.521   6.909  0.0558 -0.3701  0.1216
 1410BOLB   C1C33833  12.616  20.625   7.277  0.1303 -0.0181  0.1153
 1410BOLB   C2C33834  12.729  20.765   7.635  0.2009 -0.3557  0.1404
 1410BOLB   C3C33835  12.804  20.842   8.024  0.3104  0.2271  0.0459
 1410BOLB   C4C33836  12.849  20.789   8.463  0.1537  0.0411 -0.2557
 1410BOLB   C1D33837  12.433  20.131   7.222  0.3283  0.0338  0.3794
 1410BOLB   C2D33838  12.183  19.791   7.287 -0.1362  0.1791 -0.1550
 1410BOLB   C3D33839  11.948  19.498   7.495  0.0212 -0.1287  0.2182
 1410BOLB   C4D33840  12.112  19.606   7.883  0.1931 -0.3539 -0.4808
 1411BOLB   NC133841  15.282  15.619  10.022 -0.0911 -0.1011 -0.2451
 1411BOLB   PO133842  15.668  15.748  10.144 -0.0251  0.0043 -0.0294
 1411BOLB   GL133843  15.865  15.704   9.787  0.2204  0.1324  0.0269
 1411BOLB   GL233844  16.254  15.791   9.738 -0.0824 -0.0309 -0.2301
 1411BOLB   C1A33845  15.894  15.748   9.278 -0.1980 -0.1165  0.1045
 1411BOLB   C2A33846  15.915  15.617   8.862  0.0428 -0.0993  0.1574
 1411BOLB   C3A33847  16.226  15.520   8.576 -0.0787 -0.2139  0.1576
 1411BOLB   C4A33848  16.498  15.742   8.271  0.0145 -0.0365  0.2293
 1411BOLB   C1B33849  16.390  15.688   9.393  0.4610 -0.0393 -0.0686
 1411BOLB   C2B33850  16.514  15.462   9.008  0.0181  0.0236  0.1996
 1411BOLB   C3B33851  16.741  15.394   8.554  0.0810  0.3412 -0.2926
 1411BOLB   C4B33852  17.033  15.494   8.376  0.1064 -0.0458 -0.0634
 1411BOLB   NC233853  16.437  15.662   6.171 -0.2923 -0.1251  0.1604
 1411BOLB   PO233854  16.880  15.785   6.191  0.0103 -0.4551 -0.1375
 1411BOLB   GL333855  17.040  15.824   6.608 -0.0310 -0.1133  0.1292
 1411BOLB   GL433856  16.848  16.084   6.787  0.2562 -0.1360  0.1158
 1411BOLB   C1C33857  17.335  16.046   6.834  0.3299 -0.3272 -0.3984
 1411BOLB   C2C33858  17.382  16.094   7.305  0.0508  0.0000 -0.0678
 1411BOLB   C3C33859  17.245  15.883   7.650 -0.0781 -0.0089 -0.0004
 1411BOLB   C4C33860  16.859  15.771   7.934 -0.2396  0.1333  0.3628
 1411BOLB   C1D33861  16.834  16.069   7.164  0.1192  0.2687 -0.4347
 1411BOLB   C2D33862  16.715  16.171   7.639  0.0158 -0.3148 -0.1944
 1411BOLB   C3D33863  16.613  16.218   8.045  0.2618 -0.1173  0.1834
 1411BOLB   C4D33864  16.506  16.352   8.472  0.1695 -0.1990 -0.1765
 1412BOLB   NC133865  20.221  21.482  12.304 -0.0773 -0.2247 -0.0589
 1412BOLB   PO133866  20.569  21.784  12.183 -0.3129  0.0801  0.0261
 1412BOLB   GL133867  20.460  22.045  11.797 -0.1947 -0.2766  0.5065
 1412BOLB   GL233868  20.578  22.382  11.759 -0.2987 -0.2253 -0.0756
 1412BOLB   C1A33869  20.265  22.171  11.396 -0.1439 -0.0368  0.2339
 1412BOLB   C2A33870  20.045  22.125  10.983  0.0845 -0.2866  0.2135
 1412BOLB   C3A33871  19.858  22.394  10.673  0.1468 -0.0087  0.3791
 1412BOLB   C4A33872  20.111  22.474  10.282 -0.1988 -0.2359  0.0804
 1412BOLB   C1B33873  20.750  22.518  11.397 -0.2634  0.1283  0.0950
 1412BOLB   C2B33874  21.065  22.726  11.277 -0.1221  0.0066 -0.1502
 1412BOLB   C3B33875  21.172  23.040  11.050  0.5546 -0.3163 -0.2493
 1412BOLB   C4B33876  21.304  23.281  10.697  0.0913 -0.0479  0.1801
 1412BOLB   NC233877  21.164  23.430   8.586  0.1259 -0.0877 -0.1445
 1412BOLB   PO233878  21.364  23.037   8.472 -0.1338  0.0653 -0.0454
 1412BOLB   GL333879  21.395  22.712   8.793 -0.3545 -0.1169 -0.1092
 1412BOLB   GL433880  21.523  22.737   9.207  0.5251 -0.0320  0.1954
 1412BOLB   C1C33881  20.960  22.533   9.017 -0.2119 -0.1481  0.0405
 1412BOLB   C2C33882  20.779  22.284   9.305  0.1131 -0.2176 -0.1665
 1412BOLB   C3C33883  20.509  22.241   9.500  0.0765 -0.2869 -0.0561
 1412BOLB   C4C33884  20.233  22.343   9.894  0.0998 -0.1137 -0.3108
 1412BOLB   C1D33885  21.633  22.588   9.641 -0.4140  0.0932 -0.0426
 1412BOLB   C2D33886  21.584  22.516  10.061  0.3446 -0.2158  0.3919
 1412BOLB   C3D33887  21.778  22.339  10.490 -0.1626 -0.1266 -0.2553
 1412BOLB   C4D33888  21.850  22.212  10.931 -0.2160  0.0412 -0.0508
 1413BOLB   NC133889  13.755  19.507  10.399  0.4568  0.1818 -0.0978
 1413BOLB   PO133890  13.679  19.882  10.686 -0.2571 -0.2346 -0.0097
 1413BOLB   GL133891  13.345  19.871  10.391 -0.3167  0.0229 -0.0077
 1413BOLB   GL233892  13.571  19.902  10.065 -0.1266 -0.0833 -0.1681
 1413BOLB   C1A33893  13.108  20.067  10.041 -0.0314  0.0571 -0.1050
 1413BOLB   C2A33894  12.968  20.286   9.643  0.2658  0.1865  0.1251
 1413BOLB   C3A33895  12.953  20.372   9.227  0.0563  0.0378  0.3177
 1413BOLB   C4A33896  12.824  20.405   8.802  0.2845  0.0589 -0.0503
 1413BOLB   C1B33897  13.559  20.175   9.738 -0.1934  0.1907 -0.3905
 1413BOLB   C2B33898  13.452  20.399   9.348  0.2483  0.2647  0.1616
 1413BOLB   C3B33899  13.293  20.658   8.970  0.0084  0.2304  0.3413
 1413BOLB   C4B33900  13.257  20.549   8.569  0.4242  0.2241 -0.1099
 1413BOLB   NC233901  11.551  20.310   6.578 -0.1977 -0.3488  0.2511
 1413BOLB   PO233902  11.452  20.518   6.896 -0.2907  0.3516 -0.1648
 1413BOLB   GL333903  11.733  20.455   7.082  0.0813 -0.0770  0.0747
 1413BOLB   GL433904  11.946  20.192   6.971 -0.0098  0.0347 -0.1393
 1413BOLB   C1C33905  12.081  20.488   7.408 -0.0023  0.2480 -0.2021
 1413BOLB   C2C33906  12.212  20.171   7.744  0.2414  0.0338  0.0123
 1413BOLB   C3C33907  12.386  20.095   8.052 -0.3008 -0.2832 -0.1758
 1413BOLB   C4C33908  12.661  20.340   8.398  0.1087 -0.1912  0.2560
 1413BOLB   C1D33909  11.732  20.166   7.446 -0.3192 -0.1652  0.0261
 1413BOLB   C2D33910  11.651  19.755   7.747  0.0695 -0.2839  0.2184
 1413BOLB   C3D33911  11.285  19.547   7.824 -0.1335 -0.0050  0.0641
 1413BOLB   C4D33912  10.915  19.428   7.611  0.0893 -0.1872 -0.1005
 1414BOLB   NC133913  13.311  21.308  11.047  0.1710 -0.1219 -0.1888
 1414BOLB   PO133914  12.908  21.195  10.863  0.0185  0.2086 -0.0213
 1414BOLB   GL133915  12.581  21.392  10.626  0.1795  0.0415  0.0468
 1414BOLB   GL233916  12.265  21.281  10.488 -0.0097 -0.2297 -0.0437
 1414BOLB   C1A33917  12.565  21.712  10.392 -0.1229  0.1272 -0.1576
 1414BOLB   C2A33918  12.377  21.882  10.030 -0.2605 -0.1165  0.0693
 1414BOLB   C3A33919  12.316  22.072   9.635 -0.2569  0.0268  0.2134
 1414BOLB   C4A33920  12.408  22.497   9.506  0.1774  0.2896  0.2038
 1414BOLB   C1B33921  12.301  21.364  10.068 -0.3634  0.0137 -0.1179
 1414BOLB   C2B33922  12.259  21.581   9.660  0.0995  0.3250  0.0599
 1414BOLB   C3B33923  12.424  21.737   9.296 -0.0272 -0.1495  0.0192
 1414BOLB   C4B33924  12.250  21.712   8.913  0.0283  0.1215 -0.2780
 1414BOLB   NC233925  12.519  23.928   7.508 -0.1466 -0.0126  0.1430
 1414BOLB   PO233926  12.909  23.918   7.697  0.1730 -0.2125  0.0346
 1414BOLB   GL333927  13.017  23.721   8.054 -0.0071 -0.3192  0.0876
 1414BOLB   GL433928  13.240  23.832   8.241  0.1003  0.3312  0.3003
 1414BOLB   C1C33929  12.767  23.372   8.270  0.1208  0.1243  0.0299
 1414BOLB   C2C33930  12.414  23.072   8.348 -0.0098  0.0463  0.1662
 1414BOLB   C3C33931  12.391  22.689   8.610  0.0112  0.2802 -0.3425
 1414BOLB   C4C33932  12.444  22.719   9.068 -0.1359  0.1144  0.0807
 1414BOLB   C1D33933  13.011  23.677   8.597 -0.2114 -0.0037 -0.0536
 1414BOLB   C2D33934  12.994  23.461   9.089  0.2020  0.3018 -0.2486
 1414BOLB   C3D33935  12.920  23.459   9.549  0.1872 -0.1378  0.2592
 1414BOLB   C4D33936  12.660  23.382   9.946 -0.1381 -0.3137 -0.0261
 1415BOLB   NC133937   9.583  15.267  11.106 -0.0401  0.1754 -0.0216
 1415BOLB   PO133938   9.892  15.311  10.803  0.3265  0.1248 -0.0166
 1415BOLB   GL133939   9.869  15.466  10.438  0.2075  0.0370  0.0117
 1415BOLB   GL233940   9.883  15.265  10.305 -0.1887 -0.0979  0.0416
 1415BOLB   C1A33941   9.669  15.798  10.206 -0.2431 -0.0108  0.0462
 1415BOLB   C2A33942   9.714  15.896   9.739 -0.0441  0.1342 -0.0230
 1415BOLB   C3A33943   9.966  15.674   9.429 -0.2143 -0.0291  0.2181
 1415BOLB   C4A33944   9.958  15.416   9.035  0.0045  0.2466  0.0734
 1415BOLB   C1B33945   9.487  15.381  10.143  0.1102  0.1567  0.0711
 1415BOLB   C2B33946   9.134  15.570   9.858  0.0431 -0.1640  0.3048
 1415BOLB   C3B33947   9.170  15.903   9.481  0.2392 -0.0296 -0.0738
 1415BOLB   C4B33948   8.959  16.145   9.076 -0.2882  0.3575  0.0775
 1415BOLB   NC233949   8.478  15.109   7.281 -0.2826  0.1681 -0.1829
 1415BOLB   PO233950   8.651  14.782   7.162  0.2377  0.2414 -0.2328
 1415BOLB   GL333951   9.010  14.951   7.313 -0.0556  0.0356  0.2297
 1415BOLB   GL433952   9.348  15.147   7.250 -0.0772  0.1556  0.0380
 1415BOLB   C1C33953   9.314  14.970   7.759  0.2695 -0.1641  0.0723
 1415BOLB   C2C33954   9.619  14.772   8.053  0.0857 -0.2928  0.2132
 1415BOLB   C3C33955   9.995  14.919   8.298 -0.1740  0.1664  0.2221
 1415BOLB   C4C33956   9.969  14.971   8.758 -0.1759 -0.3974 -0.2732
 1415BOLB   C1D33957   9.748  15.080   7.552  0.0248 -0.1581 -0.0028
 1415BOLB   C2D33958  10.021  14.798   7.789  0.1897  0.3754 -0.1161
 1415BOLB   C3D33959   9.894  14.392   7.898 -0.2225 -0.0092  0.2388
 1415BOLB   C4D33960   9.832  14.034   8.188 -0.0645 -0.2691 -0.0442
 1416BOLB   NC133961  15.409  12.767  11.059  0.2508 -0.1016  0.0894
 1416BOLB   PO133962  15.036  12.609  10.794 -0.2394 -0.0877 -0.0156
 1416BOLB   GL133963  15.098  12.539  10.482  0.0913  0.1999 -0.1725
 1416BOLB   GL233964  15.379  12.483  10.392  0.1093  0.3042 -0.2195
 1416BOLB   C1A33965  15.112  12.597  10.011  0.0091  0.2001  0.2187
 1416BOLB   C2A33966  15.198  12.461   9.650  0.0810 -0.1410  0.0027
 1416BOLB   C3A33967  15.264  12.291   9.289 -0.1777 -0.3701  0.0859
 1416BOLB   C4A33968  15.303  12.469   8.896  0.6444 -0.2896 -0.2385
 1416BOLB   C1B33969  15.445  12.214  10.025  0.1618 -0.0465  0.3652
 1416BOLB   C2B33970  15.654  12.025   9.764 -0.1543 -0.3112  0.0857
 1416BOLB   C3B33971  15.653  12.021   9.314  0.1151  0.1249 -0.0317
 1416BOLB   C4B33972  15.468  11.966   8.963 -0.1602  0.2341  0.1292
 1416BOLB   NC233973  15.969  12.334   6.796  0.3527  0.2855  0.2176
 1416BOLB   PO233974  15.759  11.936   6.686 -0.0673 -0.0082 -0.2202
 1416BOLB   GL333975  15.522  12.164   6.989  0.0399  0.1115  0.1744
 1416BOLB   GL433976  15.416  12.016   7.280  0.0664  0.0888  0.0129
 1416BOLB   C1C33977  15.654  12.439   7.410  0.1777 -0.2125 -0.2705
 1416BOLB   C2C33978  15.543  12.570   7.790  0.0753 -0.0407 -0.0113
 1416BOLB   C3C33979  15.596  12.685   8.203 -0.0975 -0.3055 -0.2506
 1416BOLB   C4C33980  15.285  12.672   8.479 -0.0730 -0.1658 -0.2007
 1416BOLB   C1D33981  15.135  12.250   7.560  0.3149 -0.2037  0.0481
 1416BOLB   C2D33982  14.822  12.178   7.855 -0.0253 -0.3506 -0.1265
 1416BOLB   C3D33983  14.492  12.409   8.135  0.2332 -0.1976  0.0142
 1416BOLB   C4D33984  14.231  12.528   8.411  0.1098 -0.0090 -0.3411
 1417BOLB   NC133985  16.991   9.705  13.597  0.1187  0.2561  0.2320
 1417BOLB   PO133986  16.909   9.433  13.223  0.1828 -0.3129 -0.2035
 1417BOLB   GL133987  17.189   9.255  12.936 -0.4424  0.6630 -0.0437
 1417BOLB   GL233988  17.575   9.263  13.076  0.2033 -0.0805 -0.0508
 1417BOLB   C1A33989  17.314   8.998  12.564  0.1879 -0.0785  0.0116
 1417BOLB   C2A33990  17.702   8.797  12.319  0.2640 -0.0146 -0.0935
 1417BOLB   C3A33991  17.811   8.578  11.894 -0.1501 -0.3188 -0.0229
 1417BOLB   C4A33992  17.866   8.484  11.479  0.0802 -0.3786 -0.1030
 1417BOLB   C1B33993  17.854   9.165  12.710 -0.1102 -0.2819 -0.0392
 1417BOLB   C2B33994  18.021   9.129  12.278 -0.1547 -0.4208  0.2081
 1417BOLB   C3B33995  18.190   9.041  11.916  0.0894 -0.2159 -0.1660
 1417BOLB   C4B33996  18.521   9.168  11.735 -0.1556 -0.0989  0.0313
 1417BOLB   NC233997  19.170   8.407   9.428 -0.5084 -0.0932 -0.2362
 1417BOLB   PO233998  19.161   7.948   9.687  0.1536  0.1582  0.2666
 1417BOLB   GL333999  18.818   8.203   9.983  0.1274 -0.1978 -0.0153
 1417BOLB   GL434000  18.768   8.500   9.839 -0.0331 -0.1803 -0.2794
 1417BOLB   C1C34001  18.357   8.330  10.088 -0.0166 -0.2302  0.0246
 1417BOLB   C2C34002  17.934   8.426  10.342  0.0534  0.1037  0.1308
 1417BOLB   C3C34003  17.829   8.433  10.767 -0.0202 -0.5326  0.1283
 1417BOLB   C4C34004  17.744   8.467  11.040 -0.5124  0.0864  0.1068
 1417BOLB   C1D34005  18.903   8.606  10.248 -0.0069  0.1007  0.0975
 1417BOLB   C2D34006  18.850   8.689  10.680 -0.0751  0.1121  0.0191
 1417BOLB   C3D34007  18.498   8.978  10.746  0.1591  0.1222 -0.0381
 1417BOLB   C4D34008  18.321   9.382  10.830  0.0492 -0.2339 -0.0712
 1418BOLB   NC134009  13.891   8.567  13.586 -0.2029  0.4118 -0.0523
 1418BOLB   PO134010  13.868   8.510  13.120  0.2589  0.0855  0.1128
 1418BOLB   GL134011  14.137   8.388  12.819 -0.0814  0.0205  0.0980
 1418BOLB   GL234012  14.394   8.547  12.659  0.0707  0.0678  0.0019
 1418BOLB   C1A34013  14.116   8.347  12.324 -0.1426 -0.2403 -0.0267
 1418BOLB   C2A34014  14.391   8.122  12.134 -0.2518 -0.1974  0.3437
 1418BOLB   C3A34015  14.498   7.844  11.762  0.1623 -0.0075  0.1013
 1418BOLB   C4A34016  14.619   7.966  11.424 -0.1346 -0.2407 -0.1385
 1418BOLB   C1B34017  14.579   8.204  12.551  0.4399  0.1084 -0.0125
 1418BOLB   C2B34018  14.655   7.820  12.470 -0.2591  0.3733  0.3420
 1418BOLB   C3B34019  14.739   7.631  12.091 -0.1945 -0.1257 -0.0384
 1418BOLB   C4B34020  14.947   7.511  11.724 -0.3056  0.0019 -0.1731
 1418BOLB   NC234021  16.251   7.201   9.561 -0.1095 -0.1004  0.0668
 1418BOLB   PO234022  15.930   7.158   9.254  0.0203  0.2932  0.1704
 1418BOLB   GL334023  15.793   7.489   9.628 -0.4066  0.0187  0.0575
 1418BOLB   GL434024  15.850   7.331   9.932  0.1549 -0.0465 -0.1112
 1418BOLB   C1C34025  15.338   7.559   9.828 -0.0906  0.0267 -0.2214
 1418BOLB   C2C34026  15.211   7.814  10.271  0.1876  0.1454  0.1811
 1418BOLB   C3C34027  14.855   7.897  10.544 -0.0048 -0.1586 -0.0525
 1418BOLB   C4C34028  14.679   7.946  10.960  0.3107 -0.3554 -0.1428
 1418BOLB   C1D34029  15.671   7.588  10.278 -0.1243 -0.0771 -0.1747
 1418BOLB   C2D34030  15.587   7.988  10.524  0.2100 -0.1416  0.0527
 1418BOLB   C3D34031  15.731   8.287  10.811 -0.0651  0.0214 -0.1369
 1418BOLB   C4D34032  16.092   8.271  11.012  0.0714 -0.0605  0.1245
 1419BOLB   NC134033  20.364  15.214  11.887 -0.0898  0.3116 -0.0295
 1419BOLB   PO134034  20.808  14.911  11.830  0.1155 -0.1016  0.1187
 1419BOLB   GL134035  20.869  14.617  11.356 -0.0610 -0.0880  0.0154
 1419BOLB   GL234036  20.816  14.774  11.095  0.0695 -0.1913  0.5276
 1419BOLB   C1A34037  21.032  14.277  11.215  0.1505 -0.1214  0.0301
 1419BOLB   C2A34038  21.170  14.184  10.914  0.1093  0.1830 -0.2618
 1419BOLB   C3A34039  21.196  14.194  10.448 -0.2922  0.1393  0.2643
 1419BOLB   C4A34040  21.483  14.108  10.169  0.0553 -0.2952  0.1226
 1419BOLB   C1B34041  21.051  14.675  10.703 -0.0397  0.3163 -0.0861
 1419BOLB   C2B34042  21.116  14.759  10.306  0.1393  0.1849  0.0012
 1419BOLB   C3B34043  21.055  14.600   9.949 -0.0758  0.2119  0.1497
 1419BOLB   C4B34044  20.896  14.343   9.683  0.4020  0.1733 -0.2593
 1419BOLB   NC234045  23.569  14.093   8.455  0.0398  0.2200  0.0314
 1419BOLB   PO234046  23.454  13.942   8.873  0.0013 -0.4142 -0.1955
 1419BOLB   GL334047  23.029  13.930   9.047 -0.1994 -0.0344  0.3335
 1419BOLB   GL434048  23.103  14.331   9.027  0.1572  0.0357 -0.2475
 1419BOLB   C1C34049  22.861  13.993   9.412  0.0057 -0.0436 -0.0125
 1419BOLB   C2C34050  22.510  13.768   9.488 -0.0166  0.0105  0.0045
 1419BOLB   C3C34051  22.250  13.809   9.851 -0.1358 -0.0065  0.1057
 1419BOLB   C4C34052  21.818  13.867  10.042 -0.0546  0.0793 -0.2002
 1419BOLB   C1D34053  23.284  14.619   9.363  0.2582 -0.3165 -0.2928
 1419BOLB   C2D34054  23.232  14.800   9.783 -0.1255 -0.0170 -0.0305
 1419BOLB   C3D34055  23.081  15.188  10.057  0.4107 -0.2010  0.0683
 1419BOLB   C4D34056  23.279  15.314  10.550 -0.1671 -0.0767 -0.4847
 1420BOLB   NC134057  10.515  16.675  10.777 -0.0407 -0.1653 -0.2747
 1420BOLB   PO134058  10.877  16.716  10.712  0.0668  0.2704  0.0302
 1420BOLB   GL134059  10.602  16.791  10.303  0.1910  0.4963  0.1009
 1420BOLB   GL234060  10.717  16.748   9.939 -0.0577 -0.0892 -0.0762
 1420BOLB   C1A34061  10.364  17.012  10.053  0.2891 -0.0406 -0.0866
 1420BOLB   C2A34062  10.128  17.410   9.850  0.2627 -0.2214  0.0758
 1420BOLB   C3A34063   9.700  17.579   9.828 -0.2036 -0.0237  0.0217
 1420BOLB   C4A34064   9.602  17.935   9.546  0.2868  0.2412 -0.2699
 1420BOLB   C1B34065  10.533  16.538   9.681 -0.1079 -0.0509 -0.0090
 1420BOLB   C2B34066  10.237  16.587   9.276 -0.3907 -0.0196  0.2673
 1420BOLB   C3B34067   9.940  16.460   8.947 -0.0169 -0.0963  0.3905
 1420BOLB   C4B34068  10.043  16.689   8.560  0.1849  0.3960  0.1525
 1420BOLB   NC234069   8.202  17.861   7.539  0.1726 -0.0521  0.1934
 1420BOLB   PO234070   8.363  18.204   7.423 -0.1091  0.2628  0.1300
 1420BOLB   GL334071   8.564  18.207   7.839  0.1460 -0.1412  0.1199
 1420BOLB   GL434072   8.406  17.899   8.019  0.2077 -0.0484  0.1057
 1420BOLB   C1C34073   8.888  18.017   8.086  0.0509 -0.0800  0.0738
 1420BOLB   C2C34074   9.073  17.874   8.477 -0.2864 -0.1084  0.1249
 1420BOLB   C3C34075   9.334  17.749   8.807  0.2362 -0.0050  0.4637
 1420BOLB   C4C34076   9.488  18.073   9.169  0.2178 -0.1520 -0.2271
 1420BOLB   C1D34077   8.612  17.599   8.305  0.0499 -0.0777 -0.0274
 1420BOLB   C2D34078   8.841  17.428   8.597  0.3546  0.0559 -0.0291
 1420BOLB   C3D34079   8.972  17.515   9.080 -0.1421 -0.1542 -0.2617
 1420BOLB   C4D34080   9.219  17.545   9.426 -0.2605  0.0415  0.3142
 1421BOLB   NC134081  22.149  13.213  13.389 -0.1691 -0.1714  0.0932
 1421BOLB   PO134082  22.018  13.270  13.825  0.0858  0.3066 -0.2184
 1421BOLB   GL134083  22.438  12.928  13.683 -0.4336 -0.1338 -0.1279
 1421BOLB   GL234084  22.377  12.718  13.360 -0.1961 -0.2314  0.1913
 1421BOLB   C1A34085  22.752  12.545  13.548 -0.1669 -0.2591 -0.3658
 1421BOLB   C2A34086  23.106  12.328  13.302  0.0057 -0.0891 -0.2061
 1421BOLB   C3A34087  23.353  12.097  12.965  0.1426  0.1072  0.3244
 1421BOLB   C4A34088  23.755  11.899  13.085  0.1723 -0.0289  0.0466
 1421BOLB   C1B34089  22.631  12.399  13.097  0.3153  0.2414 -0.1153
 1421BOLB   C2B34090  22.819  11.983  12.964 -0.2594  0.1530 -0.0918
 1421BOLB   C3B34091  22.996  11.647  12.835  0.0639 -0.0568  0.4966
 1421BOLB   C4B34092  23.420  11.508  12.588  0.1209  0.2327 -0.1085
 1421BOLB   NC234093  24.684  10.530  11.756 -0.0821 -0.0070  0.1398
 1421BOLB   PO234094  24.844  10.228  12.090  0.0705  0.0538  0.0188
 1421BOLB   GL334095  24.687  10.584  12.364 -0.2529 -0.1571  0.2414
 1421BOLB   GL434096  24.919  10.776  12.411 -0.1553 -0.1298 -0.1099
 1421BOLB   C1C34097  24.359  10.610  12.668  0.0860 -0.0621  0.0259
 1421BOLB   C2C34098  24.278  10.870  12.914 -0.0810  0.0856  0.1002
 1421BOLB   C3C34099  24.189  11.268  13.051 -0.0013 -0.3105  0.1218
 1421BOLB   C4C34100  24.113  11.674  13.205 -0.1293 -0.1192  0.1906
 1421BOLB   C1D34101  24.733  10.883  12.797 -0.0503 -0.2266  0.0938
 1421BOLB   C2D34102  24.724  11.151  13.152  0.1268 -0.0284 -0.1012
 1421BOLB   C3D34103  24.835  11.397  13.446 -0.2382 -0.3815 -0.0153
 1421BOLB   C4D34104  24.760  11.585  13.776  0.1442  0.4323 -0.0489
 1422BOLB   NC134105  19.749  20.174  11.055 -0.0583  0.2433 -0.1073
 1422BOLB   PO134106  19.730  19.812  10.867  0.2376 -0.1484 -0.4628
 1422BOLB   GL134107  19.677  20.091  10.481  0.1686 -0.3125  0.1371
 1422BOLB   GL234108  19.649  19.978  10.157 -0.1916 -0.0373  0.2555
 1422BOLB   C1A34109  19.738  20.496  10.371  0.3267 -0.1996 -0.0527
 1422BOLB   C2A34110  19.585  20.828  10.079 -0.2002  0.0488  0.1352
 1422BOLB   C3A34111  19.696  21.105   9.884 -0.2037  0.1837  0.2672
 1422BOLB   C4A34112  19.768  21.473   9.907 -0.1733 -0.1960  0.1525
 1422BOLB   C1B34113  19.777  20.297   9.907 -0.1899 -0.1195 -0.0624
 1422BOLB   C2B34114  19.538  20.640   9.607  0.2235 -0.1744  0.0679
 1422BOLB   C3B34115  19.501  20.915   9.492 -0.1579 -0.1257  0.1556
 1422BOLB   C4B34116  19.767  21.225   9.361  0.1473  0.0508 -0.2343
 1422BOLB   NC234117  19.692  22.246   7.916 -0.1556  0.1633  0.1124
 1422BOLB   PO234118  19.557  22.596   8.095 -0.0371 -0.0563 -0.0689
 1422BOLB   GL334119  19.439  22.467   8.444  0.0877  0.2930 -0.0064
 1422BOLB   GL434120  19.168  22.189   8.500  0.3953 -0.1249 -0.0537
 1422BOLB   C1C34121  19.749  22.078   8.556 -0.2912 -0.0135  0.2762
 1422BOLB   C2C34122  20.078  22.081   8.888  0.2052 -0.1333  0.5118
 1422BOLB   C3C34123  20.048  22.145   9.287  0.1252  0.0428 -0.0392
 1422BOLB   C4C34124  19.886  21.799   9.606  0.0797 -0.0664  0.2252
 1422BOLB   C1D34125  19.046  22.448   8.830  0.1195  0.0870 -0.2905
 1422BOLB   C2D34126  19.191  22.484   9.239  0.3062  0.2877 -0.3792
 1422BOLB   C3D34127  19.209  22.447   9.684 -0.0443  0.0748 -0.1233
 1422BOLB   C4D34128  19.088  22.634  10.033  0.0615  0.2233 -0.3060
 1423BOLB   NC134129  20.926  12.884  13.785  0.0648 -0.1383 -0.1613
 1423BOLB   PO134130  21.017  12.405  13.677 -0.1567 -0.1620 -0.1389
 1423BOLB   GL134131  21.175  12.168  13.362  0.1224 -0.3654 -0.1587
 1423BOLB   GL234132  21.181  12.268  13.127  0.1758  0.2603  0.0524
 1423BOLB   C1A34133  21.541  11.987  13.147  0.0938  0.0315  0.0471
 1423BOLB   C2A34134  21.868  11.700  12.959  0.3290 -0.2061 -0.1661
 1423BOLB   C3A34135  22.061  11.473  12.622  0.1163  0.0380 -0.2824
 1423BOLB   C4A34136  22.325  11.121  12.394 -0.0793 -0.0871 -0.1568
 1423BOLB   C1B34137  21.420  12.208  12.735 -0.1358  0.0639  0.2358
 1423BOLB   C2B34138  21.453  12.056  12.455 -0.1277 -0.0679 -0.2465
 1423BOLB   C3B34139  21.602  11.919  12.079 -0.0431 -0.4633 -0.1018
 1423BOLB   C4B34140  21.693  11.697  11.702 -0.0124 -0.1088  0.0440
 1423BOLB   NC234141  23.874   9.890  10.128  0.1809  0.2088  0.2196
 1423BOLB   PO234142  23.904  10.362  10.442 -0.1752  0.1497 -0.1862
 1423BOLB   GL334143  23.603  10.283  10.807 -0.1524 -0.3931 -0.0700
 1423BOLB   GL434144  23.225  10.366  10.665  0.1761 -0.2272  0.0243
 1423BOLB   C1C34145  23.254  10.348  11.143  0.0205  0.0613 -0.2395
 1423BOLB   C2C34146  23.044  10.565  11.461  0.2490 -0.0756  0.0974
 1423BOLB   C3C34147  22.869  10.737  11.783 -0.1193 -0.1686 -0.0919
 1423BOLB   C4C34148  22.643  10.935  12.047 -0.0816 -0.0729 -0.2340
 1423BOLB   C1D34149  22.831  10.514  10.728 -0.0735 -0.1143  0.2657
 1423BOLB   C2D34150  22.692  10.759  10.988  0.0013 -0.2125  0.1156
 1423BOLB   C3D34151  22.426  11.170  10.892 -0.0862  0.2678 -0.0827
 1423BOLB   C4D34152  22.297  11.576  11.149 -0.1883  0.4457 -0.2625
 1424BOLB   NC134153  18.015  16.628  10.489  0.4145  0.1629 -0.1633
 1424BOLB   PO134154  18.363  16.730  10.253  0.0416  0.2532 -0.0022
 1424BOLB   GL134155  18.414  16.566   9.788 -0.1307 -0.1431 -0.4151
 1424BOLB   GL234156  18.345  16.796   9.518 -0.1039 -0.0935 -0.0513
 1424BOLB   C1A34157  18.624  16.405   9.475 -0.2547 -0.3190  0.1978
 1424BOLB   C2A34158  18.683  16.391   8.971 -0.0145 -0.2814 -0.0029
 1424BOLB   C3A34159  18.850  16.633   8.567  0.0888 -0.0301  0.0720
 1424BOLB   C4A34160  18.647  16.781   8.229  0.1443 -0.2542  0.1283
 1424BOLB   C1B34161  18.497  16.892   9.088 -0.0016 -0.2819 -0.3046
 1424BOLB   C2B34162  18.539  17.149   8.623 -0.2638  0.0180 -0.0551
 1424BOLB   C3B34163  18.507  17.385   8.281 -0.0395 -0.2519 -0.1257
 1424BOLB   C4B34164  18.449  17.753   7.933 -0.2284 -0.4510 -0.4735
 1424BOLB   NC234165  19.352  18.553   5.871  0.0753  0.2492  0.1322
 1424BOLB   PO234166  18.933  18.267   6.087 -0.3881  0.1262 -0.3182
 1424BOLB   GL334167  18.937  18.265   6.577  0.2562  0.0468 -0.3185
 1424BOLB   GL434168  18.785  18.521   6.644 -0.2074 -0.1246 -0.0747
 1424BOLB   C1C34169  18.853  18.031   6.997 -0.1604  0.0387 -0.0306
 1424BOLB   C2C34170  18.757  17.781   7.282  0.1110  0.0808 -0.4983
 1424BOLB   C3C34171  18.953  17.373   7.558  0.0675 -0.0536 -0.2945
 1424BOLB   C4C34172  18.762  17.102   7.861 -0.0251 -0.0839 -0.2095
 1424BOLB   C1D34173  18.935  18.497   7.049 -0.1263  0.1692 -0.4369
 1424BOLB   C2D34174  19.107  18.244   7.405  0.2541 -0.0071  0.2940
 1424BOLB   C3D34175  19.350  17.953   7.729 -0.0117 -0.2277 -0.0909
 1424BOLB   C4D34176  19.530  18.037   8.139  0.1205  0.2454 -0.0695
 1425BOLB   NC134177  18.372  21.629  11.387 -0.4583  0.0973  0.2611
 1425BOLB   PO134178  18.795  21.426  11.331  0.1733 -0.0726  0.2934
 1425BOLB   GL134179  18.730  21.480  10.941 -0.2568 -0.0204  0.3363
 1425BOLB   GL234180  18.488  21.216  10.827 -0.2806  0.0541 -0.2928
 1425BOLB   C1A34181  18.846  21.323  10.411  0.1504  0.0913 -0.0373
 1425BOLB   C2A34182  18.809  21.470  10.013  0.1292  0.1316  0.2028
 1425BOLB   C3A34183  18.851  21.777   9.688  0.0413  0.1012 -0.1578
 1425BOLB   C4A34184  18.777  22.204   9.431 -0.0447 -0.1502 -0.0947
 1425BOLB   C1B34185  18.438  21.535  10.424  0.1371 -0.1201 -0.3590
 1425BOLB   C2B34186  18.337  21.539   9.916  0.0203  0.2809 -0.0521
 1425BOLB   C3B34187  18.357  21.345   9.562  0.0074  0.2072  0.0364
 1425BOLB   C4B34188  18.455  21.209   9.108  0.3086  0.2462  0.0942
 1425BOLB   NC234189  17.391  23.188   7.588  0.1380  0.0896  0.2582
 1425BOLB   PO234190  17.612  23.513   7.799 -0.2118  0.0642  0.3728
 1425BOLB   GL334191  17.686  23.407   8.232  0.1840  0.0142  0.0358
 1425BOLB   GL434192  17.402  23.312   8.356  0.1093 -0.0250 -0.2416
 1425BOLB   C1C34193  17.928  23.284   8.677 -0.4033  0.0653  0.3339
 1425BOLB   C2C34194  18.082  22.944   8.818  0.2014  0.2451  0.0991
 1425BOLB   C3C34195  18.207  22.680   9.094  0.0849 -0.2737 -0.1292
 1425BOLB   C4C34196  18.518  22.633   9.423 -0.2302 -0.2079  0.0241
 1425BOLB   C1D34197  17.317  23.421   8.751 -0.1627 -0.2265  0.0125
 1425BOLB   C2D34198  17.061  23.309   9.035 -0.1174 -0.1830  0.0791
 1425BOLB   C3D34199  16.752  23.410   9.305  0.0179  0.0862 -0.2576
 1425BOLB   C4D34200  16.622  23.389   9.775 -0.2556 -0.2512 -0.1209
 1426BOLB   NC134201  15.999  16.143  10.025  0.1479  0.2852  0.2533
 1426BOLB   PO134202  16.419  16.044  10.130  0.1178 -0.1214  0.1073
 1426BOLB   GL134203  16.608  16.114   9.686 -0.2256 -0.2188  0.0258
 1426BOLB   GL234204  16.268  16.290   9.647  0.1960 -0.2748  0.0608
 1426BOLB   C1A34205  16.847  15.975   9.368 -0.2540  0.0695  0.1660
 1426BOLB   C2A34206  16.758  15.934   8.914  0.0265  0.0200 -0.2061
 1426BOLB   C3A34207  16.915  15.994   8.515 -0.1091  0.0395  0.0918
 1426BOLB   C4A34208  17.095  16.161   8.122  0.1595  0.0389  0.1796
 1426BOLB   C1B34209  16.403  16.220   9.216  0.0218 -0.0988  0.2484
 1426BOLB   C2B34210  16.249  16.021   8.827  0.2274  0.2202 -0.1984
 1426BOLB   C3B34211  16.074  15.952   8.396 -0.1067  0.1636 -0.0693
 1426BOLB   C4B34212  16.119  16.213   8.093 -0.1160  0.0110 -0.1018
 1426BOLB   NC234213  17.309  16.947   5.619  0.3256  0.0103  0.1847
 1426BOLB   PO234214  17.007  16.810   5.878 -0.0385  0.2467 -0.0867
 1426BOLB   GL334215  17.011  16.701   6.306  0.0176  0.1148  0.2518
 1426BOLB   GL434216  16.728  16.733   6.510 -0.0162  0.0141 -0.0361
 1426BOLB   C1C34217  17.226  16.477   6.620 -0.0727 -0.1617  0.0638
 1426BOLB   C2C34218  17.010  16.458   7.012 -0.1401 -0.1721  0.1518
 1426BOLB   C3C34219  17.062  16.492   7.448 -0.2184 -0.1189 -0.0490
 1426BOLB   C4C34220  17.165  16.415   7.835  0.3269  0.1249 -0.1996
 1426BOLB   C1D34221  16.636  16.970   6.852  0.1261  0.3017 -0.2291
 1426BOLB   C2D34222  16.677  17.342   7.175  0.0032  0.2708 -0.1524
 1426BOLB   C3D34223  16.726  17.580   7.449 -0.0345 -0.1333  0.0873
 1426BOLB   C4D34224  16.806  17.923   7.346  0.0035 -0.0215 -0.0033
 1427BOLB   NC134225  16.692  14.164  10.883  0.1932  0.1207 -0.0025
 1427BOLB   PO134226  16.998  13.829  10.733 -0.0278 -0.1156 -0.0000
 1427BOLB   GL134227  17.108  13.510  10.418 -0.0276 -0.0440 -0.2601
 1427BOLB   GL234228  17.421  13.539  10.398 -0.0181  0.1192  0.1883
 1427BOLB   C1A34229  17.032  13.356   9.986  0.3271  0.0662  0.2501
 1427BOLB   C2A34230  17.185  13.224   9.559 -0.0147  0.0468  0.0440
 1427BOLB   C3A34231  17.349  12.986   9.253 -0.1702  0.4113 -0.0091
 1427BOLB   C4A34232  17.700  12.836   8.955 -0.1334  0.0803 -0.2318
 1427BOLB   C1B34233  17.560  13.193  10.060 -0.2684 -0.1863  0.2222
 1427BOLB   C2B34234  17.609  12.996   9.684 -0.2259 -0.1390 -0.1127
 1427BOLB   C3B34235  17.912  12.878   9.480 -0.1261 -0.0648  0.0790
 1427BOLB   C4B34236  18.120  12.531   9.100 -0.3281  0.2686 -0.0707
 1427BOLB   NC234237  18.499  10.423   8.152 -0.1959  0.2753  0.3473
 1427BOLB   PO234238  18.424  10.682   7.754  0.0509 -0.0975 -0.3325
 1427BOLB   GL334239  18.300  11.168   7.820  0.2842  0.0013 -0.4579
 1427BOLB   GL434240  18.273  11.387   7.499 -0.0706  0.2661  0.2520
 1427BOLB   C1C34241  18.106  11.479   8.135  0.0178  0.0648  0.2656
 1427BOLB   C2C34242  18.008  11.901   8.308  0.2705 -0.2661 -0.2822
 1427BOLB   C3C34243  17.871  12.285   8.338  0.1152 -0.1772 -0.1428
 1427BOLB   C4C34244  17.834  12.642   8.641 -0.2011 -0.2805 -0.0244
 1427BOLB   C1D34245  18.207  11.841   7.788 -0.2233  0.5807  0.2905
 1427BOLB   C2D34246  18.227  12.211   7.969  0.1864 -0.0826  0.0725
 1427BOLB   C3D34247  18.404  12.242   8.372  0.0735 -0.1567  0.0489
 1427BOLB   C4D34248  18.331  12.458   8.674 -0.2458 -0.1053 -0.1387
 1428BOLB   NC134249  17.042  13.378  11.042 -0.0176 -0.1884 -0.0919
 1428BOLB   PO134250  16.807  13.163  10.897 -0.3074 -0.2481  0.0538
 1428BOLB   GL134251  16.686  12.889  10.617 -0.2511  0.0624 -0.1835
 1428BOLB   GL234252  16.946  13.019  10.402 -0.3617 -0.2436 -0.1229
 1428BOLB   C1A34253  16.856  12.546  10.401 -0.1202 -0.0041 -0.0635
 1428BOLB   C2A34254  17.207  12.438  10.194 -0.1253  0.0729  0.2578
 1428BOLB   C3A34255  17.565  12.471   9.944 -0.2617 -0.2106  0.1953
 1428BOLB   C4A34256  17.829  12.386   9.585 -0.0516  0.0693 -0.1092
 1428BOLB   C1B34257  17.171  12.873  10.000  0.0966 -0.1637 -0.1661
 1428BOLB   C2B34258  17.234  12.704   9.623 -0.2052 -0.1228 -0.1977
 1428BOLB   C3B34259  17.293  12.479   9.205  0.3946 -0.0235  0.0258
 1428BOLB   C4B34260  17.613  12.307   9.046  0.2058  0.0707 -0.0070
 1428BOLB   NC234261  19.011  11.237   7.126  0.1927  0.2219  0.2636
 1428BOLB   PO234262  18.731  11.280   7.581 -0.0341 -0.3666  0.0922
 1428BOLB   GL334263  18.723  11.543   7.797 -0.0597  0.0086  0.2397
 1428BOLB   GL434264  18.663  11.856   7.601 -0.0503  0.1270 -0.1479
 1428BOLB   C1C34265  18.509  11.800   8.198 -0.1148 -0.1688  0.0712
 1428BOLB   C2C34266  18.352  11.731   8.628  0.2977  0.0299 -0.1882
 1428BOLB   C3C34267  18.435  12.023   8.903  0.3861 -0.1525 -0.1577
 1428BOLB   C4C34268  18.215  12.082   9.340  0.1055 -0.1492  0.1936
 1428BOLB   C1D34269  18.301  12.174   7.389  0.0948 -0.0519 -0.0618
 1428BOLB   C2D34270  18.085  12.493   7.578 -0.1788  0.2998 -0.2341
 1428BOLB   C3D34271  17.977  12.654   7.973 -0.0576 -0.0221 -0.0745
 1428BOLB   C4D34272  18.080  12.896   8.291  0.0784  0.2620 -0.0760
 1429BOLB   NC134273  11.795  12.397  11.357  0.2283 -0.0888 -0.3862
 1429BOLB   PO134274  11.363  12.580  11.182  0.0508  0.1477  0.1581
 1429BOLB   GL134275  11.473  12.214  10.788  0.4291 -0.1090 -0.1605
 1429BOLB   GL234276  11.748  12.229  10.518  0.0576 -0.4399  0.3715
 1429BOLB   C1A34277  11.249  12.159  10.348  0.1544 -0.0941 -0.0827
 1429BOLB   C2A34278  11.171  11.887   9.925  0.1753 -0.0007  0.1681
 1429BOLB   C3A34279  11.008  11.974   9.507  0.2167 -0.0877  0.1756
 1429BOLB   C4A34280  10.949  11.849   9.088  0.1873 -0.2015  0.0414
 1429BOLB   C1B34281  11.694  12.108  10.089  0.0677  0.0341 -0.0364
 1429BOLB   C2B34282  11.594  11.994   9.663 -0.1439 -0.0543 -0.0380
 1429BOLB   C3B34283  11.411  11.842   9.206 -0.3255  0.1473  0.1720
 1429BOLB   C4B34284  11.369  11.507   8.842  0.2710  0.0549 -0.3501
 1429BOLB   NC234285  11.247  12.643   6.634  0.0592  0.0879  0.1857
 1429BOLB   PO234286  11.058  12.440   6.829  0.3296 -0.0280 -0.3075
 1429BOLB   GL334287  10.847  12.425   7.255 -0.1255 -0.1376  0.0005
 1429BOLB   GL434288  10.814  12.068   7.255 -0.2702  0.1145  0.0140
 1429BOLB   C1C34289  10.779  12.439   7.704  0.0323 -0.1756  0.1947
 1429BOLB   C2C34290  10.617  12.260   8.038 -0.1909 -0.3220  0.0017
 1429BOLB   C3C34291  10.915  12.021   8.357 -0.1854 -0.0991  0.3163
 1429BOLB   C4C34292  11.185  12.011   8.728 -0.0519 -0.4083 -0.2376
 1429BOLB   C1D34293  10.499  11.976   7.504  0.1587 -0.1451 -0.0730
 1429BOLB   C2D34294  10.451  11.757   7.947  0.0707  0.0252 -0.2999
 1429BOLB   C3D34295  10.456  11.754   8.280  0.2735  0.0804 -0.1628
 1429BOLB   C4D34296  10.835  11.582   8.532 -0.0231  0.2114 -0.0663
 1430BOLB   NC134297  14.404  13.801  10.123  0.1619 -0.3171  0.0685
 1430BOLB   PO134298  14.242  14.233   9.986  0.0260 -0.1616 -0.0161
 1430BOLB   GL134299  14.188  14.430   9.545  0.0638 -0.2943  0.1985
 1430BOLB   GL234300  14.086  14.111   9.416 -0.1567  0.4048 -0.0557
 1430BOLB   C1A34301  14.461  14.474   9.285  0.1126 -0.1169 -0.1176
 1430BOLB   C2A34302  14.324  14.451   8.845  0.0191 -0.1486 -0.2069
 1430BOLB   C3A34303  14.320  14.232   8.456  0.0432  0.0650  0.1391
 1430BOLB   C4A34304  14.149  13.969   8.142 -0.0310  0.1233  0.1444
 1430BOLB   C1B34305  14.446  13.980   9.125  0.0667  0.0269  0.4175
 1430BOLB   C2B34306  14.597  13.853   8.658  0.1400 -0.0422 -0.0507
 1430BOLB   C3B34307  14.677  13.869   8.310 -0.0787 -0.2504  0.0238
 1430BOLB   C4B34308  14.505  13.772   7.918 -0.0546  0.1102 -0.0673
 1430BOLB   NC234309  13.573  13.187   5.812 -0.0727 -0.0639 -0.2702
 1430BOLB   PO234310  13.524  13.583   6.063  0.1988  0.0480  0.0820
 1430BOLB   GL334311  13.278  13.943   6.274  0.0253 -0.2337  0.2381
 1430BOLB   GL434312  13.314  14.328   6.215 -0.2167  0.3915 -0.1186
 1430BOLB   C1C34313  13.379  14.053   6.709  0.0234 -0.1370  0.3099
 1430BOLB   C2C34314  13.811  13.924   6.990  0.1134 -0.0292  0.1275
 1430BOLB   C3C34315  14.063  14.056   7.349  0.0574 -0.0353 -0.0427
 1430BOLB   C4C34316  14.092  14.029   7.701 -0.0727  0.2215 -0.3531
 1430BOLB   C1D34317  13.310  14.595   6.572  0.1273  0.0022  0.2948
 1430BOLB   C2D34318  13.315  14.880   6.955 -0.2772 -0.1983 -0.1717
 1430BOLB   C3D34319  13.321  15.145   7.250  0.1339 -0.0392 -0.2583
 1430BOLB   C4D34320  13.438  15.102   7.643  0.3818  0.1198 -0.1682
 1431BOLB   NC134321  10.636  20.935  11.450  0.0172  0.4051  0.0816
 1431BOLB   PO134322  10.739  20.602  11.219  0.0755 -0.3579  0.0290
 1431BOLB   GL134323  10.448  20.910  10.964 -0.0939  0.0029  0.0283
 1431BOLB   GL234324  10.194  20.784  11.108 -0.4410 -0.6094  0.3152
 1431BOLB   C1A34325  10.185  21.007  10.610 -0.1099 -0.0464  0.2229
 1431BOLB   C2A34326  10.054  21.059  10.218  0.0919  0.1358 -0.0338
 1431BOLB   C3A34327   9.958  21.245   9.767 -0.0798  0.3647  0.2908
 1431BOLB   C4A34328   9.795  21.365   9.475  0.1232  0.0342 -0.0972
 1431BOLB   C1B34329   9.742  20.819  10.838 -0.2339  0.3115 -0.0005
 1431BOLB   C2B34330   9.609  20.804  10.342 -0.0157 -0.1321  0.2146
 1431BOLB   C3B34331   9.499  20.828   9.874  0.2255 -0.1506  0.0598
 1431BOLB   C4B34332   9.624  20.729   9.540  0.1602 -0.2267  0.3709
 1431BOLB   NC234333   8.117  20.953   7.915 -0.0031  0.1678 -0.0837
 1431BOLB   PO234334   7.990  21.316   8.196  0.1888  0.1668  0.2870
 1431BOLB   GL334335   8.263  21.269   8.442  0.1009 -0.1354 -0.2657
 1431BOLB   GL434336   8.155  21.032   8.785  0.2304  0.1518  0.4945
 1431BOLB   C1C34337   8.576  21.409   8.624  0.0559  0.2394 -0.4417
 1431BOLB   C2C34338   8.833  21.460   8.866  0.0037 -0.1828  0.0381
 1431BOLB   C3C34339   9.079  21.333   9.095  0.3395  0.0080  0.0107
 1431BOLB   C4C34340   9.316  21.381   9.421  0.1395 -0.3010 -0.1177
 1431BOLB   C1D34341   8.441  20.721   8.531 -0.1585  0.2178 -0.3921
 1431BOLB   C2D34342   8.820  20.429   8.609  0.2379 -0.2637  0.3299
 1431BOLB   C3D34343   9.282  20.521   8.491 -0.1320  0.0806  0.0643
 1431BOLB   C4D34344   9.519  20.202   8.274  0.0760  0.1122 -0.0468
 1432BOLB   NC134345  18.598  10.870  13.616 -0.3150  0.0083 -0.0274
 1432BOLB   PO134346  18.875  10.582  13.460 -0.2267  0.1749  0.1420
 1432BOLB   GL134347  19.084  10.167  13.285  0.1124  0.0219 -0.0004
 1432BOLB   GL234348  19.379  10.052  13.452  0.0766  0.0048  0.1901
 1432BOLB   C1A34349  19.250   9.941  12.906  0.1809  0.0305 -0.3951
 1432BOLB   C2A34350  19.391   9.596  12.600 -0.0914  0.0222  0.1541
 1432BOLB   C3A34351  19.521   9.133  12.506  0.1927  0.3071 -0.1953
 1432BOLB   C4A34352  19.626   8.753  12.226 -0.1391 -0.1308  0.3172
 1432BOLB   C1B34353  19.635   9.734  13.127  0.2081  0.0295 -0.0744
 1432BOLB   C2B34354  19.746   9.310  12.893  0.0465  0.1349 -0.0055
 1432BOLB   C3B34355  19.927   8.984  12.926  0.0201 -0.5853 -0.1490
 1432BOLB   C4B34356  20.098   8.535  12.992  0.1798 -0.1184  0.1372
 1432BOLB   NC234357  21.116   6.923  11.551  0.0837 -0.1174  0.4171
 1432BOLB   PO234358  20.719   7.004  11.250 -0.1169 -0.0050  0.2664
 1432BOLB   GL334359  20.565   7.386  11.440 -0.1925 -0.2131 -0.1355
 1432BOLB   GL434360  20.327   7.490  11.215  0.2854  0.3845 -0.2507
 1432BOLB   C1C34361  20.624   7.744  11.688  0.1302 -0.2481  0.5049
 1432BOLB   C2C34362  20.549   8.144  11.762 -0.1159  0.0145 -0.1008
 1432BOLB   C3C34363  20.262   8.442  11.751 -0.1603 -0.1570  0.2547
 1432BOLB   C4C34364  19.777   8.566  11.891 -0.0677 -0.2585 -0.1165
 1432BOLB   C1D34365  20.087   7.422  11.594  0.1187  0.2003 -0.5024
 1432BOLB   C2D34366  20.277   7.410  11.923  0.5671  0.0414  0.0729
 1432BOLB   C3D34367  20.422   7.219  12.345 -0.0922 -0.0958 -0.0249
 1432BOLB   C4D34368  20.518   7.532  12.656 -0.1590 -0.0888  0.3696
 1433BOLB   NC134369  14.148   9.640  12.841  0.0853 -0.1625 -0.4423
 1433BOLB   PO134370  14.034   9.328  12.500 -0.1759  0.1116 -0.0459
 1433BOLB   GL134371  13.951   9.274  12.088  0.3724 -0.1683 -0.1259
 1433BOLB   GL234372  13.664   9.339  11.841 -0.0332 -0.0275 -0.0903
 1433BOLB   C1A34373  14.126   9.037  11.715  0.1155 -0.1796  0.1143
 1433BOLB   C2A34374  14.329   8.777  11.412  0.0184 -0.1825  0.1135
 1433BOLB   C3A34375  14.494   8.899  10.996  0.1039 -0.3742 -0.1913
 1433BOLB   C4A34376  14.458   8.885  10.555 -0.0220  0.0012 -0.1783
 1433BOLB   C1B34377  13.645   9.129  11.494 -0.0924 -0.0014  0.0997
 1433BOLB   C2B34378  13.906   8.874  11.151  0.2839 -0.0180  0.0769
 1433BOLB   C3B34379  14.094   8.650  10.773  0.3535  0.4944 -0.3045
 1433BOLB   C4B34380  14.343   8.425  10.519 -0.0261 -0.1073 -0.0783
 1433BOLB   NC234381  14.849   7.611   8.870 -0.0156  0.2204 -0.3023
 1433BOLB   PO234382  15.093   7.898   8.626  0.1489  0.1033 -0.1645
 1433BOLB   GL334383  15.193   8.263   8.794 -0.0939 -0.0599 -0.0529
 1433BOLB   GL434384  14.971   8.484   8.525 -0.2932  0.0524 -0.0422
 1433BOLB   C1C34385  15.230   8.408   9.108 -0.3455  0.0134  0.2687
 1433BOLB   C2C34386  14.870   8.464   9.373 -0.0697  0.0356 -0.0831
 1433BOLB   C3C34387  14.744   8.572   9.754  0.1417 -0.1532  0.1477
 1433BOLB   C4C34388  14.601   8.720  10.158 -0.3176  0.1016 -0.3162
 1433BOLB   C1D34389  14.859   8.771   8.828  0.1052  0.2212  0.4017
 1433BOLB   C2D34390  14.642   8.842   9.174 -0.2587 -0.2360 -0.1329
 1433BOLB   C3D34391  14.634   8.984   9.553  0.1887 -0.2017 -0.2763
 1433BOLB   C4D34392  14.838   9.125   9.979  0.0545 -0.0231 -0.0962
 1434BOLB   NC134393  21.353  16.599  11.111 -0.1249  0.1746  0.5203
 1434BOLB   PO134394  21.666  17.093  11.039  0.0152  0.4722 -0.1268
 1434BOLB   GL134395  21.607  16.947  10.626  0.0533  0.1177 -0.0496
 1434BOLB   GL234396  21.709  17.126  10.430 -0.0585 -0.1514  0.0104
 1434BOLB   C1A34397  21.299  16.909  10.205 -0.1765 -0.0676 -0.0545
 1434BOLB   C2A34398  21.446  16.909   9.794 -0.0348  0.0710 -0.1574
 1434BOLB   C3A34399  21.612  16.858   9.351  0.2570 -0.1103  0.0490
 1434BOLB   C4A34400  21.953  16.802   9.121  0.2846 -0.3743  0.0325
 1434BOLB   C1B34401  21.754  17.345   9.980  0.2931  0.1376 -0.2225
 1434BOLB   C2B34402  21.749  17.348   9.537  0.1812  0.0784 -0.1087
 1434BOLB   C3B34403  21.541  17.304   9.139 -0.4601  0.2816 -0.2315
 1434BOLB   C4B34404  21.409  17.305   8.813  0.2802 -0.1110  0.3472
 1434BOLB   NC234405  22.921  15.090   7.190  0.3366 -0.0515  0.1558
 1434BOLB   PO234406  22.581  15.277   7.636 -0.1242 -0.0147  0.0912
 1434BOLB   GL334407  22.447  15.460   7.964  0.1835  0.1959 -0.2284
 1434BOLB   GL434408  22.231  15.266   7.948  0.0098 -0.0904 -0.0377
 1434BOLB   C1C34409  22.232  15.672   8.248 -0.0140  0.0070 -0.2662
 1434BOLB   C2C34410  22.220  15.997   8.492 -0.1496 -0.0420  0.0700
 1434BOLB   C3C34411  22.276  16.436   8.452  0.1322 -0.1124  0.1759
 1434BOLB   C4C34412  22.198  16.808   8.667 -0.0258  0.2975 -0.1280
 1434BOLB   C1D34413  22.131  15.171   8.453 -0.3652  0.2141 -0.1182
 1434BOLB   C2D34414  21.981  15.009   8.845 -0.3215 -0.2698  0.0850
 1434BOLB   C3D34415  22.114  15.217   9.185  0.3989 -0.1581  0.1762
 1434BOLB   C4D34416  22.257  15.432   9.576 -0.0586 -0.0706 -0.2223
 1435BOLB   NC134417  11.325  11.696  11.561 -0.0011  0.0384  0.2652
 1435BOLB   PO134418  11.529  11.382  11.381  0.0858 -0.1397  0.1025
 1435BOLB   GL134419  11.416  11.129  11.163 -0.0318  0.2420 -0.2015
 1435BOLB   GL234420  11.158  11.224  10.972  0.0681 -0.0031 -0.1269
 1435BOLB   C1A34421  11.780  10.894  10.742  0.0419 -0.3391  0.1368
 1435BOLB   C2A34422  11.933  10.698  10.479 -0.4624  0.1830 -0.0024
 1435BOLB   C3A34423  11.769  10.517  10.058 -0.0664  0.1580  0.0131
 1435BOLB   C4A34424  11.632  10.187   9.768 -0.0547 -0.2011  0.3150
 1435BOLB   C1B34425  11.244  11.168  10.497  0.0865 -0.5087  0.1760
 1435BOLB   C2B34426  11.159  11.345  10.135 -0.0436 -0.1276 -0.1589
 1435BOLB   C3B34427  11.369  11.263   9.796 -0.0520  0.2869 -0.1169
 1435BOLB   C4B34428  11.436  11.553   9.651 -0.0291 -0.2643  0.1391
 1435BOLB   NC234429  12.066   9.189   7.071  0.0372  0.1607 -0.0393
 1435BOLB   PO234430  12.171   9.607   7.228 -0.4240  0.2445  0.2045
 1435BOLB   GL334431  12.242   9.745   7.775 -0.0245 -0.5610 -0.0982
 1435BOLB   GL434432  11.961   9.726   7.874  0.2309  0.2900 -0.0020
 1435BOLB   C1C34433  12.224   9.812   8.296 -0.1357  0.3766  0.2789
 1435BOLB   C2C34434  11.973   9.822   8.649  0.1021  0.0537 -0.0469
 1435BOLB   C3C34435  11.618   9.893   8.924  0.1270 -0.0682  0.2001
 1435BOLB   C4C34436  11.613  10.007   9.343  0.2383  0.2323  0.0861
 1435BOLB   C1D34437  11.607   9.768   8.217 -0.0627 -0.0601  0.1107
 1435BOLB   C2D34438  11.461   9.679   8.515  0.1710  0.0246 -0.0919
 1435BOLB   C3D34439  11.182   9.331   8.700 -0.2045 -0.2589 -0.0656
 1435BOLB   C4D34440  11.007   9.291   9.028  0.0122 -0.0346 -0.3153
 1436BOLB   NC134441  19.996   9.970  14.091 -0.0326 -0.0566  0.0259
 1436BOLB   PO134442  20.448  10.263  14.105  0.0189  0.1887 -0.0223
 1436BOLB   GL134443  20.587   9.947  13.877 -0.2304  0.1606  0.3027
 1436BOLB   GL234444  20.334   9.724  13.797 -0.0287  0.1703 -0.5126
 1436BOLB   C1A34445  20.906   9.731  13.726 -0.3952 -0.0412  0.2135
 1436BOLB   C2A34446  21.333   9.563  13.699  0.1040  0.1097 -0.2318
 1436BOLB   C3A34447  21.680   9.470  13.563  0.2869 -0.1541  0.3620
 1436BOLB   C4A34448  21.986   9.531  13.331 -0.1981 -0.0818  0.0557
 1436BOLB   C1B34449  20.486   9.621  13.352  0.1181  0.0810 -0.3570
 1436BOLB   C2B34450  20.432   9.334  13.031 -0.1309  0.3128 -0.1272
 1436BOLB   C3B34451  20.467   8.985  12.734 -0.3007 -0.1137  0.3752
 1436BOLB   C4B34452  20.478   8.505  12.645 -0.1285 -0.0518 -0.1177
 1436BOLB   NC234453  22.956   8.736  11.020 -0.1552 -0.0622  0.0687
 1436BOLB   PO234454  22.822   9.007  11.328 -0.0499 -0.1875 -0.1520
 1436BOLB   GL334455  22.493   9.076  11.555 -0.1655  0.1704 -0.2164
 1436BOLB   GL434456  22.690   9.384  11.667  0.1263 -0.0997  0.5562
 1436BOLB   C1C34457  22.189   8.987  11.833 -0.0507  0.3134  0.0021
 1436BOLB   C2C34458  22.265   8.936  12.228 -0.0157 -0.1700  0.2577
 1436BOLB   C3C34459  22.264   9.209  12.652 -0.1168 -0.3305  0.2428
 1436BOLB   C4C34460  22.150   9.481  12.961  0.0689  0.1205  0.2397
 1436BOLB   C1D34461  22.610   9.748  11.793  0.2041 -0.0068 -0.1462
 1436BOLB   C2D34462  22.319   9.929  12.074 -0.1592  0.0524  0.0277
 1436BOLB   C3D34463  21.935  10.137  12.286 -0.1927 -0.3167 -0.1775
 1436BOLB   C4D34464  21.667  10.364  12.554  0.0564 -0.0808  0.0817
 1437BOLB   NC134465  17.219  11.260  11.794  0.1866  0.0648  0.2195
 1437BOLB   PO134466  17.453  11.413  12.097  0.0655  0.3679  0.3123
 1437BOLB   GL134467  17.676  11.531  11.753 -0.0942 -0.1198 -0.0423
 1437BOLB   GL234468  17.966  11.401  11.756  0.2581 -0.1798  0.1311
 1437BOLB   C1A34469  17.807  11.403  11.320 -0.2906  0.2674  0.0056
 1437BOLB   C2A34470  17.903  11.246  10.956 -0.0438 -0.0770  0.5504
 1437BOLB   C3A34471  18.305  11.143  10.865 -0.2078  0.2445  0.1261
 1437BOLB   C4A34472  18.558  11.168  10.551  0.0890 -0.0483  0.2277
 1437BOLB   C1B34473  18.124  11.147  11.518 -0.0337 -0.3558 -0.1614
 1437BOLB   C2B34474  18.065  10.852  11.250 -0.2215 -0.3167  0.2331
 1437BOLB   C3B34475  17.991  10.797  10.820 -0.0668 -0.3312  0.1315
 1437BOLB   C4B34476  17.817  10.651  10.386  0.2346 -0.0582 -0.1470
 1437BOLB   NC234477  18.948   9.915   8.224 -0.1680 -0.0031 -0.1757
 1437BOLB   PO234478  19.016   9.601   8.630  0.0210 -0.1132  0.0229
 1437BOLB   GL334479  18.880   9.857   8.927 -0.0328  0.1250 -0.1747
 1437BOLB   GL434480  18.852   9.670   9.174 -0.1794 -0.3383 -0.2581
 1437BOLB   C1C34481  18.606  10.187   9.121 -0.0560  0.1493  0.0652
 1437BOLB   C2C34482  18.597  10.685   9.246  0.0546 -0.0259  0.1124
 1437BOLB   C3C34483  18.597  11.001   9.633  0.0138  0.1501  0.3530
 1437BOLB   C4C34484  18.549  11.046  10.170  0.1167 -0.1909  0.1635
 1437BOLB   C1D34485  19.054   9.975   9.523 -0.4019  0.4450  0.3523
 1437BOLB   C2D34486  19.139  10.230   9.812 -0.2179 -0.1357  0.0087
 1437BOLB   C3D34487  19.388  10.405  10.128 -0.1093 -0.1196 -0.1748
 1437BOLB   C4D34488  19.846  10.395  10.026  0.0039  0.1726  0.0219
 1438BOLB   NC134489  22.420  11.374  16.158  0.2267  0.3397 -0.0602
 1438BOLB   PO134490  22.240  11.110  15.794 -0.1139  0.0776 -0.0265
 1438BOLB   GL134491  22.277  10.606  15.734 -0.0647 -0.0669  0.2093
 1438BOLB   GL234492  22.142  10.469  15.488  0.0946 -0.0293 -0.2114
 1438BOLB   C1A34493  22.699  10.417  15.691 -0.0113  0.1325  0.1085
 1438BOLB   C2A34494  23.015  10.175  15.819 -0.0064 -0.2038  0.0033
 1438BOLB   C3A34495  23.165   9.780  15.775 -0.0685 -0.3270 -0.1560
 1438BOLB   C4A34496  23.363   9.507  15.592  0.3778  0.2009  0.2270
 1438BOLB   C1B34497  22.356  10.042  15.207 -0.0053 -0.0014 -0.1727
 1438BOLB   C2B34498  22.431   9.585  15.037 -0.0526  0.0107 -0.1397
 1438BOLB   C3B34499  22.422   9.388  14.612 -0.0396  0.1333 -0.3360
 1438BOLB   C4B34500  22.695   8.986  14.451 -0.4196 -0.0256 -0.0055
 1438BOLB   NC234501  24.067   7.198  15.266 -0.0064  0.0506 -0.0165
 1438BOLB   PO234502  23.695   7.222  15.202  0.2161 -0.2141 -0.0939
 1438BOLB   GL334503  23.627   7.449  15.530  0.3000  0.2243 -0.1425
 1438BOLB   GL434504  23.448   7.241  15.833  0.0338  0.1651 -0.1254
 1438BOLB   C1C34505  23.369   7.755  15.606  0.0034 -0.2149  0.1584
 1438BOLB   C2C34506  23.367   8.218  15.610 -0.1203  0.0855  0.0150
 1438BOLB   C3C34507  23.345   8.634  15.676 -0.3466 -0.2729  0.1426
 1438BOLB   C4C34508  23.211   9.053  15.613 -0.1351 -0.0203 -0.2046
 1438BOLB   C1D34509  23.043   7.454  15.768 -0.2365  0.1362 -0.2785
 1438BOLB   C2D34510  22.865   7.815  15.703 -0.3889  0.1461  0.2002
 1438BOLB   C3D34511  22.534   8.035  15.952  0.0247 -0.3376 -0.1281
 1438BOLB   C4D34512  22.336   8.494  15.936  0.1163 -0.1281  0.2124
 1439BOLB   NC134513  18.497  11.120  12.599 -0.0309  0.1034 -0.2457
 1439BOLB   PO134514  18.501  10.572  12.603  0.1149  0.1587  0.0104
 1439BOLB   GL134515  18.277  10.254  12.492 -0.1309 -0.2770  0.1457
 1439BOLB   GL234516  18.029  10.316  12.267 -0.2871 -0.0173 -0.1212
 1439BOLB   C1A34517  18.483   9.917  12.249 -0.3738 -0.0256 -0.3555
 1439BOLB   C2A34518  18.758   9.624  11.923 -0.1512  0.0971 -0.1361
 1439BOLB   C3A34519  18.897   9.466  11.630 -0.1416 -0.0956 -0.0614
 1439BOLB   C4A34520  19.105   9.210  11.311 -0.7032 -0.2389  0.0379
 1439BOLB   C1B34521  18.122  10.073  11.940  0.0782 -0.0795 -0.3757
 1439BOLB   C2B34522  18.180   9.945  11.575 -0.0778 -0.0349 -0.2859
 1439BOLB   C3B34523  18.522   9.721  11.358 -0.2280  0.3342  0.0726
 1439BOLB   C4B34524  18.642   9.344  11.180  0.1110  0.0091 -0.0441
 1439BOLB   NC234525  19.878   9.006   9.481 -0.1841 -0.2130 -0.1441
 1439BOLB   PO234526  20.205   9.373   9.394 -0.0190  0.0086  0.0147
 1439BOLB   GL334527  19.971   9.645   9.574 -0.0742 -0.2671  0.1269
 1439BOLB   GL434528  20.042   9.920   9.815 -0.1118 -0.0062  0.4598
 1439BOLB   C1C34529  19.790   9.551   9.939  0.0754 -0.2485 -0.2718
 1439BOLB   C2C34530  19.844   9.288  10.232  0.2062  0.2054 -0.0933
 1439BOLB   C3C34531  19.635   9.083  10.549  0.0163  0.0343 -0.0346
 1439BOLB   C4C34532  19.416   9.031  11.020  0.0393  0.0398  0.1412
 1439BOLB   C1D34533  19.658  10.051   9.656 -0.1254  0.1237 -0.1648
 1439BOLB   C2D34534  19.535  10.499   9.669  0.1141 -0.1912 -0.1237
 1439BOLB   C3D34535  19.560  10.898   9.437  0.2362  0.0757  0.1812
 1439BOLB   C4D34536  19.363  11.220   9.341 -0.2060 -0.0320 -0.0813
 1440BOLB   NC134537  10.161  17.450  10.914 -0.2896 -0.2542 -0.1188
 1440BOLB   PO134538  10.453  17.676  10.859  0.1099 -0.0107 -0.0842
 1440BOLB   GL134539  10.396  17.795  10.422 -0.2171 -0.0217 -0.0450
 1440BOLB   GL234540  10.267  18.126  10.395  0.1513 -0.5839  0.1296
 1440BOLB   C1A34541  10.382  17.829  10.019 -0.1418  0.0011 -0.3499
 1440BOLB   C2A34542  10.081  17.910   9.719  0.3098  0.2862 -0.1037
 1440BOLB   C3A34543   9.955  18.158   9.292 -0.1999  0.0180  0.0945
 1440BOLB   C4A34544  10.287  18.320   8.886  0.2595 -0.0334  0.0664
 1440BOLB   C1B34545  10.174  18.351  10.119 -0.4668 -0.0664  0.2152
 1440BOLB   C2B34546  10.000  18.480   9.698  0.1357  0.2249 -0.0176
 1440BOLB   C3B34547   9.749  18.693   9.372 -0.3684 -0.0390  0.1302
 1440BOLB   C4B34548   9.714  19.003   9.030 -0.0092  0.0488 -0.3071
 1440BOLB   NC234549  10.028  19.849   6.826  0.0736  0.3810 -0.1340
 1440BOLB   PO234550   9.688  19.893   7.059 -0.0533  0.0395  0.3118
 1440BOLB   GL334551   9.619  19.838   7.474  0.1651  0.1336 -0.2049
 1440BOLB   GL434552   9.749  20.020   7.612 -0.2638 -0.5665  0.0651
 1440BOLB   C1C34553   9.953  19.574   7.818  0.0433  0.3320 -0.2399
 1440BOLB   C2C34554  10.067  19.173   8.050  0.0879  0.2951  0.0866
 1440BOLB   C3C34555  10.311  18.906   8.283  0.1310 -0.1851 -0.0944
 1440BOLB   C4C34556  10.431  18.590   8.530  0.2610 -0.0956 -0.0508
 1440BOLB   C1D34557  10.167  19.997   7.785  0.2968  0.0355  0.0803
 1440BOLB   C2D34558  10.485  20.151   7.983  0.1833  0.1300  0.2233
 1440BOLB   C3D34559  10.896  20.206   8.234  0.1109  0.0489  0.0536
 1440BOLB   C4D34560  11.261  20.326   8.435 -0.0431 -0.0900 -0.1313
 1441BOLB   NC134561  14.087  17.234  10.387  0.2239  0.0884 -0.2157
 1441BOLB   PO134562  14.311  16.992  10.125 -0.2139  0.0362 -0.0976
 1441BOLB   GL134563  14.318  17.211   9.641 -0.1773  0.1709 -0.3382
 1441BOLB   GL234564  14.176  17.001   9.412  0.0094  0.0059 -0.0881
 1441BOLB   C1A34565  14.482  17.366   9.277  0.2197 -0.1545 -0.0025
 1441BOLB   C2A34566  14.440  17.212   8.853 -0.0218 -0.2930  0.1231
 1441BOLB   C3A34567  14.335  17.193   8.474  0.1375 -0.1894 -0.3166
 1441BOLB   C4A34568  14.478  17.081   8.041  0.1146  0.3796 -0.0621
 1441BOLB   C1B34569  14.460  16.784   9.087 -0.2430  0.1105  0.2967
 1441BOLB   C2B34570  14.791  16.818   8.840 -0.5037  0.2167  0.0430
 1441BOLB   C3B34571  14.976  16.619   8.417  0.0226 -0.1117 -0.0591
 1441BOLB   C4B34572  14.858  16.435   8.072  0.2185 -0.1479 -0.2003
 1441BOLB   NC234573  15.130  17.510   5.692 -0.2774  0.0612  0.3122
 1441BOLB   PO234574  15.469  17.803   5.698 -0.0507  0.1109 -0.2434
 1441BOLB   GL334575  15.183  17.777   6.078  0.3544 -0.0145  0.2366
 1441BOLB   GL434576  15.318  17.969   6.265 -0.1276 -0.1010  0.1175
 1441BOLB   C1C34577  14.926  17.604   6.401  0.0066  0.4463  0.2867
 1441BOLB   C2C34578  14.841  17.359   6.801  0.1047 -0.0226 -0.0140
 1441BOLB   C3C34579  14.768  17.281   7.270 -0.4450  0.5950 -0.0840
 1441BOLB   C4C34580  14.575  17.094   7.628  0.0875  0.4911 -0.0081
 1441BOLB   C1D34581  15.058  18.276   6.537 -0.0162 -0.0105  0.2550
 1441BOLB   C2D34582  15.230  18.520   6.750 -0.2062 -0.2498  0.2780
 1441BOLB   C3D34583  15.610  18.637   6.989 -0.1003 -0.4283  0.0036
 1441BOLB   C4D34584  15.973  18.695   7.321  0.0634 -0.1932  0.2225
 1442BOLB   NC134585  19.748  15.730  10.627 -0.4688 -0.1497  0.1277
 1442BOLB   PO134586  19.461  15.406  10.466  0.3257  0.1036 -0.1854
 1442BOLB   GL134587  19.799  15.473  10.203  0.3561  0.0572 -0.2716
 1442BOLB   GL234588  20.116  15.496  10.318 -0.0278  0.1744 -0.1421
 1442BOLB   C1A34589  20.043  15.464   9.724 -0.1596 -0.0331  0.3666
 1442BOLB   C2A34590  20.311  15.657   9.443  0.4059  0.2131  0.1576
 1442BOLB   C3A34591  20.677  15.612   9.227 -0.1822 -0.3734  0.1500
 1442BOLB   C4A34592  20.826  15.338   8.798 -0.0488 -0.2990  0.1989
 1442BOLB   C1B34593  20.402  15.413  10.044 -0.3293  0.1812  0.1031
 1442BOLB   C2B34594  20.545  15.300   9.710 -0.2458  0.1889 -0.1180
 1442BOLB   C3B34595  20.756  15.190   9.456  0.1939  0.1338  0.0806
 1442BOLB   C4B34596  21.071  15.043   9.118 -0.2303  0.0636  0.2957
 1442BOLB   NC234597  20.847  13.423   7.296  0.2821  0.0576  0.0783
 1442BOLB   PO234598  21.312  13.496   7.492 -0.3939  0.2191 -0.1491
 1442BOLB   GL334599  20.976  13.629   7.702 -0.1366  0.2468 -0.1957
 1442BOLB   GL434600  20.827  13.324   7.780 -0.0684 -0.3499 -0.1191
 1442BOLB   C1C34601  20.969  14.080   7.792 -0.0426 -0.3116 -0.0127
 1442BOLB   C2C34602  20.791  14.501   7.805  0.1349  0.3103 -0.5878
 1442BOLB   C3C34603  20.854  14.774   8.111 -0.1031 -0.1592 -0.2648
 1442BOLB   C4C34604  20.989  14.988   8.536 -0.0808  0.2432 -0.4016
 1442BOLB   C1D34605  20.772  13.643   8.154 -0.0715 -0.0474 -0.0349
 1442BOLB   C2D34606  20.413  13.814   8.437 -0.1157 -0.0874 -0.0456
 1442BOLB   C3D34607  20.344  14.190   8.650  0.1051  0.2859  0.1273
 1442BOLB   C4D34608  20.396  14.105   9.135  0.0594 -0.1279 -0.0088
 1443BOLB   NC134609  19.034  13.972  11.324  0.0752  0.1686 -0.2424
 1443BOLB   PO134610  18.901  14.171  10.931  0.2825  0.0737 -0.2252
 1443BOLB   GL134611  19.376  14.000  10.851 -0.2722 -0.0449 -0.1604
 1443BOLB   GL234612  19.654  14.255  10.896  0.0861 -0.1294 -0.0915
 1443BOLB   C1A34613  19.495  13.788  10.551  0.2488 -0.0319 -0.3355
 1443BOLB   C2A34614  19.550  13.611  10.172 -0.0770  0.1784 -0.0999
 1443BOLB   C3A34615  19.469  13.780   9.743  0.0661  0.2889  0.2244
 1443BOLB   C4A34616  19.515  13.537   9.394  0.0884 -0.3509  0.0086
 1443BOLB   C1B34617  19.797  14.278  10.460 -0.0150  0.0082 -0.2417
 1443BOLB   C2B34618  19.927  14.163  10.186 -0.0053 -0.0091 -0.1746
 1443BOLB   C3B34619  20.308  14.205   9.865 -0.1600  0.1906  0.2839
 1443BOLB   C4B34620  20.639  13.954   9.513 -0.0104  0.0725  0.3488
 1443BOLB   NC234621  19.638  13.565   6.699 -0.0970  0.1599  0.2794
 1443BOLB   PO234622  19.277  13.394   6.960 -0.1848  0.0572 -0.2649
 1443BOLB   GL334623  19.050  13.421   7.325 -0.0427  0.2309 -0.3012
 1443BOLB   GL434624  19.011  13.684   7.335 -0.1410  0.0184 -0.0474
 1443BOLB   C1C34625  19.390  13.385   7.638  0.1849 -0.2603 -0.1308
 1443BOLB   C2C34626  19.555  13.439   8.016  0.1541  0.0030  0.0726
 1443BOLB   C3C34627  19.557  13.341   8.493  0.0937 -0.1065  0.0945
 1443BOLB   C4C34628  19.487  13.280   9.037 -0.1409  0.1113  0.0357
 1443BOLB   C1D34629  19.036  13.674   7.838  0.1166  0.1804  0.1686
 1443BOLB   C2D34630  18.594  13.767   8.045 -0.0783  0.1397 -0.2658
 1443BOLB   C3D34631  18.140  13.795   8.070  0.0024  0.0174 -0.0295
 1443BOLB   C4D34632  17.903  13.862   8.401  0.2329 -0.1532 -0.1308
 1444BOLB   NC134633  11.463  16.111  10.423 -0.3151  0.0148 -0.1447
 1444BOLB   PO134634  11.719  16.274  10.015  0.4785  0.4303 -0.3935
 1444BOLB   GL134635  11.506  16.108   9.747 -0.2236  0.1847 -0.1711
 1444BOLB   GL234636  11.282  16.023   9.986  0.1520 -0.0037 -0.3096
 1444BOLB   C1A34637  11.336  16.214   9.297  0.2377  0.2269 -0.1609
 1444BOLB   C2A34638  11.061  16.255   8.933 -0.0623  0.2014 -0.0829
 1444BOLB   C3A34639  10.597  16.367   8.817 -0.1019 -0.0267  0.1713
 1444BOLB   C4A34640  10.265  16.242   8.605 -0.1082  0.1716  0.3792
 1444BOLB   C1B34641  10.988  15.914   9.569  0.1705 -0.1482 -0.0388
 1444BOLB   C2B34642  10.840  15.767   9.149 -0.0485  0.0132  0.5193
 1444BOLB   C3B34643  10.775  15.905   8.796  0.0255 -0.2492 -0.2083
 1444BOLB   C4B34644  10.827  16.040   8.393  0.0301  0.0209 -0.2201
 1444BOLB   NC234645  10.692  16.378   6.282 -0.2529  0.1588  0.2884
 1444BOLB   PO234646  10.701  16.856   6.320 -0.0591  0.0239 -0.2740
 1444BOLB   GL334647  10.558  16.635   6.683 -0.0723  0.0209 -0.0102
 1444BOLB   GL434648  10.809  16.409   6.738 -0.1953 -0.1455  0.0619
 1444BOLB   C1C34649  10.471  16.676   7.053  0.1092 -0.0306 -0.3274
 1444BOLB   C2C34650  10.106  16.558   7.385  0.2591  0.2371  0.2217
 1444BOLB   C3C34651  10.005  16.394   7.849  0.1738 -0.0380 -0.0559
 1444BOLB   C4C34652  10.047  16.320   8.244 -0.2805 -0.0960  0.1572
 1444BOLB   C1D34653  11.099  16.063   6.817  0.3795 -0.1861 -0.1996
 1444BOLB   C2D34654  11.427  15.948   7.047 -0.3182  0.1502 -0.1728
 1444BOLB   C3D34655  11.457  16.091   7.508 -0.2058 -0.3937 -0.0064
 1444BOLB   C4D34656  11.397  16.081   7.938 -0.0143 -0.2086 -0.0447
 1445BOLB   NC134657  11.657  22.900  12.388  0.0715  0.1723  0.1297
 1445BOLB   PO134658  12.002  22.792  12.090 -0.1881  0.2064 -0.0757
 1445BOLB   GL134659  12.053  22.989  11.608 -0.0169  0.0025 -0.0785
 1445BOLB   GL234660  12.455  22.880  11.374 -0.2390  0.0244  0.3051
 1445BOLB   C1A34661  12.100  23.334  11.371  0.1506  0.0721 -0.1421
 1445BOLB   C2A34662  12.049  23.548  10.989 -0.0496  0.1374  0.0452
 1445BOLB   C3A34663  11.885  23.597  10.617  0.1213 -0.0046 -0.2257
 1445BOLB   C4A34664  11.773  23.729  10.172  0.1581 -0.0045 -0.0740
 1445BOLB   C1B34665  12.525  22.875  10.838 -0.3875 -0.0866 -0.1525
 1445BOLB   C2B34666  12.410  22.889  10.505  0.3075  0.1098 -0.4322
 1445BOLB   C3B34667  12.571  22.902  10.055 -0.0959 -0.0872 -0.1029
 1445BOLB   C4B34668  12.756  22.980   9.629 -0.0383  0.1093 -0.2701
 1445BOLB   NC234669  11.047  24.584   8.089 -0.1500  0.2711  0.0879
 1445BOLB   PO234670  10.804  24.232   8.128  0.3644 -0.3927 -0.0788
 1445BOLB   GL334671  10.918  23.946   8.387 -0.0119  0.3598 -0.3378
 1445BOLB   GL434672  11.162  23.766   8.352 -0.1083 -0.0027 -0.3560
 1445BOLB   C1C34673  10.976  23.715   8.813 -0.0595  0.0351 -0.0654
 1445BOLB   C2C34674  11.038  23.621   9.165 -0.4124  0.2899  0.0105
 1445BOLB   C3C34675  11.307  23.734   9.550 -0.1068  0.3691  0.0329
 1445BOLB   C4C34676  11.403  23.739   9.993 -0.1786  0.0791 -0.0320
 1445BOLB   C1D34677  11.498  23.571   8.691  0.3125  0.0458  0.1536
 1445BOLB   C2D34678  11.501  23.498   9.176 -0.0201  0.0488 -0.2035
 1445BOLB   C3D34679  11.314  23.256   9.484  0.4283 -0.0131 -0.0082
 1445BOLB   C4D34680  11.077  23.055   9.767  0.0879 -0.0038  0.0323
 1446BOLB   NC134681  15.428  10.602  11.689  0.0774  0.0519 -0.1180
 1446BOLB   PO134682  15.129  10.496  11.340 -0.2185 -0.1979  0.2674
 1446BOLB   GL134683  15.018  10.639  10.941 -0.1575  0.2018  0.0334
 1446BOLB   GL234684  14.764  10.456  10.989 -0.1362  0.1033 -0.0027
 1446BOLB   C1A34685  15.038  10.757  10.499 -0.3188  0.1555 -0.1076
 1446BOLB   C2A34686  15.305  10.892  10.197  0.1294  0.0816 -0.0609
 1446BOLB   C3A34687  15.397  11.265  10.074  0.0973 -0.1879 -0.0345
 1446BOLB   C4A34688  15.422  11.503   9.742  0.0280 -0.0742 -0.2419
 1446BOLB   C1B34689  14.904  10.273  10.598  0.0141 -0.1938 -0.2332
 1446BOLB   C2B34690  14.984  10.100  10.223 -0.3681  0.3299 -0.6246
 1446BOLB   C3B34691  15.007   9.607  10.020  0.3218  0.0608  0.0389
 1446BOLB   C4B34692  14.761   9.572   9.671  0.2902  0.0251  0.1953
 1446BOLB   NC234693  15.247  10.803   6.952 -0.1263  0.1964 -0.2325
 1446BOLB   PO234694  14.948  10.811   7.290  0.3066  0.0673 -0.1303
 1446BOLB   GL334695  14.972  11.140   7.589 -0.2497 -0.3969  0.1016
 1446BOLB   GL434696  14.699  11.298   7.575  0.0983  0.1785  0.1122
 1446BOLB   C1C34697  15.103  11.248   7.942  0.0842  0.3120 -0.0159
 1446BOLB   C2C34698  15.284  11.235   8.438  0.0747 -0.1218 -0.4466
 1446BOLB   C3C34699  15.319  11.336   8.868 -0.4198  0.0435 -0.2631
 1446BOLB   C4C34700  15.475  11.449   9.226  0.0197  0.0672 -0.2328
 1446BOLB   C1D34701  14.620  11.752   7.703  0.1200 -0.0662 -0.2417
 1446BOLB   C2D34702  14.316  11.889   8.015  0.0891 -0.0417 -0.2007
 1446BOLB   C3D34703  14.136  11.961   8.298  0.1688 -0.5154 -0.2475
 1446BOLB   C4D34704  13.939  12.095   8.705 -0.1707 -0.4425  0.0259
 1447BOLB   NC134705  14.552  16.511  10.425  0.3329 -0.1264  0.0743
 1447BOLB   PO134706  14.506  16.301  10.051 -0.1001 -0.1798 -0.3002
 1447BOLB   GL134707  14.629  16.231   9.567  0.0803  0.0254 -0.2517
 1447BOLB   GL234708  14.371  16.430   9.411  0.4391  0.3625 -0.0401
 1447BOLB   C1A34709  14.837  16.488   9.233  0.0280 -0.2133  0.1258
 1447BOLB   C2A34710  14.810  16.332   8.823  0.2750  0.2068  0.5491
 1447BOLB   C3A34711  14.599  16.208   8.502 -0.2485 -0.1064  0.1335
 1447BOLB   C4A34712  14.448  15.981   8.144 -0.2973 -0.2486 -0.0672
 1447BOLB   C1B34713  14.324  16.127   8.990 -0.3135 -0.1436 -0.0646
 1447BOLB   C2B34714  14.008  16.015   8.801 -0.1636  0.5312 -0.1183
 1447BOLB   C3B34715  14.061  16.168   8.420 -0.2162  0.1513  0.0255
 1447BOLB   C4B34716  14.047  16.269   8.037 -0.0605  0.0141  0.0885
 1447BOLB   NC234717  15.228  16.350   5.711 -0.0703 -0.2672 -0.2199
 1447BOLB   PO234718  15.635  16.253   5.710 -0.0290 -0.2297  0.0989
 1447BOLB   GL334719  15.444  16.449   6.185  0.0918  0.1999 -0.2366
 1447BOLB   GL434720  15.648  16.374   6.442 -0.1434  0.0401 -0.1068
 1447BOLB   C1C34721  15.138  16.402   6.577  0.3375 -0.2584 -0.0524
 1447BOLB   C2C34722  15.155  16.465   7.114  0.3184  0.2306 -0.0860
 1447BOLB   C3C34723  14.838  16.388   7.504 -0.0023 -0.0850  0.1360
 1447BOLB   C4C34724  14.543  16.216   7.829  0.5091  0.4111  0.0978
 1447BOLB   C1D34725  15.865  16.491   6.838 -0.0691  0.1484  0.0116
 1447BOLB   C2D34726  15.940  16.440   7.304 -0.1455  0.0456  0.4194
 1447BOLB   C3D34727  16.278  16.484   7.660  0.2220 -0.0599  0.2444
 1447BOLB   C4D34728  16.321  16.714   8.009  0.1237 -0.1822  0.1687
 1448BOLB   NC134729  20.232  16.931  10.544  0.2253  0.0900  0.0787
 1448BOLB   PO134730  19.906  17.192  10.391 -0.0959 -0.1416  0.1522
 1448BOLB   GL134731  20.295  17.168  10.130 -0.0092 -0.0010  0.1881
 1448BOLB   GL234732  20.181  16.866   9.988  0.0700  0.0918 -0.2235
 1448BOLB   C1A34733  20.452  17.436   9.813 -0.2052 -0.0955  0.1659
 1448BOLB   C2A34734  20.729  17.530   9.536 -0.1535  0.1069 -0.0471
 1448BOLB   C3A34735  20.768  17.765   9.191  0.3881 -0.1296  0.0417
 1448BOLB   C4A34736  20.778  18.012   8.819  0.1670  0.2193  0.0866
 1448BOLB   C1B34737  20.530  16.645   9.690  0.0472 -0.0336 -0.2179
 1448BOLB   C2B34738  20.797  16.402   9.314  0.6096  0.1161  0.1493
 1448BOLB   C3B34739  20.751  16.184   9.001  0.3097 -0.2123 -0.1165
 1448BOLB   C4B34740  20.417  15.701   8.792  0.0380  0.4078  0.1279
 1448BOLB   NC234741  21.032  17.724   6.128  0.1283 -0.0095  0.0643
 1448BOLB   PO234742  20.832  17.967   6.541  0.2130 -0.0118  0.2901
 1448BOLB   GL334743  20.806  18.034   7.042  0.0785  0.4643  0.1495
 1448BOLB   GL434744  21.060  17.862   7.266  0.0249  0.0275 -0.2647
 1448BOLB   C1C34745  20.805  18.243   7.402 -0.0348 -0.2126 -0.2210
 1448BOLB   C2C34746  20.908  18.119   7.855  0.1322 -0.3298  0.1697
 1448BOLB   C3C34747  20.693  18.107   8.107 -0.1357  0.4820 -0.0835
 1448BOLB   C4C34748  20.696  18.177   8.490 -0.1416 -0.1170  0.1342
 1448BOLB   C1D34749  20.938  17.501   7.366  0.1425  0.5180 -0.1182
 1448BOLB   C2D34750  20.657  17.227   7.750 -0.0611 -0.1481 -0.0816
 1448BOLB   C3D34751  20.366  16.906   7.881  0.1065 -0.0383 -0.0329
 1448BOLB   C4D34752  20.185  16.838   8.232  0.1726 -0.0348  0.1931
 1449BOLB   NC134753  20.590  15.755  10.928  0.2118 -0.0937  0.3110
 1449BOLB   PO134754  20.166  15.530  10.804 -0.0208  0.0375 -0.3442
 1449BOLB   GL134755  20.387  15.142  10.529 -0.0249  0.0267 -0.1333
 1449BOLB   GL234756  20.129  15.006  10.234 -0.0885 -0.0867  0.0323
 1449BOLB   C1A34757  20.622  14.950  10.131  0.0973 -0.1945 -0.0229
 1449BOLB   C2A34758  20.592  14.760   9.692 -0.2686  0.0851 -0.0023
 1449BOLB   C3A34759  20.529  14.751   9.214  0.3215  0.0264  0.0534
 1449BOLB   C4A34760  20.715  14.683   8.839  0.1108  0.1805 -0.1891
 1449BOLB   C1B34761  20.094  14.986   9.901 -0.0698  0.0115 -0.0677
 1449BOLB   C2B34762  20.233  15.095   9.391 -0.1768  0.0659 -0.2619
 1449BOLB   C3B34763  20.351  15.297   9.046  0.2049 -0.1638 -0.1557
 1449BOLB   C4B34764  20.433  15.131   8.622 -0.0432  0.0915  0.1456
 1449BOLB   NC234765  20.942  15.170   6.412 -0.3886  0.1877 -0.0560
 1449BOLB   PO234766  20.821  14.835   6.589  0.0790  0.2748 -0.0156
 1449BOLB   GL334767  20.514  14.844   6.904 -0.0160 -0.1682  0.1209
 1449BOLB   GL434768  20.318  14.514   6.902  0.2836  0.2481 -0.3864
 1449BOLB   C1C34769  20.420  15.017   7.304 -0.0100  0.0245 -0.0080
 1449BOLB   C2C34770  20.383  14.956   7.748 -0.1197  0.4418  0.3155
 1449BOLB   C3C34771  20.381  14.823   8.158  0.2037  0.2216  0.0776
 1449BOLB   C4C34772  20.588  14.655   8.512  0.0846  0.0612  0.0191
 1449BOLB   C1D34773  19.852  14.483   7.072  0.1323 -0.1580 -0.0304
 1449BOLB   C2D34774  19.703  14.423   7.468 -0.2517  0.1289  0.2489
 1449BOLB   C3D34775  19.440  14.479   7.820  0.1617  0.1811 -0.1363
 1449BOLB   C4D34776  19.143  14.612   8.116  0.0252  0.2945  0.0827
 1450BOLB   NC134777  18.892  22.912  12.429 -0.0443 -0.1546  0.0213
 1450BOLB   PO134778  19.309  22.919  12.285 -0.0196 -0.0518  0.1860
 1450BOLB   GL134779  19.231  23.201  11.892 -0.1185 -0.0491  0.1891
 1450BOLB   GL234780  19.411  23.464  12.071  0.4033  0.0002 -0.2195
 1450BOLB   C1A34781  19.071  23.327  11.494 -0.0196  0.2289  0.0116
 1450BOLB   C2A34782  18.782  23.405  11.375  0.2085 -0.0344 -0.1578
 1450BOLB   C3A34783  18.584  23.575  10.972 -0.0171 -0.2776  0.1360
 1450BOLB   C4A34784  18.488  23.962  10.745  0.1427  0.3065  0.2426
 1450BOLB   C1B34785  19.297  23.866  12.106 -0.1402  0.0641 -0.0807
 1450BOLB   C2B34786  19.286  24.181  11.815 -0.1201  0.1243 -0.2898
 1450BOLB   C3B34787  19.119  24.535  11.717  0.2334 -0.2443  0.1543
 1450BOLB   C4B34788  19.247  24.827  11.705  0.0738  0.3047 -0.0396
 1450BOLB   NC234789  18.902  25.615   9.709 -0.0014 -0.0318  0.2648
 1450BOLB   PO234790  18.619  25.985   9.919 -0.1204  0.0351 -0.0570
 1450BOLB   GL334791  18.435  25.769  10.269  0.1539  0.1981 -0.0607
 1450BOLB   GL434792  18.182  25.920  10.461 -0.1781 -0.0273 -0.0489
 1450BOLB   C1C34793  18.671  25.438  10.559 -0.0091 -0.0995 -0.0158
 1450BOLB   C2C34794  18.798  24.986  10.506 -0.2026 -0.1809  0.0824
 1450BOLB   C3C34795  18.874  24.727  10.754 -0.0970 -0.2525 -0.0297
 1450BOLB   C4C34796  18.699  24.355  10.876 -0.1834 -0.1409 -0.1757
 1450BOLB   C1D34797  18.245  25.784  10.901 -0.0234  0.0377  0.0294
 1450BOLB   C2D34798  18.087  25.513  11.161  0.2640 -0.0739  0.1879
 1450BOLB   C3D34799  17.824  25.211  11.262 -0.1783 -0.1632  0.0126
 1450BOLB   C4D34800  17.588  24.793  11.244 -0.0227 -0.0905 -0.4316
 1451BOLB   NC134801  18.505  19.420  10.368 -0.2713  0.1679  0.4328
 1451BOLB   PO134802  18.400  19.656  10.647 -0.1774  0.3223  0.1330
 1451BOLB   GL134803  18.291  19.930  10.331  0.0229  0.0624 -0.0146
 1451BOLB   GL234804  18.415  20.208  10.432 -0.0148  0.2396 -0.2026
 1451BOLB   C1A34805  18.223  20.034   9.955  0.2079 -0.1914 -0.0215
 1451BOLB   C2A34806  18.389  20.177   9.672 -0.0728  0.1588  0.0600
 1451BOLB   C3A34807  18.530  20.394   9.211 -0.0658  0.1829  0.3208
 1451BOLB   C4A34808  18.864  20.244   8.949 -0.1277  0.2912  0.1534
 1451BOLB   C1B34809  18.617  20.391  10.034 -0.0870  0.1832  0.2365
 1451BOLB   C2B34810  18.834  20.499   9.612 -0.0471  0.0501 -0.0398
 1451BOLB   C3B34811  18.904  20.730   9.237  0.4379  0.0335 -0.2656
 1451BOLB   C4B34812  18.704  20.833   8.926  0.1760  0.0403  0.0957
 1451BOLB   NC234813  19.597  20.386   6.781 -0.0515  0.0067 -0.0278
 1451BOLB   PO234814  20.050  20.085   6.906 -0.1341 -0.3170 -0.3873
 1451BOLB   GL334815  19.721  20.256   7.287 -0.0353  0.2814  0.2304
 1451BOLB   GL434816  19.536  20.077   7.330 -0.0045 -0.1547  0.1082
 1451BOLB   C1C34817  19.452  20.495   7.659 -0.1020  0.0569  0.0730
 1451BOLB   C2C34818  19.515  20.785   8.060  0.0123 -0.0845  0.1798
 1451BOLB   C3C34819  19.455  20.853   8.482  0.0242  0.0893  0.0454
 1451BOLB   C4C34820  19.095  20.646   8.681  0.3220 -0.0306 -0.0368
 1451BOLB   C1D34821  19.539  19.836   7.706  0.0121 -0.0112 -0.3348
 1451BOLB   C2D34822  19.809  19.605   7.956 -0.2737 -0.0196  0.0485
 1451BOLB   C3D34823  20.095  19.437   8.321 -0.4116  0.1624  0.4117
 1451BOLB   C4D34824  20.495  19.347   8.509 -0.1817  0.2502  0.2363
 1452BOLB   NC134825  12.243  18.167  10.021 -0.2264  0.1120 -0.2785
 1452BOLB   PO134826  12.621  18.260  10.169 -0.0827  0.0831  0.0344
 1452BOLB   GL134827  12.649  18.403   9.660 -0.0611 -0.2001  0.0144
 1452BOLB   GL234828  12.661  18.746   9.637 -0.3094  0.1166 -0.1978
 1452BOLB   C1A34829  12.291  18.383   9.318 -0.0653  0.1604 -0.2406
 1452BOLB   C2A34830  12.263  18.471   8.896  0.2083 -0.1041 -0.0808
 1452BOLB   C3A34831  12.360  18.300   8.527  0.0522  0.2192  0.2927
 1452BOLB   C4A34832  12.495  18.180   8.038 -0.4938  0.1844  0.3089
 1452BOLB   C1B34833  12.332  18.904   9.332 -0.0851 -0.1461 -0.2541
 1452BOLB   C2B34834  12.312  18.979   8.925  0.4508 -0.0218 -0.1458
 1452BOLB   C3B34835  12.391  18.791   8.557 -0.2298 -0.0071 -0.1217
 1452BOLB   C4B34836  12.208  18.611   8.129  0.0734  0.2622 -0.1506
 1452BOLB   NC234837  13.137  18.668   5.866 -0.1180 -0.5125 -0.1509
 1452BOLB   PO234838  13.040  18.990   6.179 -0.0488 -0.2247  0.1724
 1452BOLB   GL334839  13.096  19.237   6.497 -0.2568 -0.0877  0.1754
 1452BOLB   GL434840  12.851  19.508   6.584 -0.2653 -0.0573  0.3486
 1452BOLB   C1C34841  13.146  19.247   7.006 -0.0015 -0.0589  0.3063
 1452BOLB   C2C34842  13.029  19.211   7.456 -0.0966  0.2637  0.2562
 1452BOLB   C3C34843  12.677  18.863   7.602 -0.0306 -0.1627  0.2673
 1452BOLB   C4C34844  12.645  18.470   7.711 -0.0863  0.2252  0.3184
 1452BOLB   C1D34845  13.170  19.896   6.750 -0.1181 -0.1717 -0.2182
 1452BOLB   C2D34846  13.333  19.839   7.241 -0.4152 -0.2214 -0.1563
 1452BOLB   C3D34847  13.139  20.047   7.587 -0.0787  0.3294 -0.2592
 1452BOLB   C4D34848  12.725  20.220   7.736  0.0521 -0.0859 -0.2274
 1453BOLB   NC134849  11.898   9.956  11.837 -0.1078 -0.1162 -0.0091
 1453BOLB   PO134850  12.012  10.319  11.539  0.0812  0.1566  0.0272
 1453BOLB   GL134851  11.935  10.277  11.165 -0.0048  0.0453 -0.2257
 1453BOLB   GL234852  12.163  10.261  10.871 -0.1140 -0.2151 -0.1299
 1453BOLB   C1A34853  11.833   9.844  10.875 -0.0607 -0.1531 -0.0284
 1453BOLB   C2A34854  11.840   9.572  10.552  0.0293  0.0202 -0.2395
 1453BOLB   C3A34855  11.608   9.240  10.360 -0.1204 -0.0593 -0.1543
 1453BOLB   C4A34856  11.777   9.046   9.909 -0.0538  0.1650  0.0807
 1453BOLB   C1B34857  12.389  10.050  10.564  0.1006  0.2300  0.0944
 1453BOLB   C2B34858  12.359   9.672  10.315 -0.1330  0.0779  0.1997
 1453BOLB   C3B34859  12.187   9.541   9.915 -0.0426  0.0216 -0.0857
 1453BOLB   C4B34860  12.124   9.961   9.541 -0.0986 -0.3434 -0.3325
 1453BOLB   NC234861  13.020   7.732   8.136  0.1204  0.0124  0.4225
 1453BOLB   PO234862  12.748   7.991   7.990 -0.1410  0.0928  0.0150
 1453BOLB   GL334863  12.632   8.083   8.378  0.0221 -0.1158  0.2573
 1453BOLB   GL434864  12.798   7.974   8.636 -0.0760 -0.2363  0.1096
 1453BOLB   C1C34865  12.597   8.433   8.610  0.0576 -0.0033  0.0631
 1453BOLB   C2C34866  12.433   8.605   8.946  0.0645  0.1095 -0.0856
 1453BOLB   C3C34867  12.075   8.595   9.267 -0.2763  0.1821  0.1655
 1453BOLB   C4C34868  11.887   8.736   9.690 -0.1321  0.0529 -0.1846
 1453BOLB   C1D34869  12.542   8.109   8.968  0.0452 -0.1060  0.0643
 1453BOLB   C2D34870  12.244   8.169   9.356  0.0863  0.1108 -0.0945
 1453BOLB   C3D34871  12.131   8.330   9.743  0.4238  0.1446 -0.2019
 1453BOLB   C4D34872  12.212   8.708  10.081  0.0191 -0.2672  0.1660
 1454BOLB   NC134873  21.312  14.367  13.122 -0.0027  0.0279  0.2511
 1454BOLB   PO134874  21.479  14.360  12.628  0.5646  0.0788  0.0090
 1454BOLB   GL134875  21.849  14.354  12.433 -0.0200  0.0678  0.0805
 1454BOLB   GL234876  22.026  14.074  12.669 -0.2953  0.3624 -0.1903
 1454BOLB   C1A34877  21.985  14.038  12.186 -0.1147 -0.3793 -0.2337
 1454BOLB   C2A34878  22.142  13.764  11.842  0.1461 -0.1128  0.0642
 1454BOLB   C3A34879  22.124  13.848  11.375  0.0871 -0.0619  0.1354
 1454BOLB   C4A34880  22.092  13.698  10.813 -0.0435 -0.3798 -0.4293
 1454BOLB   C1B34881  22.277  13.775  12.489 -0.1771 -0.2356  0.1077
 1454BOLB   C2B34882  22.458  13.558  12.168  0.4954 -0.0430  0.0807
 1454BOLB   C3B34883  22.682  13.347  11.855 -0.1394  0.1133  0.3134
 1454BOLB   C4B34884  23.063  13.133  11.624  0.0441  0.0647 -0.0051
 1454BOLB   NC234885  22.269  12.451   8.514  0.0465  0.0726  0.2899
 1454BOLB   PO234886  22.616  12.658   8.570  0.0110  0.1098  0.0792
 1454BOLB   GL334887  22.507  12.835   8.962  0.0340 -0.0083  0.4018
 1454BOLB   GL434888  22.705  12.921   9.212 -0.1289 -0.1988  0.3967
 1454BOLB   C1C34889  22.197  12.924   9.332  0.1099  0.0717  0.1629
 1454BOLB   C2C34890  21.995  13.182   9.587 -0.1081 -0.1857  0.1791
 1454BOLB   C3C34891  21.786  13.358   9.961 -0.1568 -0.0292 -0.1316
 1454BOLB   C4C34892  21.928  13.418  10.450  0.0285 -0.2579 -0.3484
 1454BOLB   C1D34893  22.531  13.201   9.613  0.1967  0.0721 -0.0646
 1454BOLB   C2D34894  22.731  13.153  10.026 -0.2280  0.0116  0.1158
 1454BOLB   C3D34895  22.764  13.017  10.418  0.0134  0.2011 -0.0896
 1454BOLB   C4D34896  22.793  13.144  10.815 -0.1082  0.1135 -0.4194
 1455BOLB   NC134897  17.588  21.122  11.045  0.1798  0.1900  0.2528
 1455BOLB   PO134898  17.925  20.880  11.140 -0.0318  0.0530  0.1030
 1455BOLB   GL134899  18.061  20.940  10.736  0.0382  0.4146  0.0707
 1455BOLB   GL234900  18.351  20.670  10.700 -0.0410 -0.0256  0.0319
 1455BOLB   C1A34901  18.250  21.050  10.388 -0.2433 -0.2771 -0.2547
 1455BOLB   C2A34902  17.998  21.153   9.949  0.1007  0.0885  0.2127
 1455BOLB   C3A34903  17.869  21.519   9.622 -0.1255  0.1482 -0.3415
 1455BOLB   C4A34904  17.955  21.889   9.480 -0.2061 -0.2004  0.0108
 1455BOLB   C1B34905  18.266  20.616  10.223  0.2742 -0.3412  0.0075
 1455BOLB   C2B34906  18.087  20.550   9.845 -0.5170 -0.0813 -0.0730
 1455BOLB   C3B34907  17.930  20.949   9.544 -0.2374  0.0098  0.1685
 1455BOLB   C4B34908  17.958  21.338   9.194  0.0200  0.2935 -0.3273
 1455BOLB   NC234909  19.309  22.524   7.563  0.0185 -0.0292  0.0633
 1455BOLB   PO234910  18.864  22.399   7.624 -0.0360 -0.1565  0.3172
 1455BOLB   GL334911  18.743  22.109   7.900  0.1250  0.1539 -0.3552
 1455BOLB   GL434912  18.388  21.887   7.824  0.1611  0.1970  0.0397
 1455BOLB   C1C34913  18.855  21.915   8.333  0.0289 -0.0089 -0.1959
 1455BOLB   C2C34914  18.720  22.096   8.680  0.0552  0.1267  0.0411
 1455BOLB   C3C34915  18.597  22.289   8.981 -0.1612 -0.2342  0.3482
 1455BOLB   C4C34916  18.221  22.201   9.282  0.1091  0.0250 -0.1735
 1455BOLB   C1D34917  18.570  21.537   7.986 -0.1231  0.1267 -0.2121
 1455BOLB   C2D34918  18.545  21.112   8.144 -0.3816 -0.1115 -0.1677
 1455BOLB   C3D34919  18.704  20.780   8.357  0.2489 -0.0473 -0.2111
 1455BOLB   C4D34920  18.778  20.285   8.411 -0.0569  0.0539 -0.0763
 1456BOLB   NC134921  22.300  17.858  11.716  0.1739  0.0405 -0.2319
 1456BOLB   PO134922  22.198  18.275  11.799  0.0060  0.0233  0.1434
 1456BOLB   GL134923  22.442  18.222  11.394 -0.4296  0.2259 -0.2686
 1456BOLB   GL234924  22.589  17.894  11.277 -0.0325  0.0515  0.0323
 1456BOLB   C1A34925  22.764  18.454  11.269  0.1192  0.1466 -0.1344
 1456BOLB   C2A34926  23.097  18.346  11.053 -0.0744 -0.0621 -0.2084
 1456BOLB   C3A34927  23.281  18.175  10.633  0.2726  0.0253  0.1215
 1456BOLB   C4A34928  23.029  18.104  10.103 -0.1728  0.1987 -0.2036
 1456BOLB   C1B34929  22.881  17.694  10.975  0.0215  0.0929 -0.5285
 1456BOLB   C2B34930  23.253  17.547  10.874  0.2537 -0.0811 -0.1869
 1456BOLB   C3B34931  23.457  17.406  10.548 -0.2623 -0.1770  0.1734
 1456BOLB   C4B34932  23.643  17.310  10.123 -0.1308  0.0421  0.1553
 1456BOLB   NC234933  24.647  17.334   8.501 -0.2003 -0.0269  0.0921
 1456BOLB   PO234934  24.470  17.641   8.424  0.1194  0.0699 -0.0194
 1456BOLB   GL334935  24.098  17.383   8.529  0.1712 -0.0722  0.0904
 1456BOLB   GL434936  23.846  17.211   8.316 -0.0326  0.0410 -0.0961
 1456BOLB   C1C34937  23.876  17.360   8.881  0.0360 -0.0516  0.1424
 1456BOLB   C2C34938  23.665  17.704   9.202 -0.1279 -0.0494  0.2102
 1456BOLB   C3C34939  23.606  18.118   9.450  0.2181 -0.0197  0.1255
 1456BOLB   C4C34940  23.234  18.134   9.754 -0.1575 -0.1696 -0.0386
 1456BOLB   C1D34941  23.596  17.011   8.622 -0.0406 -0.3920 -0.2402
 1456BOLB   C2D34942  23.434  17.120   9.114 -0.1489  0.0115  0.0080
 1456BOLB   C3D34943  23.632  17.324   9.529 -0.1665 -0.0228  0.2677
 1456BOLB   C4D34944  23.460  17.685   9.636 -0.1799 -0.1426 -0.4251
 1457BOLB   NC134945  19.261  20.297  10.797  0.0506  0.3175 -0.2756
 1457BOLB   PO134946  19.277  19.852  10.593  0.1467  0.2699 -0.4561
 1457BOLB   GL134947  19.231  20.220  10.287  0.0039  0.0789  0.2084
 1457BOLB   GL234948  19.058  20.369  10.349 -0.0188  0.1430  0.0806
 1457BOLB   C1A34949  19.270  20.255   9.841 -0.1035  0.5220 -0.1100
 1457BOLB   C2A34950  19.246  20.314   9.434 -0.0380 -0.1413 -0.0636
 1457BOLB   C3A34951  19.434  20.355   9.072  0.0993 -0.1622  0.0784
 1457BOLB   C4A34952  19.810  20.705   8.952  0.1096  0.0909 -0.1992
 1457BOLB   C1B34953  19.109  20.684  10.093  0.1198  0.2311 -0.4004
 1457BOLB   C2B34954  18.995  20.886   9.745 -0.0359  0.0084 -0.0679
 1457BOLB   C3B34955  18.841  21.219   9.421  0.3951  0.1903  0.0175
 1457BOLB   C4B34956  18.980  21.300   8.987 -0.3614 -0.0035  0.2336
 1457BOLB   NC234957  20.663  19.292   7.221 -0.0626  0.0532  0.0697
 1457BOLB   PO234958  20.265  19.283   7.122  0.0329 -0.2144 -0.2025
 1457BOLB   GL334959  20.259  19.444   7.514 -0.0533 -0.2808  0.1152
 1457BOLB   GL434960  20.161  19.216   7.625  0.1372 -0.1028  0.2553
 1457BOLB   C1C34961  20.367  19.562   7.954 -0.4427  0.2538 -0.1356
 1457BOLB   C2C34962  20.504  19.835   8.335  0.2247  0.2903  0.0791
 1457BOLB   C3C34963  20.301  20.260   8.494 -0.0820  0.1130 -0.1114
 1457BOLB   C4C34964  20.235  20.653   8.752 -0.1721  0.0624 -0.0945
 1457BOLB   C1D34965  19.906  18.725   7.538  0.0267 -0.1039  0.1399
 1457BOLB   C2D34966  20.020  18.454   7.249  0.2244 -0.1728  0.0449
 1457BOLB   C3D34967  20.123  18.013   7.134 -0.0298 -0.1064  0.2920
 1457BOLB   C4D34968  19.731  17.679   7.187 -0.1684  0.0895  0.0594
 1458BOLB   NC134969  12.912  23.911  13.486 -0.0931 -0.2607 -0.1415
 1458BOLB   PO134970  13.106  24.256  13.240  0.1976  0.2374 -0.2394
 1458BOLB   GL134971  13.043  24.443  12.868  0.2771  0.0909  0.0997
 1458BOLB   GL234972  12.838  24.409  12.589 -0.1306 -0.2593  0.0075
 1458BOLB   C1A34973  13.288  24.681  12.422  0.3141 -0.2277 -0.0697
 1458BOLB   C2A34974  13.432  24.763  11.949  0.0119 -0.0857 -0.2489
 1458BOLB   C3A34975  13.484  24.992  11.507 -0.0837  0.2978  0.1890
 1458BOLB   C4A34976  13.641  25.383  11.381  0.0128  0.0541 -0.2281
 1458BOLB   C1B34977  12.679  24.368  12.214 -0.0341  0.1566  0.0985
 1458BOLB   C2B34978  12.794  24.574  11.905  0.0831  0.3959 -0.1126
 1458BOLB   C3B34979  13.049  24.645  11.527  0.4650 -0.1326  0.2437
 1458BOLB   C4B34980  13.255  24.751  11.082 -0.1133  0.0158 -0.0546
 1458BOLB   NC234981  13.204  27.958  10.524  0.0019 -0.0133  0.3091
 1458BOLB   PO234982  13.292  27.775  10.821  0.1418  0.2202 -0.1881
 1458BOLB   GL334983  13.329  27.336  10.939  0.0769  0.0347 -0.0851
 1458BOLB   GL434984  13.487  27.381  11.264  0.0989 -0.0920  0.2812
 1458BOLB   C1C34985  13.337  26.997  10.846  0.0407  0.1375  0.1210
 1458BOLB   C2C34986  13.442  26.561  10.849  0.2100  0.1023  0.3991
 1458BOLB   C3C34987  13.524  26.138  10.985 -0.3982 -0.4156  0.1114
 1458BOLB   C4C34988  13.481  25.708  11.064  0.0192 -0.1013 -0.1835
 1458BOLB   C1D34989  13.705  27.038  11.448  0.0087 -0.0214 -0.1696
 1458BOLB   C2D34990  13.789  26.720  11.719 -0.1162  0.0672 -0.1880
 1458BOLB   C3D34991  13.694  26.369  11.992 -0.0792  0.2872 -0.1120
 1458BOLB   C4D34992  13.833  26.363  12.523  0.2287  0.1217 -0.0325
 1459BOLB   NC134993  10.816  15.380  10.382 -0.0303 -0.2026 -0.4192
 1459BOLB   PO134994  10.378  15.351  10.423 -0.1418 -0.2700  0.0961
 1459BOLB   GL134995  10.422  15.193   9.964  0.0366  0.0596  0.0238
 1459BOLB   GL234996  10.623  15.019   9.779 -0.0941 -0.1078  0.0363
 1459BOLB   C1A34997  10.187  15.229   9.498 -0.1086 -0.1546 -0.0470
 1459BOLB   C2A34998  10.315  15.022   9.152  0.1163  0.1087 -0.3514
 1459BOLB   C3A34999  10.452  15.137   8.627 -0.0925 -0.0660 -0.1803
 1459BOLB   C4A35000  10.309  15.225   8.126  0.2746  0.2548  0.4029
 1459BOLB   C1B35001  10.366  14.731   9.735  0.3044 -0.3582 -0.0888
 1459BOLB   C2B35002  10.099  14.576   9.458  0.1878 -0.0576  0.0370
 1459BOLB   C3B35003  10.079  14.553   8.971  0.1687 -0.2596  0.1698
 1459BOLB   C4B35004   9.950  14.476   8.622  0.2995  0.1670  0.4702
 1459BOLB   NC235005  10.396  15.613   6.302  0.0615  0.0304  0.2797
 1459BOLB   PO235006  10.481  16.022   6.040  0.1688 -0.0425 -0.3177
 1459BOLB   GL335007  10.294  16.160   6.518 -0.1247  0.0159  0.2639
 1459BOLB   GL435008  10.483  16.078   6.723  0.0114  0.1252  0.0232
 1459BOLB   C1C35009  10.028  16.279   6.918 -0.0610  0.1272 -0.1029
 1459BOLB   C2C35010  10.054  16.055   7.327 -0.1832 -0.2668  0.0659
 1459BOLB   C3C35011  10.258  15.877   7.595 -0.2044  0.0381 -0.2343
 1459BOLB   C4C35012  10.285  15.651   7.859 -0.1103 -0.0412 -0.1971
 1459BOLB   C1D35013  10.607  16.146   7.160 -0.1144 -0.1777 -0.3574
 1459BOLB   C2D35014  10.498  16.294   7.592  0.2421  0.0092  0.0195
 1459BOLB   C3D35015  10.607  16.719   7.633  0.0228  0.0760 -0.0218
 1459BOLB   C4D35016  10.815  17.082   7.597 -0.1486  0.2251 -0.0729
 1460BOLB   NC135017  15.882  16.962  10.295  0.1513  0.1627 -0.2427
 1460BOLB   PO135018  16.252  16.699  10.018  0.1119 -0.1271 -0.3589
 1460BOLB   GL135019  16.516  16.780   9.664  0.0260  0.1142 -0.0470
 1460BOLB   GL235020  16.637  16.617   9.557 -0.2613 -0.0415  0.2012
 1460BOLB   C1A35021  16.343  16.752   9.234  0.1566  0.0225 -0.0034
 1460BOLB   C2A35022  16.233  16.598   8.879  0.1345 -0.1594  0.0192
 1460BOLB   C3A35023  16.107  16.675   8.467 -0.4477 -0.3139 -0.1761
 1460BOLB   C4A35024  15.887  16.928   8.148  0.0809  0.3294  0.1503
 1460BOLB   C1B35025  16.759  16.517   9.170 -0.2582  0.2926 -0.1185
 1460BOLB   C2B35026  16.826  16.414   8.813 -0.2937  0.2944 -0.0982
 1460BOLB   C3B35027  17.139  16.614   8.558 -0.1063  0.0682  0.1877
 1460BOLB   C4B35028  17.428  16.779   8.290  0.1043  0.0630 -0.0758
 1460BOLB   NC235029  16.555  16.649   6.006  0.2396  0.1612 -0.0156
 1460BOLB   PO235030  16.231  16.847   5.743 -0.4591  0.0662  0.1659
 1460BOLB   GL335031  16.042  16.865   6.160  0.0378 -0.0843  0.3734
 1460BOLB   GL435032  16.128  16.557   6.378 -0.1161  0.0015 -0.1589
 1460BOLB   C1C35033  16.035  17.041   6.562  0.1856 -0.2343  0.1363
 1460BOLB   C2C35034  16.159  16.910   6.949  0.2618  0.5708  0.0087
 1460BOLB   C3C35035  16.213  16.889   7.392 -0.2233  0.1288 -0.2107
 1460BOLB   C4C35036  15.960  16.933   7.753 -0.4242 -0.0868 -0.2448
 1460BOLB   C1D35037  16.371  16.537   6.722  0.0740  0.0783  0.1697
 1460BOLB   C2D35038  16.423  16.507   7.162  0.0069  0.0316  0.2102
 1460BOLB   C3D35039  16.666  16.736   7.457 -0.0490 -0.0959 -0.1197
 1460BOLB   C4D35040  16.766  16.714   7.793  0.0318  0.0060 -0.1832
 1461BOLB   NC135041  12.447  23.165  12.112  0.0741  0.3028 -0.0005
 1461BOLB   PO135042  11.993  23.351  12.049 -0.1849  0.4072 -0.1140
 1461BOLB   GL135043  11.686  23.440  11.743  0.0818 -0.2178 -0.2826
 1461BOLB   GL235044  11.540  23.257  11.412 -0.3764 -0.0890  0.0395
 1461BOLB   C1A35045  11.708  23.695  11.351  0.1770 -0.3007  0.3824
 1461BOLB   C2A35046  11.511  23.849  10.952  0.1792 -0.2381 -0.3231
 1461BOLB   C3A35047  11.539  24.317  10.882  0.3228  0.0331 -0.2490
 1461BOLB   C4A35048  11.548  24.503  10.363  0.0034 -0.2051 -0.0562
 1461BOLB   C1B35049  11.561  23.296  10.983  0.4068 -0.2166 -0.0929
 1461BOLB   C2B35050  11.372  23.384  10.590 -0.2094  0.0093  0.1095
 1461BOLB   C3B35051  11.208  23.332  10.225 -0.0215  0.1502  0.0614
 1461BOLB   C4B35052  10.977  23.524   9.853  0.2661 -0.2195 -0.0869
 1461BOLB   NC235053  12.333  27.064   9.255 -0.2453 -0.1543 -0.0038
 1461BOLB   PO235054  12.291  26.878   9.541  0.2033  0.2885  0.2871
 1461BOLB   GL335055  12.292  26.462   9.524 -0.2085  0.0739  0.2853
 1461BOLB   GL435056  12.446  26.369   9.640  0.3027  0.0707 -0.1596
 1461BOLB   C1C35057  12.017  26.049   9.494 -0.1466 -0.2565  0.0201
 1461BOLB   C2C35058  11.894  25.585   9.611 -0.2960  0.0240 -0.0495
 1461BOLB   C3C35059  11.808  25.229   9.782 -0.0884 -0.2519  0.0432
 1461BOLB   C4C35060  11.659  24.957  10.130  0.0753 -0.0673 -0.0116
 1461BOLB   C1D35061  12.501  25.986   9.838  0.0505  0.0198  0.1475
 1461BOLB   C2D35062  12.464  25.584  10.112  0.4865 -0.0105  0.2778
 1461BOLB   C3D35063  12.535  25.443  10.402  0.1377 -0.1745  0.3489
 1461BOLB   C4D35064  12.625  25.733  10.706 -0.1488  0.4412 -0.0710
 1462BOLB   NC135065  11.165  11.156  11.634  0.3952 -0.0396  0.1778
 1462BOLB   PO135066  10.951  11.433  11.363  0.2652  0.1238  0.2780
 1462BOLB   GL135067  10.664  11.266  11.003  0.4546 -0.2152 -0.0133
 1462BOLB   GL235068  10.402  11.261  10.817 -0.0963 -0.2222 -0.2538
 1462BOLB   C1A35069  10.786  10.899  10.723  0.1109 -0.2886  0.0451
 1462BOLB   C2A35070  10.833  10.548  10.440 -0.2220 -0.2652 -0.2795
 1462BOLB   C3A35071  10.779  10.266  10.163  0.1599 -0.2345 -0.0220
 1462BOLB   C4A35072  10.958  10.253   9.721 -0.2858 -0.1767 -0.3026
 1462BOLB   C1B35073  10.399  10.984  10.452  0.3447 -0.0446  0.0501
 1462BOLB   C2B35074  10.421  10.654  10.074  0.1859 -0.1552  0.4123
 1462BOLB   C3B35075  10.512  10.449   9.724 -0.0860 -0.0733 -0.0138
 1462BOLB   C4B35076  10.548   9.951   9.715 -0.2741 -0.0612  0.1411
 1462BOLB   NC235077   9.632  10.752   7.523 -0.0078 -0.0563 -0.0905
 1462BOLB   PO235078  10.063  10.572   7.568 -0.0409  0.0527 -0.2053
 1462BOLB   GL335079  10.270  10.663   7.872 -0.0617  0.0080 -0.1398
 1462BOLB   GL435080  10.309  10.948   7.918 -0.4707  0.0567  0.0526
 1462BOLB   C1C35081  10.464  10.583   8.222  0.1520  0.1290  0.2401
 1462BOLB   C2C35082  10.760  10.534   8.624  0.3656 -0.1637  0.0919
 1462BOLB   C3C35083  11.021  10.597   9.020  0.0906  0.2251 -0.1703
 1462BOLB   C4C35084  11.183  10.277   9.280  0.0265  0.0062 -0.1975
 1462BOLB   C1D35085  10.143  10.901   8.405  0.1482  0.0298  0.0538
 1462BOLB   C2D35086   9.846  10.863   8.727 -0.0007  0.1376  0.0889
 1462BOLB   C3D35087   9.567  11.058   9.062  0.0154  0.0431  0.1689
 1462BOLB   C4D35088   9.115  11.241   9.201 -0.0649  0.1142 -0.1117
 1463BOLB   NC135089  13.043   9.153  12.658  0.2295  0.0768  0.1280
 1463BOLB   PO135090  13.117   9.463  12.418 -0.0403 -0.3005 -0.0234
 1463BOLB   GL135091  13.147   9.313  12.024 -0.3483 -0.1673 -0.1738
 1463BOLB   GL235092  13.199   9.535  11.788  0.3907  0.1184 -0.2562
 1463BOLB   C1A35093  13.222   8.975  11.776 -0.1826  0.3846  0.2514
 1463BOLB   C2A35094  13.339   8.625  11.382 -0.0279  0.0784  0.1084
 1463BOLB   C3A35095  13.350   8.481  11.089 -0.6123  0.1387  0.2310
 1463BOLB   C4A35096  13.238   8.408  10.733 -0.0011  0.0697 -0.2915
 1463BOLB   C1B35097  13.121   9.222  11.359 -0.2627  0.0537  0.3480
 1463BOLB   C2B35098  13.085   9.285  10.977  0.3052  0.0877  0.4380
 1463BOLB   C3B35099  13.179   9.301  10.574  0.1395  0.0306 -0.0394
 1463BOLB   C4B35100  13.069   8.979  10.261 -0.2230 -0.1716 -0.2049
 1463BOLB   NC235101  14.028   7.843   8.841 -0.2936  0.1730 -0.0361
 1463BOLB   PO235102  13.721   7.631   8.642  0.0213  0.0413 -0.0921
 1463BOLB   GL335103  13.467   7.730   9.005  0.0806 -0.1774  0.2344
 1463BOLB   GL435104  13.123   7.825   9.084 -0.1869  0.0035  0.1173
 1463BOLB   C1C35105  13.579   7.919   9.369 -0.1860  0.2806  0.2283
 1463BOLB   C2C35106  13.666   7.967   9.793 -0.3276 -0.0251 -0.2081
 1463BOLB   C3C35107  13.521   8.217  10.046  0.4156  0.2726  0.1185
 1463BOLB   C4C35108  13.258   8.495  10.370 -0.1260  0.2697 -0.0179
 1463BOLB   C1D35109  12.972   8.168   9.154  0.2314  0.1053  0.1161
 1463BOLB   C2D35110  12.745   8.489   9.345  0.0200  0.1431  0.1421
 1463BOLB   C3D35111  12.417   8.706   9.576 -0.0595 -0.2174  0.1156
 1463BOLB   C4D35112  12.199   9.101   9.677  0.1417  0.0140 -0.1152
 1464BOLB   NC135113  23.228  14.384  13.293  0.1699  0.2002  0.0550
 1464BOLB   PO135114  23.049  14.597  13.025  0.0044 -0.3025  0.2284
 1464BOLB   GL135115  23.232  14.358  12.752 -0.0777  0.0146  0.2327
 1464BOLB   GL235116  23.514  14.581  12.659 -0.1410 -0.1491 -0.1787
 1464BOLB   C1A35117  23.393  14.200  12.342 -0.0570 -0.2353 -0.2589
 1464BOLB   C2A35118  23.394  13.959  12.047  0.0871 -0.0377  0.0021
 1464BOLB   C3A35119  23.449  13.802  11.608  0.0510 -0.0544 -0.1371
 1464BOLB   C4A35120  23.531  13.908  11.235  0.2485  0.0001 -0.2315
 1464BOLB   C1B35121  23.947  14.336  12.501 -0.1579 -0.3238  0.1425
 1464BOLB   C2B35122  24.179  14.077  12.559 -0.1361  0.1936  0.1750
 1464BOLB   C3B35123  24.300  13.863  12.161  0.1427 -0.1029 -0.0251
 1464BOLB   C4B35124  24.362  13.852  11.713 -0.2760  0.0433 -0.2172
 1464BOLB   NC235125  23.493  12.937   8.715  0.2513  0.3166  0.0889
 1464BOLB   PO235126  23.733  12.861   9.159  0.3668 -0.2066 -0.2354
 1464BOLB   GL335127  23.701  13.257   9.371  0.2736  0.0829  0.3153
 1464BOLB   GL435128  23.424  13.352   9.615 -0.2568 -0.0584  0.2332
 1464BOLB   C1C35129  23.702  13.736   9.437  0.0900  0.0261 -0.1256
 1464BOLB   C2C35130  23.828  13.937   9.894 -0.1634 -0.1252 -0.0921
 1464BOLB   C3C35131  23.565  13.934  10.356  0.2993  0.2801  0.1314
 1464BOLB   C4C35132  23.539  14.029  10.837 -0.2671 -0.3266  0.0189
 1464BOLB   C1D35133  23.342  13.846   9.799  0.0620 -0.1186  0.3381
 1464BOLB   C2D35134  23.096  14.277   9.711  0.0248  0.1460 -0.2279
 1464BOLB   C3D35135  22.640  14.394   9.666 -0.1215  0.2276 -0.0834
 1464BOLB   C4D35136  22.257  14.230   9.593  0.0564  0.3581 -0.1520
 1465BOLB   NC135137  20.751  18.476  11.344 -0.1239  0.0085 -0.0208
 1465BOLB   PO135138  21.207  18.311  11.355  0.0529 -0.1017  0.0187
 1465BOLB   GL135139  21.068  18.372  10.920  0.1635  0.1740  0.0306
 1465BOLB   GL235140  21.263  18.680  10.915  0.1099  0.1538 -0.1602
 1465BOLB   C1A35141  20.891  18.048  10.547  0.1690 -0.4266  0.0294
 1465BOLB   C2A35142  21.153  18.225  10.160 -0.1367  0.1887 -0.2171
 1465BOLB   C3A35143  21.501  18.146   9.832  0.0809  0.2291 -0.4009
 1465BOLB   C4A35144  21.674  18.160   9.444  0.0708 -0.2933  0.3839
 1465BOLB   C1B35145  21.111  18.694  10.469  0.0502 -0.0758  0.0944
 1465BOLB   C2B35146  21.143  18.836  10.079  0.0964  0.0491 -0.2788
 1465BOLB   C3B35147  21.175  19.272   9.905 -0.0819  0.0331 -0.0608
 1465BOLB   C4B35148  20.983  19.658   9.830  0.0666  0.1692 -0.2198
 1465BOLB   NC235149  22.464  18.366   7.211  0.0991  0.0551 -0.1783
 1465BOLB   PO235150  22.239  18.700   7.260 -0.1322  0.3032 -0.0799
 1465BOLB   GL335151  22.078  18.734   7.723  0.2127 -0.3141 -0.0264
 1465BOLB   GL435152  22.297  18.952   8.012 -0.0012 -0.1298 -0.1092
 1465BOLB   C1C35153  22.217  18.460   8.063 -0.0051  0.1442  0.4435
 1465BOLB   C2C35154  22.016  18.350   8.304 -0.0540  0.1541  0.0283
 1465BOLB   C3C35155  21.895  18.299   8.722 -0.1477 -0.1227 -0.0286
 1465BOLB   C4C35156  21.987  18.195   9.043  0.0384  0.2241  0.2084
 1465BOLB   C1D35157  22.029  18.796   8.392  0.1745 -0.0611  0.0206
 1465BOLB   C2D35158  22.008  18.779   8.778 -0.2077 -0.0319  0.1985
 1465BOLB   C3D35159  22.000  18.618   9.255  0.0613  0.0155 -0.0536
 1465BOLB   C4D35160  22.091  18.570   9.718 -0.0730  0.2976  0.0766
 1466BOLB   NC135161  20.908  15.176  11.363 -0.2716 -0.2007  0.0242
 1466BOLB   PO135162  21.206  14.998  11.500  0.1389  0.0670  0.0362
 1466BOLB   GL135163  21.379  15.095  11.133  0.2281  0.0734  0.0995
 1466BOLB   GL235164  21.406  15.354  11.171  0.0712  0.2635  0.1823
 1466BOLB   C1A35165  21.327  15.145  10.674 -0.0824  0.0369  0.1295
 1466BOLB   C2A35166  21.630  15.019  10.340  0.0451 -0.1134 -0.2981
 1466BOLB   C3A35167  21.736  14.613  10.039 -0.0637  0.1497 -0.2305
 1466BOLB   C4A35168  22.143  14.334  10.075  0.0321  0.3992 -0.3375
 1466BOLB   C1B35169  21.712  15.464  10.844  0.3836  0.2295 -0.0955
 1466BOLB   C2B35170  21.846  15.501  10.389 -0.1162  0.1456 -0.2768
 1466BOLB   C3B35171  22.095  15.420  10.032 -0.1104 -0.0488 -0.6208
 1466BOLB   C4B35172  22.506  15.311  10.004  0.2164 -0.2333  0.2502
 1466BOLB   NC235173  22.730  13.241   8.625  0.1077  0.1656 -0.3173
 1466BOLB   PO235174  23.160  13.371   8.621 -0.0092  0.0944 -0.3414
 1466BOLB   GL335175  22.937  13.458   9.028 -0.0720  0.1571 -0.1840
 1466BOLB   GL435176  22.641  13.372   9.080 -0.0922 -0.0332 -0.1456
 1466BOLB   C1C35177  22.985  13.521   9.399  0.0128  0.0710  0.0754
 1466BOLB   C2C35178  22.826  13.612   9.847  0.1646  0.4079  0.1515
 1466BOLB   C3C35179  22.885  13.956  10.009  0.0936 -0.1707  0.2642
 1466BOLB   C4C35180  22.526  14.227  10.123  0.3740 -0.0350  0.1844
 1466BOLB   C1D35181  22.425  13.798   8.958  0.0122 -0.4319 -0.1920
 1466BOLB   C2D35182  22.562  14.234   9.084  0.0367  0.2754  0.0203
 1466BOLB   C3D35183  22.781  14.615   9.270  0.3461 -0.0167  0.0266
 1466BOLB   C4D35184  22.780  14.905   9.468 -0.0748 -0.1318  0.1094
 1467BOLB   NC135185  20.753  17.482  10.878 -0.3928  0.0873  0.1960
 1467BOLB   PO135186  20.742  17.160  11.051  0.2860  0.0604 -0.4246
 1467BOLB   GL135187  20.754  17.050  10.593 -0.0930 -0.0228 -0.2227
 1467BOLB   GL235188  21.095  17.242  10.470  0.1018  0.0351  0.1343
 1467BOLB   C1A35189  20.695  16.831  10.142 -0.0608 -0.3804  0.1940
 1467BOLB   C2A35190  20.805  17.014   9.798 -0.4239  0.1124 -0.0640
 1467BOLB   C3A35191  21.004  16.812   9.485 -0.1026 -0.0268 -0.4856
 1467BOLB   C4A35192  21.226  16.775   9.059  0.0520 -0.0419 -0.2350
 1467BOLB   C1B35193  21.215  17.607  10.361 -0.0335 -0.1281 -0.2607
 1467BOLB   C2B35194  21.496  17.761  10.112 -0.1806  0.0008  0.3150
 1467BOLB   C3B35195  21.415  17.720   9.533  0.1889 -0.2445  0.1751
 1467BOLB   C4B35196  21.289  17.692   9.114 -0.0637 -0.0682  0.1813
 1467BOLB   NC235197  21.611  15.867   7.153 -0.0833 -0.3812 -0.0230
 1467BOLB   PO235198  21.572  15.518   7.002 -0.1089  0.1417 -0.1443
 1467BOLB   GL335199  21.377  15.429   7.372 -0.0845 -0.0846 -0.0902
 1467BOLB   GL435200  21.285  15.036   7.449 -0.1186  0.1241  0.1570
 1467BOLB   C1C35201  21.139  15.585   7.650 -0.2420  0.0174 -0.2850
 1467BOLB   C2C35202  21.134  15.782   8.153  0.0663 -0.0368 -0.0326
 1467BOLB   C3C35203  21.286  16.091   8.414  0.0499 -0.1692 -0.2866
 1467BOLB   C4C35204  21.228  16.397   8.835 -0.0338  0.0686 -0.0645
 1467BOLB   C1D35205  21.254  14.895   7.822 -0.3480  0.0700 -0.0124
 1467BOLB   C2D35206  21.210  15.173   8.172 -0.0114 -0.2905 -0.0662
 1467BOLB   C3D35207  21.231  15.478   8.523 -0.1290  0.2516  0.5429
 1467BOLB   C4D35208  21.226  15.768   8.824  0.0030  0.0893  0.1168
 1468BOLB   NC135209  19.047  18.685  10.325 -0.1489 -0.1045 -0.0342
 1468BOLB   PO135210  19.257  19.012  10.575  0.1552 -0.1527  0.0405
 1468BOLB   GL135211  19.159  19.164  10.096  0.0220  0.0339  0.0739
 1468BOLB   GL235212  18.818  19.356   9.994 -0.1109  0.0591 -0.0700
 1468BOLB   C1A35213  19.357  19.175   9.727  0.2001  0.2036  0.1858
 1468BOLB   C2A35214  19.409  19.041   9.352 -0.1015 -0.2410 -0.3195
 1468BOLB   C3A35215  19.417  18.915   8.930 -0.1166  0.1214 -0.0596
 1468BOLB   C4A35216  19.375  19.064   8.480 -0.1086  0.0157  0.2116
 1468BOLB   C1B35217  18.896  19.500   9.456  0.2496  0.2009 -0.0537
 1468BOLB   C2B35218  19.082  19.373   9.113 -0.1278  0.3477  0.2255
 1468BOLB   C3B35219  19.369  19.377   8.902 -0.1339 -0.0525 -0.0772
 1468BOLB   C4B35220  19.634  19.514   8.544 -0.2614 -0.1165  0.4079
 1468BOLB   NC235221  21.098  18.483   6.663  0.1251 -0.1363 -0.0998
 1468BOLB   PO235222  21.360  18.599   7.014  0.0335  0.0076 -0.2420
 1468BOLB   GL335223  21.198  18.628   7.437  0.2632 -0.0859 -0.1321
 1468BOLB   GL435224  21.320  18.839   7.804 -0.1414  0.0610 -0.2016
 1468BOLB   C1C35225  20.842  18.875   7.690  0.2470 -0.3518  0.0367
 1468BOLB   C2C35226  20.599  19.102   7.893 -0.0505 -0.3447 -0.1429
 1468BOLB   C3C35227  20.195  18.964   8.050 -0.0691  0.2644  0.0809
 1468BOLB   C4C35228  19.740  19.091   8.149 -0.0233  0.2493 -0.1940
 1468BOLB   C1D35229  21.103  18.515   8.069 -0.0688 -0.2086 -0.2062
 1468BOLB   C2D35230  20.668  18.567   8.083 -0.0323 -0.1144  0.2587
 1468BOLB   C3D35231  20.450  18.715   8.386  0.0952 -0.2561 -0.0922
 1468BOLB   C4D35232  20.075  18.709   8.491  0.1196 -0.1638 -0.3984
 1469BOLB   NC135233  19.691  14.719  11.454 -0.3607 -0.1426 -0.0586
 1469BOLB   PO135234  19.730  14.757  11.037  0.2832  0.0231  0.0808
 1469BOLB   GL135235  20.076  14.668  10.613  0.2398  0.1421  0.1503
 1469BOLB   GL235236  20.461  14.652  10.644  0.0084  0.2373 -0.1791
 1469BOLB   C1A35237  20.280  14.562  10.198  0.0195 -0.1116  0.2971
 1469BOLB   C2A35238  20.130  14.624   9.620 -0.1921  0.1191 -0.3142
 1469BOLB   C3A35239  20.021  14.477   9.222  0.0725 -0.6362 -0.2035
 1469BOLB   C4A35240  19.851  14.170   8.916 -0.0966 -0.0682 -0.0612
 1469BOLB   C1B35241  20.737  14.462  10.427  0.3117  0.1400  0.0236
 1469BOLB   C2B35242  20.816  14.170  10.164 -0.3226 -0.1154 -0.0287
 1469BOLB   C3B35243  21.072  13.966   9.951 -0.1727  0.0645 -0.1326
 1469BOLB   C4B35244  21.390  13.760   9.758  0.0846  0.3419 -0.1303
 1469BOLB   NC235245  20.173  12.927   6.985 -0.0231 -0.0380  0.0339
 1469BOLB   PO235246  20.406  13.199   7.085 -0.0648  0.2174 -0.1673
 1469BOLB   GL335247  20.389  13.244   7.476 -0.2375 -0.0995 -0.2153
 1469BOLB   GL435248  20.391  12.985   7.695  0.0100  0.0045  0.1473
 1469BOLB   C1C35249  20.291  13.489   7.946 -0.4836 -0.2092  0.0060
 1469BOLB   C2C35250  20.051  13.640   8.142  0.0018  0.0226 -0.3325
 1469BOLB   C3C35251  19.721  13.768   8.311 -0.2521 -0.1393  0.2279
 1469BOLB   C4C35252  19.583  14.158   8.551 -0.0036  0.0176  0.2798
 1469BOLB   C1D35253  19.997  13.164   7.729 -0.0486 -0.1967 -0.3290
 1469BOLB   C2D35254  19.852  13.518   7.606 -0.0863 -0.0428  0.1533
 1469BOLB   C3D35255  19.543  13.928   7.730  0.0487  0.3212 -0.1816
 1469BOLB   C4D35256  19.421  14.070   8.075 -0.0514  0.0562 -0.2746
 1470BOLB   NC135257  15.205  13.601  10.264 -0.1532  0.2149  0.1483
 1470BOLB   PO135258  14.732  13.714  10.459  0.0541 -0.0144  0.2065
 1470BOLB   GL135259  14.722  13.435   9.967 -0.1955 -0.0654  0.1403
 1470BOLB   GL235260  14.972  13.504   9.855  0.0255 -0.3804 -0.0309
 1470BOLB   C1A35261  14.544  13.213   9.664 -0.0145  0.0839 -0.0780
 1470BOLB   C2A35262  14.456  13.012   9.309  0.1915  0.0259 -0.0275
 1470BOLB   C3A35263  14.352  12.879   8.924  0.0614  0.0365 -0.1730
 1470BOLB   C4A35264  14.382  13.100   8.545  0.1753 -0.3544 -0.4339
 1470BOLB   C1B35265  15.172  13.398   9.473 -0.1151 -0.1926  0.0858
 1470BOLB   C2B35266  15.345  13.488   9.088 -0.0450  0.0052 -0.1581
 1470BOLB   C3B35267  15.529  13.471   8.630 -0.2049 -0.1503 -0.0840
 1470BOLB   C4B35268  15.746  13.691   8.388  0.2247 -0.0550 -0.1554
 1470BOLB   NC235269  15.476  13.755   5.925 -0.0949 -0.2532 -0.3082
 1470BOLB   PO235270  15.376  13.519   6.375  0.2471  0.1191  0.0635
 1470BOLB   GL335271  15.423  13.427   6.793 -0.1581  0.1046  0.2549
 1470BOLB   GL435272  15.585  13.184   6.859 -0.1914  0.2807 -0.0846
 1470BOLB   C1C35273  15.124  13.437   7.182  0.1185  0.0206  0.1771
 1470BOLB   C2C35274  14.774  13.417   7.528  0.1374  0.2906  0.4301
 1470BOLB   C3C35275  14.843  13.407   8.018  0.0531  0.0895 -0.0881
 1470BOLB   C4C35276  14.599  13.388   8.331  0.2269 -0.1891  0.1403
 1470BOLB   C1D35277  15.586  13.267   7.241 -0.0357  0.3299  0.3126
 1470BOLB   C2D35278  15.500  13.529   7.539  0.0120  0.1477  0.2088
 1470BOLB   C3D35279  15.090  13.773   7.515 -0.3981 -0.0377 -0.1886
 1470BOLB   C4D35280  14.883  14.033   7.745 -0.1571  0.0135 -0.0352
 1471BOLB   NC135281  21.475  24.179  15.557  0.1933  0.1878 -0.1193
 1471BOLB   PO135282  21.613  24.461  15.235 -0.2397  0.0120  0.2443
 1471BOLB   GL135283  21.772  24.732  14.867 -0.0475  0.2260 -0.2417
 1471BOLB   GL235284  22.073  24.743  14.539  0.2046  0.2874 -0.1817
 1471BOLB   C1A35285  21.566  24.977  14.551 -0.4231 -0.1401 -0.0338
 1471BOLB   C2A35286  21.313  25.326  14.389 -0.1698  0.1780  0.0550
 1471BOLB   C3A35287  21.149  25.658  14.482 -0.3036  0.0971  0.0655
 1471BOLB   C4A35288  21.169  26.139  14.308  0.1812  0.1994 -0.1341
 1471BOLB   C1B35289  22.037  25.110  14.385 -0.2442 -0.2703 -0.0540
 1471BOLB   C2B35290  21.714  25.279  14.066  0.4165  0.2959 -0.0002
 1471BOLB   C3B35291  21.680  25.086  13.681 -0.1667 -0.2759  0.0950
 1471BOLB   C4B35292  21.551  24.740  13.531  0.1387  0.0791 -0.2625
 1471BOLB   NC235293  22.134  27.939  14.958 -0.2276 -0.0289 -0.1236
 1471BOLB   PO235294  22.321  28.056  14.563  0.0345 -0.2611 -0.1052
 1471BOLB   GL335295  22.268  27.693  14.437  0.1462 -0.1524 -0.0606
 1471BOLB   GL435296  22.648  27.584  14.458 -0.2454  0.0799 -0.1337
 1471BOLB   C1C35297  22.037  27.323  14.562 -0.0394 -0.3620  0.0232
 1471BOLB   C2C35298  21.572  27.175  14.364 -0.0221  0.0917  0.2256
 1471BOLB   C3C35299  21.244  26.957  14.482  0.1545  0.2873 -0.2478
 1471BOLB   C4C35300  21.047  26.614  14.249 -0.2188 -0.0484  0.0893
 1471BOLB   C1D35301  22.443  27.239  14.315 -0.0585  0.0421  0.3382
 1471BOLB   C2D35302  22.282  27.129  13.913  0.1741  0.2620 -0.0010
 1471BOLB   C3D35303  22.100  27.070  13.485  0.0226 -0.1820 -0.0333
 1471BOLB   C4D35304  21.833  26.728  13.299  0.1204  0.3218  0.2588
 1472BOLB   NC135305  15.029  21.408  10.959 -0.0913 -0.1577  0.0266
 1472BOLB   PO135306  15.232  21.100  10.904  0.0967 -0.1460  0.0880
 1472BOLB   GL135307  15.078  21.099  10.489 -0.3344  0.0790 -0.3203
 1472BOLB   GL235308  14.887  21.411  10.471 -0.0387 -0.0632  0.0952
 1472BOLB   C1A35309  15.042  20.982  10.087 -0.0594  0.0529  0.1672
 1472BOLB   C2A35310  14.997  21.117   9.681 -0.1478 -0.3590  0.0798
 1472BOLB   C3A35311  14.727  20.895   9.373 -0.0565  0.0295  0.2083
 1472BOLB   C4A35312  14.708  20.782   8.981  0.1272 -0.3081  0.1065
 1472BOLB   C1B35313  15.299  21.449  10.151 -0.0400 -0.0747  0.1071
 1472BOLB   C2B35314  15.409  21.723   9.863 -0.0289 -0.1723 -0.1686
 1472BOLB   C3B35315  15.647  21.846   9.519  0.3949  0.1825 -0.0926
 1472BOLB   C4B35316  15.460  22.024   9.081  0.0648 -0.3439 -0.1218
 1472BOLB   NC235317  15.980  21.631   6.845 -0.1489 -0.0761  0.0752
 1472BOLB   PO235318  15.594  21.888   6.902 -0.1870  0.3019 -0.0950
 1472BOLB   GL335319  15.647  21.728   7.290  0.1759  0.1109  0.0745
 1472BOLB   GL435320  15.937  21.739   7.511  0.0212 -0.1278  0.3611
 1472BOLB   C1C35321  15.470  21.468   7.626  0.2426  0.6059  0.1900
 1472BOLB   C2C35322  15.486  21.312   8.102 -0.0597  0.2391 -0.0061
 1472BOLB   C3C35323  15.372  21.038   8.458  0.2759  0.2590  0.1198
 1472BOLB   C4C35324  15.103  20.700   8.663  0.0781  0.0621  0.2612
 1472BOLB   C1D35325  15.866  21.580   7.950 -0.1261 -0.1412  0.0734
 1472BOLB   C2D35326  15.875  21.475   8.387 -0.0110  0.0206 -0.2002
 1472BOLB   C3D35327  15.731  21.230   8.700 -0.0542  0.2614  0.0836
 1472BOLB   C4D35328  15.601  20.882   8.848 -0.0521 -0.0099  0.0624
 1473BOLB   NC135329   8.389  26.499  11.051 -0.1078 -0.0054 -0.2424
 1473BOLB   PO135330   8.318  26.037  10.969  0.0939  0.0941  0.1347
 1473BOLB   GL135331   8.604  25.975  10.719  0.0861 -0.3705  0.3176
 1473BOLB   GL235332   8.427  25.586  10.713  0.3619  0.2350  0.0009
 1473BOLB   C1A35333   9.049  25.965  10.747  0.2448  0.1289 -0.0985
 1473BOLB   C2A35334   9.276  26.277  11.017 -0.2857  0.0422 -0.2992
 1473BOLB   C3A35335   9.688  26.357  11.289 -0.1236  0.1514  0.1419
 1473BOLB   C4A35336   9.951  26.158  11.038 -0.1041  0.0428  0.0365
 1473BOLB   C1B35337   8.869  25.480  10.725  0.0928  0.2379  0.0680
 1473BOLB   C2B35338   9.292  25.480  10.830 -0.4257 -0.0378  0.0149
 1473BOLB   C3B35339   9.554  25.874  10.782 -0.0627  0.0432 -0.1386
 1473BOLB   C4B35340   9.609  26.333  10.639  0.0761 -0.0223  0.1856
 1473BOLB   NC235341   8.786  26.386   9.454 -0.0508  0.2236  0.1605
 1473BOLB   PO235342   8.655  26.138   9.756  0.1255 -0.2442 -0.0887
 1473BOLB   GL335343   8.977  25.867   9.799  0.0386  0.0826 -0.0600
 1473BOLB   GL435344   9.042  25.913   9.405 -0.0501  0.2815 -0.2331
 1473BOLB   C1C35345   9.299  25.591   9.810  0.3786 -0.0757  0.0692
 1473BOLB   C2C35346   9.622  25.320  10.144 -0.2463  0.0138 -0.0252
 1473BOLB   C3C35347   9.698  25.471  10.541 -0.1114  0.0908  0.0616
 1473BOLB   C4C35348  10.027  25.716  10.689 -0.0838  0.1461  0.3240
 1473BOLB   C1D35349   9.467  25.640   9.348 -0.1543  0.1570  0.1277
 1473BOLB   C2D35350   9.760  25.287   9.443 -0.0851 -0.0571 -0.2438
 1473BOLB   C3D35351  10.135  25.262   9.637 -0.0343  0.2781 -0.0184
 1473BOLB   C4D35352  10.468  25.342   9.886  0.1197  0.0393  0.0189
 1474BOLB   NC135353  13.561   9.609  12.245 -0.0596 -0.0847  0.0426
 1474BOLB   PO135354  13.570   9.895  11.952  0.0794  0.0087  0.1435
 1474BOLB   GL135355  13.554   9.735  11.479  0.0105 -0.0707 -0.0955
 1474BOLB   GL235356  13.883   9.645  11.392  0.1116 -0.1007  0.0936
 1474BOLB   C1A35357  13.542   9.480  11.143 -0.0210 -0.0551 -0.2044
 1474BOLB   C2A35358  13.499   9.016  10.936 -0.0290  0.1037 -0.0562
 1474BOLB   C3A35359  13.531   8.828  10.630 -0.2204  0.3800 -0.0620
 1474BOLB   C4A35360  13.747   8.497  10.445 -0.0232 -0.5680  0.0989
 1474BOLB   C1B35361  13.998   9.672  10.964  0.2116 -0.0011  0.1758
 1474BOLB   C2B35362  14.257   9.686  10.600  0.1571 -0.1319  0.1672
 1474BOLB   C3B35363  14.255   9.296  10.254  0.1603 -0.2267 -0.3110
 1474BOLB   C4B35364  14.308   9.369   9.873 -0.2447 -0.1157  0.0236
 1474BOLB   NC235365  13.997   7.214   8.685  0.3327  0.0557  0.0002
 1474BOLB   PO235366  14.247   7.224   8.914 -0.4184  0.1235  0.1808
 1474BOLB   GL335367  14.399   7.569   9.154 -0.0403 -0.3374 -0.1523
 1474BOLB   GL435368  14.492   7.894   9.122  0.0576 -0.0739  0.0516
 1474BOLB   C1C35369  14.497   7.615   9.571  0.1336 -0.5281  0.0128
 1474BOLB   C2C35370  14.293   7.748   9.956 -0.0612 -0.1270  0.0834
 1474BOLB   C3C35371  14.405   8.066  10.088 -0.0931  0.0599  0.0460
 1474BOLB   C4C35372  14.108   8.405  10.112 -0.0393 -0.1631  0.2223
 1474BOLB   C1D35373  14.375   8.337   9.135 -0.1448  0.1999  0.1018
 1474BOLB   C2D35374  14.304   8.555   9.535 -0.1427  0.1459  0.2856
 1474BOLB   C3D35375  14.094   8.822   9.887  0.0682 -0.0178 -0.1093
 1474BOLB   C4D35376  14.015   8.867  10.282 -0.1445 -0.0518  0.2155
 1475BOLB   NC135377  13.274  15.034   9.916 -0.2097 -0.1334 -0.2515
 1475BOLB   PO135378  13.742  14.969   9.887 -0.3937  0.0694  0.2437
 1475BOLB   GL135379  13.706  14.750   9.473 -0.3123 -0.0040 -0.0054
 1475BOLB   GL235380  13.438  14.973   9.481  0.0459  0.1906 -0.1762
 1475BOLB   C1A35381  13.924  14.604   9.103  0.0802 -0.0683 -0.0366
 1475BOLB   C2A35382  13.929  14.715   8.696  0.0622  0.2972 -0.2918
 1475BOLB   C3A35383  13.777  14.276   8.504  0.1114  0.1672  0.2447
 1475BOLB   C4A35384  13.721  13.843   8.441 -0.0632 -0.1157  0.0549
 1475BOLB   C1B35385  13.501  14.983   8.974  0.0517  0.0798  0.0361
 1475BOLB   C2B35386  13.596  15.163   8.592 -0.3353  0.1013 -0.0026
 1475BOLB   C3B35387  13.612  15.347   8.113 -0.0147 -0.0927  0.1763
 1475BOLB   C4B35388  13.603  15.637   7.998 -0.1113  0.0771  0.1617
 1475BOLB   NC235389  13.857  12.584   6.335 -0.1631 -0.1760  0.0056
 1475BOLB   PO235390  13.795  12.193   6.602  0.2914  0.1754  0.0614
 1475BOLB   GL335391  13.621  12.626   6.769  0.1418  0.0455  0.0311
 1475BOLB   GL435392  13.382  12.507   6.860  0.0299 -0.2035 -0.0527
 1475BOLB   C1C35393  13.894  12.805   7.096 -0.0341  0.3940 -0.2560
 1475BOLB   C2C35394  14.015  13.055   7.481  0.1171  0.0908 -0.0846
 1475BOLB   C3C35395  13.820  13.256   7.808  0.0312  0.1043  0.2564
 1475BOLB   C4C35396  13.731  13.647   8.005  0.1065  0.2388  0.0390
 1475BOLB   C1D35397  13.382  12.900   7.178 -0.0262 -0.1112  0.0021
 1475BOLB   C2D35398  13.207  13.105   7.551  0.2853 -0.0881  0.1703
 1475BOLB   C3D35399  13.376  13.483   7.686 -0.1540 -0.2070  0.2410
 1475BOLB   C4D35400  13.265  13.936   7.944 -0.0761  0.1983 -0.0625
 1476BOLB   NC135401  16.805  12.201  11.337  0.0216 -0.1632 -0.0048
 1476BOLB   PO135402  16.808  12.651  11.140 -0.1547  0.0112  0.3422
 1476BOLB   GL135403  16.808  12.347  10.860  0.0353 -0.2771 -0.1098
 1476BOLB   GL235404  16.529  12.423  10.750 -0.0578  0.2591  0.0559
 1476BOLB   C1A35405  16.765  12.014  10.671 -0.1960 -0.0926 -0.1157
 1476BOLB   C2A35406  16.738  11.780  10.235 -0.0306 -0.0242 -0.1166
 1476BOLB   C3A35407  16.439  11.623   9.966 -0.0279 -0.0815  0.0194
 1476BOLB   C4A35408  16.259  11.676   9.549 -0.2481 -0.0562 -0.6042
 1476BOLB   C1B35409  16.437  12.309  10.401  0.3614 -0.2330  0.0331
 1476BOLB   C2B35410  16.574  12.216  10.066  0.1700 -0.1526 -0.2758
 1476BOLB   C3B35411  16.913  12.155   9.941 -0.2853 -0.1747  0.2009
 1476BOLB   C4B35412  17.379  12.173   9.593  0.1842  0.0196  0.1005
 1476BOLB   NC235413  15.937  10.397   7.436 -0.2342  0.1224  0.1795
 1476BOLB   PO235414  16.316  10.714   7.430 -0.0154  0.1159 -0.3872
 1476BOLB   GL335415  16.149  10.689   7.855 -0.0802  0.0047  0.2008
 1476BOLB   GL435416  16.155  10.348   7.895 -0.1605  0.0223 -0.1507
 1476BOLB   C1C35417  15.981  10.770   8.175 -0.0200 -0.0507 -0.2110
 1476BOLB   C2C35418  15.807  11.195   8.408 -0.0385  0.1889 -0.0499
 1476BOLB   C3C35419  15.949  11.337   8.881  0.0710 -0.1785 -0.2184
 1476BOLB   C4C35420  15.945  11.620   9.191 -0.1074  0.0903 -0.1703
 1476BOLB   C1D35421  16.296  10.398   8.334 -0.1744  0.1237 -0.1818
 1476BOLB   C2D35422  16.656  10.348   8.615 -0.1804  0.3314 -0.0402
 1476BOLB   C3D35423  16.786  10.426   8.962  0.1277 -0.2045 -0.1122
 1476BOLB   C4D35424  16.650  10.434   9.408  0.1614  0.4221  0.2277
 1477BOLB   NC135425  17.868  22.615  12.374 -0.1294 -0.1191  0.2902
 1477BOLB   PO135426  17.849  22.979  12.402  0.0062  0.3182  0.1537
 1477BOLB   GL135427  18.057  23.198  12.126  0.0904  0.2625  0.0537
 1477BOLB   GL235428  18.373  23.254  12.208  0.2200  0.0986  0.4532
 1477BOLB   C1A35429  17.948  23.428  11.700  0.0264 -0.2385 -0.3259
 1477BOLB   C2A35430  17.883  23.904  11.541 -0.2493 -0.1225 -0.2265
 1477BOLB   C3A35431  18.183  24.260  11.522  0.0212 -0.2386 -0.1409
 1477BOLB   C4A35432  18.221  24.658  11.249 -0.1060  0.1175  0.2372
 1477BOLB   C1B35433  18.534  23.404  11.821 -0.2258 -0.0599 -0.2727
 1477BOLB   C2B35434  18.395  23.651  11.436  0.2018 -0.0022 -0.1014
 1477BOLB   C3B35435  18.139  23.894  11.075 -0.0169  0.1804  0.0666
 1477BOLB   C4B35436  18.064  24.253  10.953 -0.1515  0.4058  0.0241
 1477BOLB   NC235437  16.800  25.559   9.190 -0.2099  0.0001  0.0438
 1477BOLB   PO235438  17.108  25.828   9.491  0.0399  0.0548 -0.0960
 1477BOLB   GL335439  17.308  25.466   9.681 -0.1190 -0.0238 -0.0217
 1477BOLB   GL435440  17.308  25.301   9.466  0.0806  0.1654  0.0715
 1477BOLB   C1C35441  17.458  25.137   9.969 -0.3382 -0.3288 -0.1074
 1477BOLB   C2C35442  17.607  24.935  10.234  0.0988 -0.2530 -0.0969
 1477BOLB   C3C35443  17.828  24.927  10.549 -0.2304 -0.0276  0.0067
 1477BOLB   C4C35444  17.981  24.851  10.964 -0.0693 -0.1661 -0.0099
 1477BOLB   C1D35445  17.056  24.933   9.654  0.3665 -0.1036 -0.2922
 1477BOLB   C2D35446  16.841  24.491   9.706 -0.2985 -0.0329  0.2796
 1477BOLB   C3D35447  16.820  24.209   9.741  0.2159  0.0236  0.0107
 1477BOLB   C4D35448  16.743  23.893   9.969 -0.0035 -0.0743  0.0544
 1478BOLB   NC135449  19.361  20.916  12.205 -0.0994 -0.4438  0.0775
 1478BOLB   PO135450  19.489  21.230  11.841  0.2422 -0.1893  0.0265
 1478BOLB   GL135451  19.805  21.483  11.636  0.1405 -0.1325  0.0841
 1478BOLB   GL235452  19.723  21.348  11.345  0.3397  0.1630  0.3377
 1478BOLB   C1A35453  20.161  21.647  11.332 -0.2532 -0.0935 -0.1099
 1478BOLB   C2A35454  20.133  21.632  10.864 -0.2472  0.3124 -0.0272
 1478BOLB   C3A35455  19.941  21.688  10.461 -0.1203  0.0508  0.1950
 1478BOLB   C4A35456  19.854  21.999  10.069 -0.1102 -0.0957  0.0448
 1478BOLB   C1B35457  19.680  21.521  10.950 -0.2734  0.0186 -0.1288
 1478BOLB   C2B35458  19.591  21.927  10.842 -0.0693  0.3871 -0.3445
 1478BOLB   C3B35459  19.501  22.101  10.440 -0.1419 -0.0691  0.3728
 1478BOLB   C4B35460  19.322  22.130  10.138  0.2297 -0.2296  0.1209
 1478BOLB   NC235461  19.943  23.150   8.070 -0.2563 -0.1482  0.3389
 1478BOLB   PO235462  20.388  23.284   8.180  0.1159  0.1724  0.3057
 1478BOLB   GL335463  20.144  23.230   8.616  0.0952  0.1018  0.2010
 1478BOLB   GL435464  19.824  23.326   8.577  0.0662  0.2524 -0.0270
 1478BOLB   C1C35465  20.022  22.723   8.736  0.0181 -0.2214  0.2269
 1478BOLB   C2C35466  19.945  22.618   9.136 -0.5360 -0.4671 -0.1030
 1478BOLB   C3C35467  19.659  22.488   9.428  0.0996 -0.0289 -0.1493
 1478BOLB   C4C35468  19.727  22.267   9.725 -0.2122 -0.0868  0.1778
 1478BOLB   C1D35469  19.538  22.997   8.759 -0.0714  0.1940 -0.0746
 1478BOLB   C2D35470  19.468  22.708   8.918  0.3410 -0.2997 -0.0794
 1478BOLB   C3D35471  19.489  22.242   8.994  0.0736  0.0798  0.3639
 1478BOLB   C4D35472  19.576  21.761   9.054 -0.1974 -0.3441 -0.4280
 1479BOLB   NC135473   9.670  12.823  11.307 -0.0214  0.0954 -0.2434
 1479BOLB   PO135474   9.671  12.469  11.595 -0.3094  0.2336  0.1740
 1479BOLB   GL135475   9.676  12.198  11.203 -0.6950  0.1841  0.1459
 1479BOLB   GL235476   9.933  12.483  10.961  0.3004 -0.0113  0.2421
 1479BOLB   C1A35477   9.629  11.988  10.759 -0.2586 -0.0009 -0.3223
 1479BOLB   C2A35478   9.809  11.934  10.400  0.2150  0.1445 -0.0928
 1479BOLB   C3A35479   9.858  11.722  10.063 -0.1586  0.1778 -0.3255
 1479BOLB   C4A35480   9.931  11.627   9.537  0.2297 -0.2634 -0.0147
 1479BOLB   C1B35481  10.026  12.341  10.503  0.3875  0.1559 -0.1609
 1479BOLB   C2B35482   9.919  12.429  10.086 -0.3239  0.2608 -0.1275
 1479BOLB   C3B35483   9.957  12.448   9.634  0.0741  0.0778  0.3513
 1479BOLB   C4B35484   9.958  12.126   9.333 -0.2222 -0.1294 -0.1039
 1479BOLB   NC235485   9.674  11.937   6.763  0.1506 -0.0328  0.1024
 1479BOLB   PO235486   9.981  11.946   7.038 -0.3023  0.2898 -0.0251
 1479BOLB   GL335487   9.937  12.022   7.407  0.1569 -0.1856  0.0948
 1479BOLB   GL435488   9.840  12.340   7.539 -0.0753  0.1926  0.0962
 1479BOLB   C1C35489   9.958  11.889   7.867  0.0533 -0.1379  0.2711
 1479BOLB   C2C35490   9.827  11.829   8.358 -0.1004 -0.1117  0.0173
 1479BOLB   C3C35491   9.975  11.864   8.811  0.1022 -0.2597  0.0626
 1479BOLB   C4C35492   9.869  11.635   9.132  0.3922 -0.1346  0.1179
 1479BOLB   C1D35493  10.283  12.456   7.778  0.2555  0.1738  0.1996
 1479BOLB   C2D35494  10.470  12.804   7.740 -0.0073  0.0713 -0.0374
 1479BOLB   C3D35495  10.570  13.236   7.756  0.0978  0.0067 -0.2629
 1479BOLB   C4D35496  10.718  13.542   7.878 -0.0972  0.0079  0.0394
 1480BOLB   NC135497  15.234  21.750  11.418  0.0009 -0.3516 -0.2674
 1480BOLB   PO135498  15.627  21.614  11.566 -0.2218 -0.2123 -0.1989
 1480BOLB   GL135499  15.774  21.810  11.259  0.0980 -0.1113 -0.0527
 1480BOLB   GL235500  15.530  22.057  11.265  0.1289  0.3774 -0.0031
 1480BOLB   C1A35501  16.045  21.800  10.884  0.1159  0.0023  0.1942
 1480BOLB   C2A35502  16.267  22.144  10.579  0.0535  0.1674 -0.0612
 1480BOLB   C3A35503  16.300  22.446  10.288  0.2219 -0.1672 -0.0068
 1480BOLB   C4A35504  16.219  22.770   9.984  0.1827  0.2354 -0.0272
 1480BOLB   C1B35505  15.292  22.340  10.912  0.0480  0.0357  0.0749
 1480BOLB   C2B35506  15.014  22.353  10.577 -0.1790 -0.0100  0.3648
 1480BOLB   C3B35507  14.834  22.538  10.330 -0.0017  0.0081 -0.1391
 1480BOLB   C4B35508  14.704  22.883  10.008  0.1958  0.3120 -0.0581
 1480BOLB   NC235509  16.161  24.265   8.245 -0.0156  0.0402  0.2990
 1480BOLB   PO235510  15.875  24.313   8.411  0.1118 -0.0036  0.2749
 1480BOLB   GL335511  15.857  23.978   8.537 -0.4499  0.0870  0.2800
 1480BOLB   GL435512  15.616  23.857   8.317 -0.0828 -0.0998  0.1584
 1480BOLB   C1C35513  15.998  23.817   8.951  0.0906  0.1599  0.1352
 1480BOLB   C2C35514  16.273  23.626   9.130  0.4191 -0.1489  0.1363
 1480BOLB   C3C35515  16.222  23.269   9.282 -0.0192 -0.1944 -0.2795
 1480BOLB   C4C35516  16.383  22.981   9.619  0.1962 -0.3454 -0.1372
 1480BOLB   C1D35517  15.301  23.625   8.691 -0.1587  0.1662 -0.0942
 1480BOLB   C2D35518  15.165  23.578   9.084 -0.0671 -0.2363  0.1459
 1480BOLB   C3D35519  14.908  23.316   9.391  0.0081  0.0880  0.0074
 1480BOLB   C4D35520  15.036  23.262   9.803 -0.0444 -0.2981 -0.0406
 1481BOLB   NC135521  10.365  19.805  11.223 -0.3927  0.2047 -0.0952
 1481BOLB   PO135522  10.117  19.953  11.640  0.1502  0.2982  0.1186
 1481BOLB   GL135523   9.881  20.063  11.308 -0.1427  0.1675  0.0481
 1481BOLB   GL235524   9.616  19.951  11.261 -0.0227 -0.0059  0.0375
 1481BOLB   C1A35525   9.962  20.359  11.035  0.2536 -0.1094 -0.2813
 1481BOLB   C2A35526  10.012  20.388  10.572  0.0327 -0.3061 -0.4343
 1481BOLB   C3A35527  10.097  20.537  10.162  0.0507 -0.1483  0.0519
 1481BOLB   C4A35528  10.077  20.712   9.759 -0.1812 -0.1732  0.0269
 1481BOLB   C1B35529   9.643  20.036  10.782  0.0544 -0.1248  0.2109
 1481BOLB   C2B35530   9.460  20.319  10.630  0.0442 -0.1000  0.0237
 1481BOLB   C3B35531   9.415  20.382  10.195 -0.1152  0.0455  0.0549
 1481BOLB   C4B35532   9.140  20.466   9.829  0.4399  0.0138 -0.2337
 1481BOLB   NC235533   8.883  21.314   7.547 -0.2975 -0.1015 -0.0794
 1481BOLB   PO235534   9.101  21.143   7.812  0.3756 -0.1857  0.0932
 1481BOLB   GL335535   9.370  21.427   7.922 -0.1876 -0.1852 -0.0674
 1481BOLB   GL435536   9.277  21.671   7.771  0.1223 -0.1786  0.0111
 1481BOLB   C1C35537   9.622  21.344   8.330  0.2013  0.1387 -0.0201
 1481BOLB   C2C35538   9.912  21.084   8.563 -0.2544 -0.2969 -0.1959
 1481BOLB   C3C35539   9.957  20.906   8.935  0.1985  0.2529 -0.1677
 1481BOLB   C4C35540  10.126  20.920   9.309  0.1182 -0.0258 -0.2328
 1481BOLB   C1D35541   9.327  21.843   8.162 -0.4140 -0.0091  0.3921
 1481BOLB   C2D35542   9.549  21.931   8.396 -0.0079 -0.1561  0.2448
 1481BOLB   C3D35543   9.854  21.670   8.602  0.0967  0.0673  0.1472
 1481BOLB   C4D35544   9.794  21.341   8.974  0.2340  0.0371 -0.1732
 1482BOLB   NC135545  17.374  14.070  10.359 -0.0677 -0.0737 -0.0821
 1482BOLB   PO135546  17.765  14.181  10.378  0.1224  0.1845 -0.0327
 1482BOLB   GL135547  18.152  14.163  10.042 -0.2641  0.1485  0.1848
 1482BOLB   GL235548  18.055  14.337   9.811  0.2051 -0.0191  0.2150
 1482BOLB   C1A35549  18.495  14.267   9.723 -0.1309 -0.1282 -0.0733
 1482BOLB   C2A35550  18.524  14.086   9.274  0.0383 -0.4952  0.0050
 1482BOLB   C3A35551  18.698  13.902   8.936 -0.5412 -0.3070 -0.0632
 1482BOLB   C4A35552  18.769  13.898   8.567  0.1285  0.1502 -0.2010
 1482BOLB   C1B35553  17.976  14.320   9.372  0.0089 -0.0461 -0.0981
 1482BOLB   C2B35554  18.120  14.091   9.007  0.0966 -0.2388 -0.1301
 1482BOLB   C3B35555  18.183  13.737   8.739  0.2314  0.0424 -0.2649
 1482BOLB   C4B35556  18.053  13.369   8.552 -0.0468 -0.2450  0.0313
 1482BOLB   NC235557  19.810  14.869   6.143  0.4540 -0.0465  0.1460
 1482BOLB   PO235558  19.498  14.462   6.199 -0.0484  0.1224 -0.2251
 1482BOLB   GL335559  19.409  14.555   6.659  0.0133  0.0124  0.2176
 1482BOLB   GL435560  19.120  14.443   6.698 -0.2803  0.2173 -0.1843
 1482BOLB   C1C35561  19.380  14.389   7.122  0.0770  0.2790 -0.0106
 1482BOLB   C2C35562  19.077  14.177   7.426 -0.2776  0.2274 -0.1817
 1482BOLB   C3C35563  19.012  14.223   7.858  0.1529 -0.2240 -0.2023
 1482BOLB   C4C35564  18.816  14.142   8.291  0.2098  0.4148 -0.2139
 1482BOLB   C1D35565  19.061  14.851   6.918  0.0334 -0.0348 -0.0950
 1482BOLB   C2D35566  19.057  15.130   7.206  0.3630 -0.1044 -0.0698
 1482BOLB   C3D35567  18.991  15.467   7.103 -0.0251  0.3365  0.3565
 1482BOLB   C4D35568  18.907  15.893   7.170 -0.3009  0.0402  0.3285
 1483BOLB   NC135569  20.690  19.294  11.526  0.3063  0.1623 -0.2709
 1483BOLB   PO135570  20.602  19.400  11.154  0.1981 -0.2527  0.0702
 1483BOLB   GL135571  20.603  19.528  10.766  0.0013 -0.1253  0.0875
 1483BOLB   GL235572  20.399  19.676  10.661 -0.2956  0.0453 -0.0120
 1483BOLB   C1A35573  20.832  19.635  10.446  0.0597  0.1166  0.1273
 1483BOLB   C2A35574  21.206  19.800  10.358 -0.0704  0.1203 -0.0730
 1483BOLB   C3A35575  21.615  19.774  10.088  0.1432  0.1633 -0.1226
 1483BOLB   C4A35576  21.827  20.065   9.762  0.1239  0.0152 -0.3490
 1483BOLB   C1B35577  20.512  19.741  10.096 -0.1234  0.0130  0.2670
 1483BOLB   C2B35578  20.573  19.879   9.696  0.0814  0.2187 -0.2522
 1483BOLB   C3B35579  20.832  19.882   9.344 -0.2130 -0.2039 -0.1289
 1483BOLB   C4B35580  21.059  20.278   9.235  0.0474 -0.3853  0.1296
 1483BOLB   NC235581  22.923  20.853   7.933 -0.2341  0.1135  0.1025
 1483BOLB   PO235582  22.710  20.542   7.971  0.0800  0.2472 -0.1628
 1483BOLB   GL335583  22.940  20.469   8.376  0.0586  0.2815 -0.4021
 1483BOLB   GL435584  22.767  20.775   8.431 -0.0208 -0.0542  0.1830
 1483BOLB   C1C35585  23.009  20.530   8.787  0.1716  0.1735  0.1419
 1483BOLB   C2C35586  22.739  20.640   9.054 -0.0161  0.0631  0.2655
 1483BOLB   C3C35587  22.553  20.293   9.136  0.1341 -0.0634 -0.0710
 1483BOLB   C4C35588  22.142  20.041   9.429 -0.1066 -0.2433 -0.0134
 1483BOLB   C1D35589  22.461  20.402   8.663  0.0556  0.0531  0.1248
 1483BOLB   C2D35590  22.252  20.082   8.779 -0.1709  0.5233  0.1887
 1483BOLB   C3D35591  22.310  19.587   8.877 -0.1258  0.1136 -0.1618
 1483BOLB   C4D35592  22.467  19.125   8.552 -0.2393  0.2413  0.0172
 1484BOLB   NC135593  18.535   9.098  14.382  0.0424 -0.1922 -0.0366
 1484BOLB   PO135594  18.776   9.432  14.291  0.2440 -0.2288 -0.1571
 1484BOLB   GL135595  19.086   9.079  14.369  0.0257 -0.0656 -0.1262
 1484BOLB   GL235596  18.964   8.794  14.138  0.2069 -0.3248 -0.3784
 1484BOLB   C1A35597  19.324   9.052  13.959 -0.2971  0.1319 -0.1554
 1484BOLB   C2A35598  19.393   8.617  13.759 -0.0718 -0.1547 -0.0390
 1484BOLB   C3A35599  19.526   8.280  13.725  0.2548 -0.3675 -0.0852
 1484BOLB   C4A35600  19.420   7.969  13.507  0.1568  0.2119 -0.3614
 1484BOLB   C1B35601  18.974   8.404  13.931  0.0308 -0.2484 -0.0328
 1484BOLB   C2B35602  18.954   8.150  13.531  0.2121 -0.0301 -0.1149
 1484BOLB   C3B35603  18.975   7.849  13.294  0.0522  0.1568 -0.0154
 1484BOLB   C4B35604  18.965   7.484  13.008 -0.0323 -0.0340  0.2058
 1484BOLB   NC235605  19.689   6.213  11.881 -0.1061  0.0702  0.2965
 1484BOLB   PO235606  19.945   5.970  12.183  0.0272  0.1239  0.0388
 1484BOLB   GL335607  19.812   6.194  12.560 -0.0785 -0.1464  0.1260
 1484BOLB   GL435608  20.064   6.214  12.756  0.0971 -0.2343  0.1326
 1484BOLB   C1C35609  19.564   6.516  12.779 -0.1180  0.0587 -0.1940
 1484BOLB   C2C35610  19.770   7.001  12.802 -0.1996  0.1903  0.0375
 1484BOLB   C3C35611  19.638   7.316  13.083 -0.0232  0.1239 -0.2490
 1484BOLB   C4C35612  19.326   7.512  13.351 -0.0733  0.1993 -0.0950
 1484BOLB   C1D35613  20.003   6.576  13.073 -0.2637 -0.1641 -0.2287
 1484BOLB   C2D35614  20.031   7.031  13.243  0.2682 -0.3669  0.1059
 1484BOLB   C3D35615  20.164   7.425  13.225  0.1639  0.4973  0.2006
 1484BOLB   C4D35616  20.439   7.687  13.126  0.2593  0.1198 -0.1444
 1485BOLB   NC135617  13.457  18.111   9.764  0.0014 -0.3802 -0.0840
 1485BOLB   PO135618  13.293  17.757  10.087 -0.1595  0.0916 -0.1340
 1485BOLB   GL135619  13.283  17.653   9.663 -0.2017  0.0184 -0.0487
 1485BOLB   GL235620  12.958  17.537   9.601  0.0186  0.1983  0.1621
 1485BOLB   C1A35621  13.497  17.571   9.247  0.1001 -0.0175  0.0380
 1485BOLB   C2A35622  13.360  17.228   8.996 -0.0609 -0.0182 -0.1079
 1485BOLB   C3A35623  13.398  16.913   8.709 -0.1702 -0.1133  0.1113
 1485BOLB   C4A35624  13.371  16.839   8.162  0.0425  0.1629 -0.5247
 1485BOLB   C1B35625  12.988  17.570   9.119  0.0363  0.2136  0.3186
 1485BOLB   C2B35626  12.925  17.744   8.718  0.0225  0.2212  0.2248
 1485BOLB   C3B35627  12.875  17.841   8.321  0.1675 -0.0492  0.2808
 1485BOLB   C4B35628  12.795  17.828   7.819 -0.0724  0.0500 -0.2886
 1485BOLB   NC235629  12.765  16.718   5.788 -0.1179  0.1339  0.2367
 1485BOLB   PO235630  12.500  16.427   5.953 -0.0680 -0.2275  0.0737
 1485BOLB   GL335631  12.465  16.505   6.329  0.1451  0.0445 -0.0127
 1485BOLB   GL435632  12.461  16.757   6.514  0.0275 -0.0297 -0.0426
 1485BOLB   C1C35633  12.693  16.389   6.746 -0.1873 -0.0261  0.2706
 1485BOLB   C2C35634  12.994  16.532   6.946 -0.0769  0.1388 -0.2465
 1485BOLB   C3C35635  13.089  16.602   7.402 -0.3403  0.1320 -0.4293
 1485BOLB   C4C35636  13.204  16.869   7.742 -0.0915 -0.0364 -0.2698
 1485BOLB   C1D35637  12.908  16.773   6.472 -0.0574  0.1802 -0.0731
 1485BOLB   C2D35638  13.117  17.008   6.607  0.3943 -0.0259 -0.3934
 1485BOLB   C3D35639  13.072  17.026   7.039 -0.3293  0.3088 -0.0836
 1485BOLB   C4D35640  12.824  17.101   7.481 -0.2973  0.1455 -0.1358
 1486BOLB   NC135641  14.689  15.151  10.086  0.1581 -0.0808  0.0809
 1486BOLB   PO135642  15.166  15.110  10.029  0.0341 -0.0030  0.0439
 1486BOLB   GL135643  15.450  15.340   9.683 -0.0421  0.2270  0.3110
 1486BOLB   GL235644  15.273  15.045   9.490 -0.1370 -0.3674 -0.1648
 1486BOLB   C1A35645  15.599  15.269   9.250  0.1896 -0.3333 -0.1484
 1486BOLB   C2A35646  15.553  14.980   8.967 -0.0203  0.2972  0.0670
 1486BOLB   C3A35647  15.497  14.933   8.551  0.2929 -0.1827 -0.2580
 1486BOLB   C4A35648  15.637  15.042   8.067 -0.1137 -0.2436 -0.1965
 1486BOLB   C1B35649  15.691  14.782   9.430  0.1010 -0.0054  0.0883
 1486BOLB   C2B35650  15.952  14.713   9.175  0.1991 -0.1449  0.0446
 1486BOLB   C3B35651  16.274  14.458   9.004  0.0218  0.1829  0.0149
 1486BOLB   C4B35652  16.381  14.312   8.571 -0.3614  0.1883  0.3787
 1486BOLB   NC235653  17.398  14.439   6.226 -0.0207 -0.0786  0.2048
 1486BOLB   PO235654  16.990  14.410   6.238 -0.0167 -0.1469  0.1174
 1486BOLB   GL335655  16.708  14.696   6.426 -0.2341  0.3960  0.4333
 1486BOLB   GL435656  16.462  14.530   6.503 -0.1274  0.0527  0.3383
 1486BOLB   C1C35657  16.731  15.031   6.710 -0.1622 -0.0236 -0.1008
 1486BOLB   C2C35658  16.485  15.086   7.174  0.1898  0.1133 -0.0101
 1486BOLB   C3C35659  16.224  15.318   7.432  0.0036  0.1900  0.1066
 1486BOLB   C4C35660  15.806  15.235   7.692  0.1631  0.2697  0.2392
 1486BOLB   C1D35661  16.788  14.567   6.900 -0.2040  0.0006  0.5035
 1486BOLB   C2D35662  16.937  14.270   7.230 -0.1496 -0.1403 -0.0016
 1486BOLB   C3D35663  16.901  14.143   7.635  0.0618  0.2165  0.2922
 1486BOLB   C4D35664  17.002  14.119   8.039 -0.0378 -0.1604 -0.3363
 1487BOLB   NC135665  15.954   9.232  13.184  0.1299 -0.0123  0.1631
 1487BOLB   PO135666  15.977   9.295  12.722 -0.1751 -0.1129 -0.0818
 1487BOLB   GL135667  16.287   9.148  12.473 -0.0482 -0.1532 -0.5247
 1487BOLB   GL235668  16.246   9.261  12.181  0.0090 -0.1040 -0.0974
 1487BOLB   C1A35669  16.571   8.798  12.185  0.1974 -0.1707 -0.0170
 1487BOLB   C2A35670  16.787   8.654  11.877 -0.1299  0.0395  0.0460
 1487BOLB   C3A35671  16.906   8.274  11.621 -0.0326  0.2585  0.0280
 1487BOLB   C4A35672  16.852   8.065  11.370 -0.2677 -0.1533  0.0563
 1487BOLB   C1B35673  16.559   9.291  11.914 -0.1069 -0.2732 -0.1935
 1487BOLB   C2B35674  16.834   9.098  11.673 -0.1870 -0.2037 -0.4126
 1487BOLB   C3B35675  17.180   8.842  11.598 -0.2292  0.0255  0.0901
 1487BOLB   C4B35676  17.387   8.507  11.382  0.2849 -0.3774 -0.3035
 1487BOLB   NC235677  18.251   6.973  10.152  0.1811  0.1628 -0.1096
 1487BOLB   PO235678  17.703   7.011  10.185 -0.2259  0.0301 -0.0584
 1487BOLB   GL335679  17.492   7.240  10.271  0.0816  0.0743 -0.0411
 1487BOLB   GL435680  17.728   7.516  10.282 -0.2682  0.0802  0.1222
 1487BOLB   C1C35681  17.124   7.512  10.213 -0.2162 -0.0325  0.0573
 1487BOLB   C2C35682  16.841   7.852  10.446 -0.0415  0.4078 -0.0224
 1487BOLB   C3C35683  16.823   8.230  10.684  0.4569 -0.2544 -0.0940
 1487BOLB   C4C35684  16.649   8.260  11.022 -0.2264 -0.1989  0.0780
 1487BOLB   C1D35685  17.680   7.975  10.169  0.1023 -0.0096 -0.0285
 1487BOLB   C2D35686  17.606   8.318   9.993  0.0280  0.1550  0.0947
 1487BOLB   C3D35687  17.167   8.524   9.984 -0.2685 -0.2457 -0.3224
 1487BOLB   C4D35688  17.118   8.929  10.059 -0.3601  0.1000 -0.1379
 1488BOLB   NC135689  17.555  19.272  10.653  0.2557  0.3204 -0.1553
 1488BOLB   PO135690  17.693  19.151  10.251  0.0036  0.0870 -0.0753
 1488BOLB   GL135691  17.747  19.141   9.850 -0.0730 -0.2711 -0.0914
 1488BOLB   GL235692  17.388  19.099   9.795 -0.1011 -0.0988  0.1129
 1488BOLB   C1A35693  18.057  19.198   9.469  0.0515 -0.0777 -0.1439
 1488BOLB   C2A35694  18.315  19.350   9.054 -0.2401  0.1295  0.3742
 1488BOLB   C3A35695  18.622  19.379   8.862 -0.1363  0.0787 -0.1247
 1488BOLB   C4A35696  18.906  19.103   8.640 -0.2221  0.0221  0.2183
 1488BOLB   C1B35697  17.237  19.068   9.421 -0.1353  0.4231  0.0901
 1488BOLB   C2B35698  17.320  19.042   9.001  0.0174  0.1707  0.0999
 1488BOLB   C3B35699  17.535  18.947   8.730 -0.0294  0.2849 -0.2242
 1488BOLB   C4B35700  17.769  19.066   8.411 -0.0387  0.0481  0.0523
 1488BOLB   NC235701  19.479  19.649   6.842  0.2128 -0.2476  0.3282
 1488BOLB   PO235702  19.317  20.027   6.880 -0.0570  0.2856  0.1466
 1488BOLB   GL335703  18.941  19.836   7.122 -0.0702  0.0357 -0.1474
 1488BOLB   GL435704  18.663  19.972   7.132 -0.2106 -0.0952  0.3248
 1488BOLB   C1C35705  18.791  19.415   7.319 -0.0243 -0.0694 -0.0092
 1488BOLB   C2C35706  18.813  19.146   7.669 -0.0384 -0.1004  0.3928
 1488BOLB   C3C35707  18.527  18.927   7.929  0.0338  0.1015  0.2181
 1488BOLB   C4C35708  18.741  18.895   8.331 -0.0906 -0.0174  0.3182
 1488BOLB   C1D35709  18.527  19.855   7.428  0.1320 -0.3821  0.1649
 1488BOLB   C2D35710  18.385  19.479   7.632 -0.2699 -0.1600 -0.0812
 1488BOLB   C3D35711  18.171  19.386   7.965 -0.2188  0.1230 -0.0874
 1488BOLB   C4D35712  17.735  19.310   7.969  0.3456 -0.1917  0.0887
 1489BOLB   NC135713  16.726  15.688   9.964  0.0257 -0.3866 -0.1765
 1489BOLB   PO135714  17.096  16.026   9.942 -0.1235 -0.2088 -0.1433
 1489BOLB   GL135715  17.317  16.271   9.541  0.2226  0.0792  0.0681
 1489BOLB   GL235716  17.625  16.181   9.553  0.0677  0.1313 -0.2829
 1489BOLB   C1A35717  17.264  16.158   9.113 -0.3766  0.1608  0.3679
 1489BOLB   C2A35718  17.416  16.220   8.676  0.0308  0.1208 -0.0749
 1489BOLB   C3A35719  17.838  16.155   8.459  0.0799  0.2873 -0.4231
 1489BOLB   C4A35720  17.658  16.463   7.979  0.0951 -0.1903  0.1645
 1489BOLB   C1B35721  17.773  16.102   9.112 -0.0847  0.1103  0.3542
 1489BOLB   C2B35722  17.834  15.719   8.830  0.2467  0.0031  0.3440
 1489BOLB   C3B35723  17.933  15.626   8.364  0.0226  0.0615 -0.0243
 1489BOLB   C4B35724  17.936  15.278   8.166  0.2605 -0.3397 -0.0121
 1489BOLB   NC235725  17.315  15.733   5.929  0.3433 -0.1176 -0.1608
 1489BOLB   PO235726  17.701  15.789   5.745  0.0785 -0.1518  0.1635
 1489BOLB   GL335727  17.744  15.846   6.220  0.1416  0.2616  0.1503
 1489BOLB   GL435728  18.094  16.011   6.248 -0.2570 -0.0118  0.0602
 1489BOLB   C1C35729  17.725  16.119   6.573 -0.2540 -0.4430 -0.0395
 1489BOLB   C2C35730  17.729  16.494   6.836 -0.0809 -0.1938 -0.4059
 1489BOLB   C3C35731  17.558  16.548   7.220 -0.0430 -0.0857 -0.1164
 1489BOLB   C4C35732  17.565  16.488   7.610  0.0447  0.2686 -0.1173
 1489BOLB   C1D35733  18.080  15.808   6.665 -0.3724 -0.0463 -0.0797
 1489BOLB   C2D35734  18.464  15.774   6.975  0.1183 -0.0542 -0.1947
 1489BOLB   C3D35735  18.239  15.829   7.375 -0.1971 -0.0047  0.0541
 1489BOLB   C4D35736  18.106  15.701   7.810  0.3200  0.2937 -0.2809
 1490BOLB   NC135737  11.290   9.616  12.353  0.0858  0.2186  0.0771
 1490BOLB   PO135738  11.612   9.461  12.094  0.1002 -0.0675  0.0604
 1490BOLB   GL135739  11.346   9.217  11.849 -0.0782  0.0162  0.0720
 1490BOLB   GL235740  11.626   9.051  11.679  0.1132 -0.0636  0.1038
 1490BOLB   C1A35741  11.327   9.166  11.339 -0.2814  0.1094 -0.2632
 1490BOLB   C2A35742  11.352   8.813  11.021 -0.1684  0.2139  0.0635
 1490BOLB   C3A35743  11.321   8.875  10.653 -0.0186  0.0972  0.2325
 1490BOLB   C4A35744  11.445   8.768  10.269 -0.2985  0.2174 -0.0791
 1490BOLB   C1B35745  11.748   8.784  11.382 -0.2648  0.2995  0.1755
 1490BOLB   C2B35746  11.965   8.695  10.912 -0.2538 -0.0718 -0.4331
 1490BOLB   C3B35747  11.962   8.965  10.566  0.2142  0.1750  0.1193
 1490BOLB   C4B35748  12.111   9.246  10.314 -0.0847 -0.2018 -0.1271
 1490BOLB   NC235749  12.290   7.600   8.638 -0.1026 -0.1456  0.1755
 1490BOLB   PO235750  11.921   7.772   8.357  0.0456  0.0542  0.2038
 1490BOLB   GL335751  12.052   8.152   8.496 -0.2147  0.0396 -0.0401
 1490BOLB   GL435752  12.198   8.373   8.328  0.3561 -0.0049  0.2696
 1490BOLB   C1C35753  11.929   8.445   8.758  0.0787 -0.1071  0.1291
 1490BOLB   C2C35754  11.664   8.765   9.032  0.0702 -0.1524  0.2265
 1490BOLB   C3C35755  11.409   8.942   9.438 -0.4263  0.1666  0.0500
 1490BOLB   C4C35756  11.313   8.844   9.910  0.0840  0.1614 -0.1561
 1490BOLB   C1D35757  12.303   8.736   8.296 -0.0413  0.0131  0.1191
 1490BOLB   C2D35758  12.190   9.113   8.420  0.1765  0.1625 -0.0141
 1490BOLB   C3D35759  12.240   9.391   8.733 -0.0592  0.0050 -0.1982
 1490BOLB   C4D35760  12.008   9.602   9.104  0.1520  0.0379 -0.0672
 1491BOLB   NC135761  10.275  11.268  11.833 -0.2075  0.1838 -0.1344
 1491BOLB   PO135762  10.022  11.067  11.548  0.0309  0.4187 -0.1019
 1491BOLB   GL135763  10.231  10.933  11.147  0.3420 -0.1062 -0.1319
 1491BOLB   GL235764  10.503  10.657  11.052  0.0185  0.1763  0.2048
 1491BOLB   C1A35765  10.058  10.725  10.791  0.0390 -0.0867  0.1138
 1491BOLB   C2A35766   9.944  10.690  10.434 -0.1125  0.0280  0.1130
 1491BOLB   C3A35767   9.958  10.707  10.053 -0.2148  0.1210 -0.2389
 1491BOLB   C4A35768  10.160  10.816   9.660 -0.0431 -0.0074 -0.1023
 1491BOLB   C1B35769  10.412  10.415  10.578 -0.0464  0.0065 -0.0502
 1491BOLB   C2B35770  10.244  10.251  10.203  0.0985 -0.1084  0.1923
 1491BOLB   C3B35771  10.040  10.181   9.791  0.2235 -0.0710 -0.0803
 1491BOLB   C4B35772   9.751  10.181   9.422  0.1948  0.0854  0.1201
 1491BOLB   NC235773  10.572  10.388   7.613 -0.2892 -0.1197 -0.0710
 1491BOLB   PO235774  10.486   9.964   7.651 -0.1351 -0.1076  0.2730
 1491BOLB   GL335775  10.531   9.881   8.108  0.0430 -0.2724  0.0889
 1491BOLB   GL435776  10.263   9.619   8.161 -0.2607 -0.0729  0.0390
 1491BOLB   C1C35777  10.583  10.099   8.441 -0.2419 -0.0127 -0.0160
 1491BOLB   C2C35778  10.265  10.350   8.588  0.2007  0.0604  0.0357
 1491BOLB   C3C35779  10.252  10.480   8.912 -0.1838 -0.0769  0.0944
 1491BOLB   C4C35780  10.194  10.662   9.267  0.2508 -0.2875  0.1877
 1491BOLB   C1D35781  10.204   9.358   8.477  0.0516  0.2539 -0.1327
 1491BOLB   C2D35782   9.998   9.431   8.998  0.0426  0.3961 -0.1560
 1491BOLB   C3D35783   9.827   9.621   9.340  0.3652  0.0789  0.0048
 1491BOLB   C4D35784   9.973   9.569   9.710  0.0026  0.2134 -0.0930
 1492BOLB   NC135785  18.749  17.397  10.763  0.2882 -0.3235 -0.1046
 1492BOLB   PO135786  18.984  17.321  10.433  0.1428  0.0337 -0.1527
 1492BOLB   GL135787  19.185  17.230   9.991  0.1489  0.1528 -0.1128
 1492BOLB   GL235788  18.874  17.312   9.813  0.1150 -0.2308  0.1035
 1492BOLB   C1A35789  19.298  16.964   9.593  0.0524 -0.0461 -0.2117
 1492BOLB   C2A35790  19.589  17.009   9.328 -0.0759  0.1772  0.1516
 1492BOLB   C3A35791  19.897  16.958   9.049  0.1948  0.1316  0.1950
 1492BOLB   C4A35792  20.130  16.697   8.770  0.2436 -0.0475  0.1371
 1492BOLB   C1B35793  19.015  17.361   9.468 -0.0945  0.1969 -0.2062
 1492BOLB   C2B35794  19.301  17.353   9.202 -0.2023  0.1500  0.2460
 1492BOLB   C3B35795  19.526  17.294   8.771  0.1796 -0.1549  0.0088
 1492BOLB   C4B35796  19.788  17.149   8.423  0.4141  0.3079  0.1917
 1492BOLB   NC235797  20.383  16.588   6.473 -0.1116  0.0409 -0.3255
 1492BOLB   PO235798  20.780  16.591   6.760 -0.1793 -0.2793 -0.1224
 1492BOLB   GL335799  20.607  16.591   7.105  0.1975  0.0680  0.1144
 1492BOLB   GL435800  20.835  16.522   7.365 -0.1620 -0.0494  0.0794
 1492BOLB   C1C35801  20.164  16.658   7.219  0.2563 -0.1725  0.2886
 1492BOLB   C2C35802  19.963  16.791   7.601 -0.2211  0.1158  0.2322
 1492BOLB   C3C35803  19.974  16.444   7.946 -0.2021  0.1603  0.1804
 1492BOLB   C4C35804  19.997  16.350   8.426 -0.2338 -0.0310 -0.1627
 1492BOLB   C1D35805  20.927  16.288   7.736 -0.3186 -0.0509 -0.0485
 1492BOLB   C2D35806  20.743  16.025   7.970 -0.0100  0.0591  0.5798
 1492BOLB   C3D35807  20.537  15.656   7.964  0.2923  0.0345  0.2465
 1492BOLB   C4D35808  20.313  15.467   8.282 -0.0935 -0.0248  0.0944
 1493BOLB   NC135809  10.155  10.115  11.777 -0.2878 -0.0483  0.2162
 1493BOLB   PO135810   9.808  10.583  11.693 -0.1865  0.1140 -0.5191
 1493BOLB   GL135811   9.832  10.523  11.269  0.1679 -0.0273 -0.4343
 1493BOLB   GL235812  10.092  10.388  11.152  0.2687 -0.1305 -0.0844
 1493BOLB   C1A35813   9.596  10.568  10.915 -0.2522  0.1677 -0.3141
 1493BOLB   C2A35814   9.422  10.687  10.566 -0.0874 -0.1730  0.1110
 1493BOLB   C3A35815   9.450  10.804  10.082  0.3235 -0.1126  0.2285
 1493BOLB   C4A35816   9.351  11.024   9.805  0.0840 -0.0262 -0.2483
 1493BOLB   C1B35817   9.907  10.211  10.776 -0.1109  0.1954  0.0582
 1493BOLB   C2B35818   9.687  10.193  10.449  0.5075 -0.3341  0.0207
 1493BOLB   C3B35819   9.595  10.339  10.057 -0.2823 -0.1083  0.0330
 1493BOLB   C4B35820   9.278  10.500   9.664  0.0697 -0.1472 -0.1541
 1493BOLB   NC235821   7.926  11.267   7.517 -0.0740 -0.0382 -0.3477
 1493BOLB   PO235822   7.895  10.961   7.902 -0.1731  0.0409  0.0508
 1493BOLB   GL335823   7.875  11.137   8.405 -0.1614  0.0878 -0.0612
 1493BOLB   GL435824   7.636  10.971   8.426 -0.0996 -0.0678  0.0781
 1493BOLB   C1C35825   7.995  10.999   8.823 -0.2392  0.2483  0.3897
 1493BOLB   C2C35826   8.250  11.173   9.121 -0.3825 -0.4492  0.0573
 1493BOLB   C3C35827   8.594  11.276   9.430 -0.1339 -0.4445  0.0527
 1493BOLB   C4C35828   9.034  11.279   9.665  0.1139  0.3741  0.1845
 1493BOLB   C1D35829   7.339  11.256   8.527  0.0810 -0.0655 -0.0058
 1493BOLB   C2D35830   6.934  11.293   8.704 -0.0052 -0.1655 -0.1750
 1493BOLB   C3D35831   6.812  11.661   8.887  0.1488 -0.0182 -0.2186
 1493BOLB   C4D35832   6.840  12.046   8.828 -0.2632  0.1555  0.2822
 1494BOLB   NC135833  11.197  13.838  10.549 -0.1630  0.1196  0.1788
 1494BOLB   PO135834  10.795  14.033  10.402  0.1055  0.0504  0.4033
 1494BOLB   GL135835  10.698  14.293  10.094 -0.0305  0.0579 -0.1635
 1494BOLB   GL235836  10.816  14.519   9.911  0.2079 -0.1888  0.0518
 1494BOLB   C1A35837  10.483  14.231   9.625  0.1263 -0.1186  0.2199
 1494BOLB   C2A35838  10.301  14.092   9.221  0.2388  0.3853 -0.0754
 1494BOLB   C3A35839  10.058  13.813   8.918 -0.0600  0.0559  0.2948
 1494BOLB   C4A35840  10.096  13.645   8.483  0.0209  0.1338  0.2192
 1494BOLB   C1B35841  10.808  14.631   9.374  0.1455 -0.2728 -0.0845
 1494BOLB   C2B35842  10.524  14.541   9.116  0.0886  0.3593 -0.2929
 1494BOLB   C3B35843  10.436  14.675   8.605  0.3221 -0.1226  0.0086
 1494BOLB   C4B35844  10.393  14.691   8.156  0.0346 -0.1254 -0.0735
 1494BOLB   NC235845  10.431  14.102   6.506 -0.3107 -0.3097 -0.1956
 1494BOLB   PO235846  10.792  14.301   6.323  0.0581 -0.0448 -0.0213
 1494BOLB   GL335847  10.846  14.399   6.775  0.2400  0.0694 -0.0839
 1494BOLB   GL435848  11.107  14.120   6.892 -0.0639  0.2748  0.1009
 1494BOLB   C1C35849  10.679  14.291   7.163  0.3794  0.0936  0.1083
 1494BOLB   C2C35850  10.289  13.915   7.318 -0.2313  0.1890 -0.1103
 1494BOLB   C3C35851  10.280  13.653   7.620 -0.0321 -0.0431 -0.1554
 1494BOLB   C4C35852  10.163  13.622   8.098 -0.0889 -0.0765  0.5070
 1494BOLB   C1D35853  11.115  14.020   7.288 -0.0028 -0.0384 -0.0188
 1494BOLB   C2D35854  11.148  13.786   7.687  0.3283 -0.0890 -0.0241
 1494BOLB   C3D35855  11.468  13.677   7.836 -0.3922  0.0071 -0.0585
 1494BOLB   C4D35856  11.788  13.351   7.564 -0.3101 -0.1750 -0.1517
 1495BOLB   NC135857  18.695  10.068  13.525  0.0245 -0.1396 -0.0327
 1495BOLB   PO135858  18.667   9.657  13.608  0.2047  0.2410 -0.1318
 1495BOLB   GL135859  19.028   9.649  13.361  0.0396  0.0499 -0.2785
 1495BOLB   GL235860  19.372   9.557  13.532  0.3199 -0.2690  0.1650
 1495BOLB   C1A35861  19.182   9.415  13.009 -0.4923  0.0760  0.2603
 1495BOLB   C2A35862  19.272   8.947  12.888 -0.0831 -0.2224 -0.1681
 1495BOLB   C3A35863  19.553   8.648  12.793  0.0594  0.0634 -0.0417
 1495BOLB   C4A35864  19.709   8.238  12.648  0.0909  0.2004  0.0615
 1495BOLB   C1B35865  19.539   9.185  13.382 -0.0135 -0.2391  0.1443
 1495BOLB   C2B35866  19.680   8.706  13.303 -0.1293  0.0168  0.4326
 1495BOLB   C3B35867  19.840   8.288  13.335 -0.2431 -0.0574  0.0664
 1495BOLB   C4B35868  19.834   7.800  13.283 -0.2136 -0.2161  0.0356
 1495BOLB   NC235869  21.066   5.825  12.152 -0.0706  0.0951 -0.0762
 1495BOLB   PO235870  20.814   6.143  12.340  0.1210  0.0256  0.1253
 1495BOLB   GL335871  20.812   6.493  12.640 -0.3886 -0.0116 -0.0336
 1495BOLB   GL435872  21.145   6.647  12.680 -0.5390  0.1775 -0.1828
 1495BOLB   C1C35873  20.464   6.714  12.776 -0.3360 -0.2409  0.0688
 1495BOLB   C2C35874  20.266   7.074  12.800  0.1048  0.2360  0.3118
 1495BOLB   C3C35875  20.031   7.513  12.699 -0.2392 -0.1978  0.0268
 1495BOLB   C4C35876  19.740   7.809  12.648  0.4110 -0.2342 -0.0436
 1495BOLB   C1D35877  20.804   7.065  12.730 -0.1332  0.0224 -0.0746
 1495BOLB   C2D35878  20.680   7.228  13.070 -0.1054  0.1745  0.0343
 1495BOLB   C3D35879  20.511   7.169  13.451  0.3215 -0.1427  0.1686
 1495BOLB   C4D35880  20.168   7.269  13.730  0.2251  0.1085  0.0677
 1496BOLB   NC135881  21.159  19.446  11.310 -0.3663  0.0146 -0.1645
 1496BOLB   PO135882  21.382  19.627  10.962 -0.0074  0.0298 -0.1899
 1496BOLB   GL135883  21.522  20.019  10.857 -0.0470  0.2195 -0.3232
 1496BOLB   GL235884  21.507  20.300  10.885 -0.3252  0.1474 -0.1709
 1496BOLB   C1A35885  21.583  20.240  10.418  0.1444 -0.1331  0.0658
 1496BOLB   C2A35886  21.796  20.412  10.133  0.3076 -0.1211 -0.0874
 1496BOLB   C3A35887  22.288  20.232   9.971 -0.3009 -0.0104 -0.0539
 1496BOLB   C4A35888  22.491  19.881   9.824 -0.1253  0.3581  0.1019
 1496BOLB   C1B35889  22.021  20.304  10.702 -0.1197  0.2713  0.1992
 1496BOLB   C2B35890  22.413  20.154  10.461  0.2007  0.0950  0.1563
 1496BOLB   C3B35891  22.554  19.733  10.324 -0.2432  0.0140  0.0624
 1496BOLB   C4B35892  22.849  19.491  10.135  0.2332  0.2619 -0.0229
 1496BOLB   NC235893  24.565  21.239   8.469  0.0427 -0.2895  0.1804
 1496BOLB   PO235894  24.234  21.203   8.749 -0.0791 -0.0071 -0.0803
 1496BOLB   GL335895  24.046  20.907   8.971 -0.2282  0.0464  0.0523
 1496BOLB   GL435896  24.229  20.708   9.217 -0.1496 -0.2875  0.1178
 1496BOLB   C1C35897  23.627  20.647   9.007  0.0917 -0.0257  0.1471
 1496BOLB   C2C35898  23.373  20.308   9.146 -0.1289  0.0649 -0.3431
 1496BOLB   C3C35899  23.023  20.035   9.169  0.0553  0.0126 -0.4670
 1496BOLB   C4C35900  22.622  19.873   9.408 -0.0331 -0.0471 -0.0126
 1496BOLB   C1D35901  23.819  20.749   9.483  0.1723  0.0959 -0.2112
 1496BOLB   C2D35902  23.558  20.544   9.783 -0.0393 -0.0003 -0.5131
 1496BOLB   C3D35903  23.175  20.336   9.619  0.1328 -0.1637 -0.1007
 1496BOLB   C4D35904  22.768  20.331   9.551  0.2651  0.0984  0.0435
 1497BOLB   NC135905  10.465  12.168  11.094  0.0447  0.1603  0.2508
 1497BOLB   PO135906  10.823  12.309  10.863 -0.3863 -0.1934 -0.2781
 1497BOLB   GL135907  10.718  12.009  10.545  0.2823  0.2392  0.2256
 1497BOLB   GL235908  10.565  11.722  10.564  0.2145  0.0995 -0.1564
 1497BOLB   C1A35909  10.761  11.713  10.137  0.0462 -0.1818 -0.2550
 1497BOLB   C2A35910  10.731  11.439   9.837 -0.1581  0.0613  0.0436
 1497BOLB   C3A35911  10.993  11.372   9.472  0.3426 -0.1094  0.1945
 1497BOLB   C4A35912  11.034  11.175   9.027  0.1713  0.2158 -0.0812
 1497BOLB   C1B35913  10.757  11.336  10.472 -0.2816  0.2894 -0.1384
 1497BOLB   C2B35914  10.758  11.041  10.149 -0.2850 -0.4130 -0.0258
 1497BOLB   C3B35915  10.873  10.832   9.909 -0.1719  0.3349  0.2092
 1497BOLB   C4B35916  10.841  10.771   9.461  0.4723 -0.1990 -0.0764
 1497BOLB   NC235917  12.212  11.486   6.563  0.1021  0.3694 -0.1348
 1497BOLB   PO235918  12.292  11.243   7.070 -0.0557  0.1215  0.1718
 1497BOLB   GL335919  12.134  11.508   7.431  0.0251  0.2231 -0.0834
 1497BOLB   GL435920  12.497  11.624   7.613 -0.0389 -0.0424 -0.4351
 1497BOLB   C1C35921  11.976  11.754   7.798  0.0297  0.2441 -0.2155
 1497BOLB   C2C35922  11.732  11.670   8.108 -0.0844 -0.0594  0.2105
 1497BOLB   C3C35923  11.385  11.370   8.354 -0.1023 -0.1640 -0.0137
 1497BOLB   C4C35924  11.088  11.181   8.569  0.0258 -0.2133  0.0510
 1497BOLB   C1D35925  12.397  11.665   8.004  0.3752 -0.1419  0.3750
 1497BOLB   C2D35926  12.400  11.413   8.288 -0.0806  0.0717 -0.1965
 1497BOLB   C3D35927  12.775  11.571   8.566 -0.3187  0.2983  0.0530
 1497BOLB   C4D35928  12.633  11.974   8.626 -0.0668 -0.1877 -0.1213
 1498BOLB   NC135929   9.972  19.035  11.573 -0.1255 -0.2010  0.2772
 1498BOLB   PO135930   9.600  18.853  11.689 -0.2597  0.1184  0.4441
 1498BOLB   GL135931   9.462  18.798  11.303  0.3519  0.0286  0.2399
 1498BOLB   GL235932   9.728  18.947  11.143  0.2337  0.3855  0.2457
 1498BOLB   C1A35933   9.045  18.683  11.113 -0.1414  0.1485 -0.1959
 1498BOLB   C2A35934   8.644  18.629  10.970 -0.2686  0.2503 -0.0492
 1498BOLB   C3A35935   8.424  18.875  10.713  0.0669  0.1078 -0.1871
 1498BOLB   C4A35936   8.188  19.132  10.395  0.2030 -0.1000 -0.0985
 1498BOLB   C1B35937   9.386  19.101  10.927 -0.0575  0.1079  0.1305
 1498BOLB   C2B35938   9.252  19.305  10.578  0.0451  0.0352  0.1534
 1498BOLB   C3B35939   8.969  19.452  10.267  0.1112  0.2830 -0.0179
 1498BOLB   C4B35940   8.714  19.345   9.887 -0.0756 -0.0864 -0.3386
 1498BOLB   NC235941   7.014  18.194   8.433  0.2324 -0.1166 -0.0782
 1498BOLB   PO235942   7.093  18.745   8.279  0.1310  0.0365 -0.0882
 1498BOLB   GL335943   7.323  18.555   8.624 -0.2894 -0.0754 -0.0696
 1498BOLB   GL435944   7.561  18.218   8.584  0.2099 -0.0780 -0.2685
 1498BOLB   C1C35945   7.662  18.678   8.924  0.0419 -0.0843  0.0436
 1498BOLB   C2C35946   7.666  18.631   9.341 -0.2078 -0.1388 -0.0137
 1498BOLB   C3C35947   7.912  18.829   9.671 -0.1809  0.0411  0.1792
 1498BOLB   C4C35948   7.873  19.004  10.133 -0.1978 -0.0998  0.0753
 1498BOLB   C1D35949   7.487  18.259   9.051 -0.0495  0.0600  0.2885
 1498BOLB   C2D35950   7.348  18.297   9.392  0.1820  0.2569  0.5818
 1498BOLB   C3D35951   7.671  18.270   9.714 -0.2074 -0.1236 -0.2226
 1498BOLB   C4D35952   7.695  18.113  10.207  0.0586 -0.0041  0.1510
 1499BOLB   NC135953  10.783  24.355  12.803  0.1567 -0.0377  0.4170
 1499BOLB   PO135954  11.068  24.453  13.088  0.1686  0.0159 -0.1875
 1499BOLB   GL135955  11.218  24.704  12.804  0.0179  0.2808 -0.0456
 1499BOLB   GL235956  11.322  25.096  12.775  0.0279  0.0565  0.2590
 1499BOLB   C1A35957  11.362  24.770  12.313  0.2779 -0.1410  0.3045
 1499BOLB   C2A35958  11.353  25.087  12.035 -0.1298  0.0013  0.0599
 1499BOLB   C3A35959  11.617  25.353  11.864  0.0949  0.3508  0.2582
 1499BOLB   C4A35960  11.654  25.556  11.507 -0.4032  0.0199 -0.1620
 1499BOLB   C1B35961  11.288  25.358  12.455  0.4283  0.2261  0.0181
 1499BOLB   C2B35962  11.417  25.731  12.224  0.2703  0.1130  0.0811
 1499BOLB   C3B35963  11.759  25.790  11.971  0.0309 -0.0344 -0.0688
 1499BOLB   C4B35964  12.083  25.774  11.828 -0.4177  0.3953  0.0207
 1499BOLB   NC235965  11.582  27.194   9.727  0.2419  0.1475  0.1248
 1499BOLB   PO235966  11.812  27.031   9.382  0.1326 -0.2959 -0.2243
 1499BOLB   GL335967  11.851  26.770   9.823  0.0590 -0.2339  0.3843
 1499BOLB   GL435968  11.461  26.774   9.951 -0.2370 -0.2651  0.2787
 1499BOLB   C1C35969  12.137  26.358  10.067 -0.7059  0.0615 -0.0903
 1499BOLB   C2C35970  12.433  26.064  10.329 -0.3274  0.3858 -0.1619
 1499BOLB   C3C35971  12.170  25.962  10.775 -0.0515 -0.0881  0.0623
 1499BOLB   C4C35972  11.863  25.719  11.081  0.0339  0.1031  0.1431
 1499BOLB   C1D35973  11.643  26.447  10.302  0.0703 -0.0605 -0.0939
 1499BOLB   C2D35974  11.707  26.346  10.777  0.0900 -0.2622  0.2334
 1499BOLB   C3D35975  11.554  26.189  11.146  0.1947  0.4333 -0.2656
 1499BOLB   C4D35976  11.230  25.907  11.315  0.0056 -0.0086 -0.0847
 1500BOLB   NC135977  12.131  19.994  10.877  0.0091 -0.0402 -0.1914
 1500BOLB   PO135978  11.927  20.386  10.585  0.2954 -0.0538  0.2478
 1500BOLB   GL135979  11.797  20.531  10.192 -0.0339 -0.0636 -0.1640
 1500BOLB   GL235980  11.904  20.635   9.930  0.0041  0.2693 -0.1067
 1500BOLB   C1A35981  11.554  20.865   9.809 -0.2526  0.0058 -0.5433
 1500BOLB   C2A35982  11.475  20.906   9.380 -0.2643 -0.1526  0.0736
 1500BOLB   C3A35983  11.600  21.163   9.000 -0.1756  0.0175  0.0561
 1500BOLB   C4A35984  11.441  21.456   8.770  0.0190 -0.0923 -0.1735
 1500BOLB   C1B35985  11.848  20.621   9.483 -0.0356  0.0757 -0.3055
 1500BOLB   C2B35986  11.713  20.557   9.107  0.1222 -0.3524  0.4740
 1500BOLB   C3B35987  11.356  20.665   8.796 -0.1390 -0.0017  0.0959
 1500BOLB   C4B35988  11.098  21.042   8.875  0.2212 -0.1761  0.0033
 1500BOLB   NC235989  11.567  21.449   6.179 -0.2003  0.1617  0.1487
 1500BOLB   PO235990  11.705  21.466   6.662 -0.2651 -0.1313  0.1439
 1500BOLB   GL335991  11.753  21.458   7.079  0.0714 -0.2491 -0.2363
 1500BOLB   GL435992  11.422  21.504   7.269  0.0090  0.0713 -0.1625
 1500BOLB   C1C35993  11.770  21.259   7.571 -0.3857 -0.0705  0.1202
 1500BOLB   C2C35994  12.004  21.343   7.906 -0.1024 -0.1377 -0.2385
 1500BOLB   C3C35995  11.924  21.274   8.250 -0.3587  0.3242  0.2605
 1500BOLB   C4C35996  11.527  21.536   8.406 -0.2432  0.1515  0.0977
 1500BOLB   C1D35997  11.467  21.059   7.254 -0.1101 -0.2178 -0.0215
 1500BOLB   C2D35998  11.594  20.690   7.531 -0.0884 -0.1888  0.0930
 1500BOLB   C3D35999  11.788  20.366   7.872  0.2630 -0.1339 -0.0924
 1500BOLB   C4D36000  11.741  20.043   8.185 -0.0418  0.1441 -0.0307
 1501BOLB   NC136001  18.824  14.643  10.466 -0.0536 -0.0129  0.0777
 1501BOLB   PO136002  18.473  14.201  10.493  0.0333  0.0327 -0.0870
 1501BOLB   GL136003  18.673  14.113  10.246  0.1716  0.1878 -0.1257
 1501BOLB   GL236004  19.012  14.105  10.436 -0.1009 -0.1484  0.1004
 1501BOLB   C1A36005  19.021  14.287  10.003  0.0553 -0.0386 -0.2155
 1501BOLB   C2A36006  19.217  14.296   9.644  0.1987 -0.2072  0.2092
 1501BOLB   C3A36007  19.476  14.544   9.241 -0.1751 -0.2571 -0.2034
 1501BOLB   C4A36008  19.569  14.594   8.829 -0.1091 -0.0915  0.0992
 1501BOLB   C1B36009  19.096  13.813  10.191 -0.3726 -0.0943 -0.0559
 1501BOLB   C2B36010  18.936  13.836   9.800  0.3160  0.0562  0.0625
 1501BOLB   C3B36011  18.999  13.631   9.392  0.3895 -0.0612  0.0130
 1501BOLB   C4B36012  19.025  13.470   8.939 -0.0230  0.2101 -0.0019
 1501BOLB   NC236013  21.437  14.347   7.085  0.0902  0.1370 -0.1249
 1501BOLB   PO236014  21.194  14.464   6.753 -0.2098  0.1860 -0.0069
 1501BOLB   GL336015  20.921  14.585   7.067  0.0639 -0.2077 -0.1303
 1501BOLB   GL436016  20.893  14.898   7.210  0.2413 -0.0483 -0.1988
 1501BOLB   C1C36017  20.659  14.429   7.345  0.2500  0.0667 -0.2411
 1501BOLB   C2C36018  20.210  14.471   7.646 -0.1000 -0.2693  0.2515
 1501BOLB   C3C36019  19.939  14.646   7.962 -0.1009  0.2794  0.1567
 1501BOLB   C4C36020  19.637  14.620   8.300 -0.2148  0.0093  0.4252
 1501BOLB   C1D36021  20.781  15.179   7.711  0.2045  0.0335 -0.0917
 1501BOLB   C2D36022  20.734  15.275   8.111 -0.0858  0.2573  0.3137
 1501BOLB   C3D36023  20.757  15.602   8.403  0.0459 -0.2206  0.2702
 1501BOLB   C4D36024  20.786  15.901   8.514  0.2146  0.4976 -0.1011
 1502BOLB   NC136025  12.099  16.200  10.858 -0.2031 -0.0961 -0.1899
 1502BOLB   PO136026  12.102  15.998  10.296 -0.1980 -0.1593 -0.2123
 1502BOLB   GL136027  12.070  16.040   9.818  0.0099  0.1203 -0.1641
 1502BOLB   GL236028  12.344  16.102   9.746  0.0633 -0.1687 -0.0829
 1502BOLB   C1A36029  11.796  15.987   9.382 -0.0041 -0.3302  0.0691
 1502BOLB   C2A36030  11.878  16.032   8.929  0.5478 -0.2177 -0.0574
 1502BOLB   C3A36031  11.848  16.152   8.400  0.0447  0.2638 -0.1564
 1502BOLB   C4A36032  12.009  16.239   8.028 -0.1489 -0.1991  0.0934
 1502BOLB   C1B36033  12.308  15.866   9.276 -0.0190 -0.0378  0.2680
 1502BOLB   C2B36034  12.409  15.904   8.885 -0.1116  0.0500 -0.1322
 1502BOLB   C3B36035  12.467  15.855   8.445 -0.0345 -0.3090  0.0907
 1502BOLB   C4B36036  12.586  16.134   8.091  0.0048  0.2755  0.3391
 1502BOLB   NC236037  11.665  18.071   5.757 -0.1372 -0.1354 -0.2489
 1502BOLB   PO236038  11.447  17.775   6.127  0.0701 -0.0736 -0.1223
 1502BOLB   GL336039  11.409  17.807   6.525  0.1483  0.1320  0.0863
 1502BOLB   GL436040  11.253  18.009   6.758  0.0316 -0.0107 -0.2280
 1502BOLB   C1C36041  11.699  17.465   6.790  0.0275  0.0271  0.0369
 1502BOLB   C2C36042  11.777  17.187   7.223 -0.0322  0.1086 -0.1381
 1502BOLB   C3C36043  11.994  16.876   7.593  0.0250 -0.1910 -0.1210
 1502BOLB   C4C36044  12.010  16.491   7.677  0.3412  0.2148 -0.1254
 1502BOLB   C1D36045  11.369  18.201   7.077  0.3263  0.0610  0.0185
 1502BOLB   C2D36046  11.512  18.185   7.470 -0.0294 -0.0922  0.0433
 1502BOLB   C3D36047  11.834  18.144   7.821  0.3402  0.0456 -0.0679
 1502BOLB   C4D36048  11.986  18.182   8.153 -0.0646 -0.2886  0.1377
 1503BOLB   NC136049  18.075  24.215  14.359 -0.2153 -0.1791 -0.0564
 1503BOLB   PO136050  17.790  24.241  14.021 -0.0542 -0.2497 -0.0212
 1503BOLB   GL136051  18.015  24.376  13.744 -0.2165 -0.0140  0.0081
 1503BOLB   GL236052  17.840  24.307  13.509 -0.0274  0.0695 -0.2127
 1503BOLB   C1A36053  18.203  24.732  13.635 -0.0451 -0.2823  0.1094
 1503BOLB   C2A36054  18.397  25.088  13.467 -0.4672 -0.1059 -0.3586
 1503BOLB   C3A36055  18.612  25.463  13.496 -0.1038 -0.0935  0.0440
 1503BOLB   C4A36056  18.606  25.879  13.375  0.3742  0.0063 -0.1292
 1503BOLB   C1B36057  17.763  24.594  13.196 -0.0656 -0.1258  0.3332
 1503BOLB   C2B36058  17.560  24.604  12.833 -0.0068 -0.0199  0.2198
 1503BOLB   C3B36059  17.383  24.927  12.487 -0.2133  0.1169  0.3570
 1503BOLB   C4B36060  17.342  25.176  12.230  0.0025  0.1045  0.0149
 1503BOLB   NC236061  18.797  27.708  11.595 -0.0619  0.0725  0.0303
 1503BOLB   PO236062  18.595  27.661  12.048  0.1326  0.0530  0.2479
 1503BOLB   GL336063  18.789  27.338  12.162  0.0366  0.0467  0.0591
 1503BOLB   GL436064  18.960  27.253  11.972 -0.2882  0.1891  0.0997
 1503BOLB   C1C36065  18.556  27.254  12.552  0.3887 -0.2828  0.0543
 1503BOLB   C2C36066  18.643  26.919  12.914  0.2689 -0.0746  0.1781
 1503BOLB   C3C36067  18.751  26.688  13.211  0.2861 -0.1280  0.1073
 1503BOLB   C4C36068  18.720  26.332  13.395  0.2672 -0.0299 -0.0960
 1503BOLB   C1D36069  18.827  26.858  12.147 -0.0717 -0.1294  0.1528
 1503BOLB   C2D36070  18.765  26.605  12.588  0.1674  0.2530  0.3127
 1503BOLB   C3D36071  18.799  26.183  12.699  0.1719 -0.3494 -0.1544
 1503BOLB   C4D36072  19.043  25.836  12.663  0.0096 -0.2592 -0.1001
 1504BOLB   NC136073  22.040  22.099  13.104  0.1141 -0.0089  0.0288
 1504BOLB   PO136074  22.071  22.521  13.141 -0.1249 -0.5363 -0.1471
 1504BOLB   GL136075  22.078  22.465  12.710 -0.2374  0.0634  0.1044
 1504BOLB   GL236076  21.945  22.712  12.590 -0.0234 -0.0525  0.0634
 1504BOLB   C1A36077  22.136  22.360  12.279 -0.2969 -0.0192 -0.1553
 1504BOLB   C2A36078  22.557  22.419  12.125 -0.1090 -0.1345 -0.1065
 1504BOLB   C3A36079  22.783  22.367  11.742  0.1273  0.4241 -0.1904
 1504BOLB   C4A36080  23.034  22.376  11.359 -0.1120 -0.1740  0.1703
 1504BOLB   C1B36081  21.849  22.750  12.065 -0.0545 -0.0348 -0.0081
 1504BOLB   C2B36082  22.153  22.572  11.758 -0.2015  0.0179  0.0715
 1504BOLB   C3B36083  22.402  22.731  11.573 -0.2948  0.1396  0.0196
 1504BOLB   C4B36084  22.608  23.040  11.315  0.0195 -0.0730  0.0522
 1504BOLB   NC236085  23.510  22.558   8.795 -0.1196 -0.2256 -0.0040
 1504BOLB   PO236086  23.451  22.096   8.808 -0.0097 -0.1584  0.2583
 1504BOLB   GL336087  23.164  22.085   9.143  0.2114 -0.0859  0.1290
 1504BOLB   GL436088  23.019  21.876   9.083  0.3082  0.0138  0.2874
 1504BOLB   C1C36089  22.900  22.258   9.478  0.1151  0.1193 -0.0120
 1504BOLB   C2C36090  22.985  22.324   9.905 -0.1410  0.0576  0.1047
 1504BOLB   C3C36091  22.978  22.275  10.359 -0.0636 -0.0076 -0.1641
 1504BOLB   C4C36092  22.945  22.383  10.825 -0.3042  0.3749  0.2548
 1504BOLB   C1D36093  22.725  21.739   9.354  0.2253 -0.1114  0.0443
 1504BOLB   C2D36094  22.355  21.519   9.703  0.2477 -0.1078 -0.2068
 1504BOLB   C3D36095  22.012  21.760   9.886  0.0613  0.0607  0.2860
 1504BOLB   C4D36096  21.948  22.179  10.037 -0.0753  0.0788  0.0491
 1505BOLB   NC136097  13.397  11.216  11.758 -0.0039  0.1984 -0.1935
 1505BOLB   PO136098  13.319  11.189  11.275  0.2426 -0.0627 -0.3360
 1505BOLB   GL136099  13.187  10.792  11.066  0.1680  0.1131  0.0796
 1505BOLB   GL236100  13.024  10.820  10.770 -0.3282 -0.1691  0.1094
 1505BOLB   C1A36101  13.300  10.386  10.818 -0.2019  0.1602 -0.0420
 1505BOLB   C2A36102  13.436  10.203  10.412  0.0516 -0.2436 -0.0443
 1505BOLB   C3A36103  13.240  10.405   9.971 -0.0680 -0.3670 -0.0263
 1505BOLB   C4A36104  13.344  10.354   9.541  0.1685 -0.0626 -0.0072
 1505BOLB   C1B36105  13.013  10.734  10.323  0.1447  0.2103  0.3488
 1505BOLB   C2B36106  12.711  10.792   9.915 -0.0086 -0.0037  0.2252
 1505BOLB   C3B36107  12.605  10.750   9.489 -0.2898  0.0483 -0.1847
 1505BOLB   C4B36108  12.656  10.946   9.031  0.3360  0.0409 -0.1475
 1505BOLB   NC236109  13.537   9.623   6.872  0.1515 -0.2439  0.2383
 1505BOLB   PO236110  13.543   9.828   7.339  0.2151  0.0750 -0.2310
 1505BOLB   GL336111  13.420  10.159   7.648 -0.0329  0.3199 -0.1323
 1505BOLB   GL436112  13.074  10.241   7.567  0.1617  0.1798  0.0208
 1505BOLB   C1C36113  13.370  10.368   7.970 -0.0971 -0.2255  0.0353
 1505BOLB   C2C36114  13.276  10.315   8.439 -0.3778  0.2790 -0.3962
 1505BOLB   C3C36115  13.492  10.194   8.849 -0.1652 -0.0379  0.0568
 1505BOLB   C4C36116  13.432  10.033   9.234  0.2078  0.1867 -0.2781
 1505BOLB   C1D36117  13.026  10.076   8.010 -0.0333 -0.0729  0.0761
 1505BOLB   C2D36118  13.169   9.768   8.359 -0.0380 -0.0742  0.4128
 1505BOLB   C3D36119  13.096   9.901   8.806 -0.0917 -0.1136 -0.0865
 1505BOLB   C4D36120  12.910   9.955   9.229 -0.0943  0.1276  0.1208
 1506BOLB   NC136121  19.660  13.851  11.237  0.0489  0.2544 -0.0766
 1506BOLB   PO136122  19.781  13.470  11.425 -0.1421  0.0044 -0.1780
 1506BOLB   GL136123  20.223  13.381  11.399 -0.0049  0.1571 -0.0955
 1506BOLB   GL236124  20.400  13.578  11.399  0.3140  0.3144 -0.0948
 1506BOLB   C1A36125  20.403  13.151  11.116  0.0173  0.2804  0.3992
 1506BOLB   C2A36126  20.426  13.002  10.798  0.2448  0.0293 -0.1357
 1506BOLB   C3A36127  20.596  12.793  10.484 -0.1238  0.0423  0.0060
 1506BOLB   C4A36128  20.723  12.443  10.181 -0.0650 -0.0886  0.0868
 1506BOLB   C1B36129  20.805  13.442  11.195  0.1945  0.1926 -0.1015
 1506BOLB   C2B36130  20.940  13.042  11.031  0.1405  0.3332  0.2246
 1506BOLB   C3B36131  20.937  12.582  10.936 -0.2728 -0.0938  0.1603
 1506BOLB   C4B36132  21.009  12.203  10.703 -0.1334  0.1427 -0.1484
 1506BOLB   NC236133  21.208  11.494   7.967 -0.0918 -0.1826 -0.0120
 1506BOLB   PO236134  21.461  11.439   8.433 -0.3159 -0.0129 -0.0459
 1506BOLB   GL336135  21.332  11.500   8.855  0.1162  0.3560 -0.0925
 1506BOLB   GL436136  21.078  11.492   8.993 -0.0123 -0.2453  0.2292
 1506BOLB   C1C36137  21.255  11.990   9.024  0.3635 -0.0353 -0.0873
 1506BOLB   C2C36138  21.340  12.348   9.183  0.2256 -0.0428  0.2718
 1506BOLB   C3C36139  21.009  12.517   9.460  0.1634  0.1274 -0.3060
 1506BOLB   C4C36140  20.761  12.423   9.799 -0.2221 -0.2802  0.1702
 1506BOLB   C1D36141  20.822  11.407   9.427  0.0016 -0.0542  0.1123
 1506BOLB   C2D36142  20.349  11.489   9.689  0.1110 -0.1850 -0.0891
 1506BOLB   C3D36143  20.118  11.265   9.921 -0.0738 -0.3293  0.1217
 1506BOLB   C4D36144  19.909  11.228  10.305  0.0600 -0.0105  0.0806
 1507BOLB   NC136145  13.352  17.227   9.924 -0.0006 -0.0181 -0.1841
 1507BOLB   PO136146  13.565  16.764   9.712 -0.4300 -0.1658 -0.1191
 1507BOLB   GL136147  13.721  16.682   9.323 -0.1293  0.0828 -0.2200
 1507BOLB   GL236148  13.977  16.457   9.134 -0.2689 -0.2061 -0.0230
 1507BOLB   C1A36149  13.790  16.899   8.976 -0.1695 -0.0354 -0.0761
 1507BOLB   C2A36150  13.899  17.105   8.636 -0.3490 -0.1352  0.1956
 1507BOLB   C3A36151  14.015  16.919   8.226 -0.0891  0.4307 -0.1318
 1507BOLB   C4A36152  13.784  16.679   7.942 -0.2093 -0.1237 -0.2635
 1507BOLB   C1B36153  14.179  16.580   8.729  0.2478  0.0725 -0.1341
 1507BOLB   C2B36154  14.331  16.596   8.311  0.0157  0.1458 -0.3220
 1507BOLB   C3B36155  14.340  16.631   7.845 -0.1541  0.1062 -0.1170
 1507BOLB   C4B36156  14.159  16.393   7.552  0.1100  0.2083  0.4868
 1507BOLB   NC236157  13.688  16.604   5.655 -0.4059  0.4006 -0.0276
 1507BOLB   PO236158  13.450  16.967   5.842 -0.4020  0.0210 -0.1888
 1507BOLB   GL336159  13.646  16.705   6.169  0.1603  0.2446 -0.0279
 1507BOLB   GL436160  13.610  16.870   6.482 -0.4935  0.1417 -0.0782
 1507BOLB   C1C36161  13.320  16.373   6.566 -0.4298 -0.0051 -0.1432
 1507BOLB   C2C36162  13.338  16.159   6.920 -0.1913  0.0054  0.1166
 1507BOLB   C3C36163  13.597  16.376   7.217 -0.0751 -0.2039  0.2423
 1507BOLB   C4C36164  13.633  16.568   7.609  0.0966  0.1925  0.0658
 1507BOLB   C1D36165  13.852  17.209   6.761 -0.0290 -0.2677 -0.2139
 1507BOLB   C2D36166  13.911  17.251   7.188 -0.1765 -0.0223  0.0649
 1507BOLB   C3D36167  14.320  17.460   7.432 -0.1653 -0.1910 -0.0108
 1507BOLB   C4D36168  14.569  17.700   7.700  0.1700  0.0586  0.3029
 1508BOLB   NC136169  22.858  25.239  15.109  0.1148 -0.0477 -0.0075
 1508BOLB   PO136170  22.726  24.945  14.840 -0.0808 -0.2424  0.0417
 1508BOLB   GL136171  22.349  25.163  14.782  0.1669  0.2005 -0.1627
 1508BOLB   GL236172  22.070  25.112  14.907 -0.2683 -0.1786  0.0826
 1508BOLB   C1A36173  22.353  25.528  14.479 -0.0804  0.1902  0.1393
 1508BOLB   C2A36174  22.273  25.856  14.264  0.0634 -0.1289  0.0014
 1508BOLB   C3A36175  22.485  26.025  13.921 -0.3343  0.1535 -0.0761
 1508BOLB   C4A36176  22.441  26.194  13.606 -0.2657 -0.1416 -0.3421
 1508BOLB   C1B36177  21.862  25.397  14.778  0.1906  0.0825  0.1230
 1508BOLB   C2B36178  21.817  25.611  14.478 -0.2110 -0.1312 -0.2974
 1508BOLB   C3B36179  21.664  26.015  14.253 -0.0351 -0.2146 -0.0149
 1508BOLB   C4B36180  22.013  26.126  14.003  0.1147 -0.2802  0.5596
 1508BOLB   NC236181  21.678  27.368  11.421 -0.0118 -0.1066  0.1286
 1508BOLB   PO236182  21.669  27.411  11.878 -0.0950 -0.0797 -0.0689
 1508BOLB   GL336183  21.831  27.030  12.069 -0.4871  0.0714  0.0886
 1508BOLB   GL436184  21.577  26.887  12.226 -0.0327  0.1617  0.3761
 1508BOLB   C1C36185  21.931  26.531  12.136  0.0396  0.3766 -0.4477
 1508BOLB   C2C36186  22.108  26.337  12.552 -0.2672  0.2579 -0.2862
 1508BOLB   C3C36187  22.026  26.132  12.958  0.6064  0.1240  0.0220
 1508BOLB   C4C36188  22.106  26.253  13.388 -0.2821 -0.0478  0.0983
 1508BOLB   C1D36189  21.261  26.877  12.482  0.0593 -0.0213  0.2235
 1508BOLB   C2D36190  21.013  26.647  12.799  0.3390 -0.3219  0.1771
 1508BOLB   C3D36191  20.987  26.406  13.173 -0.2541  0.1699  0.4073
 1508BOLB   C4D36192  20.881  26.008  13.481  0.0464  0.3238 -0.1327
 1509BOLB   NC136193   9.915  22.476  11.954 -0.0321  0.3094 -0.2010
 1509BOLB   PO136194  10.102  22.053  11.958  0.0723 -0.1483  0.0954
 1509BOLB   GL136195   9.840  22.064  11.596  0.0340  0.1967 -0.0937
 1509BOLB   GL236196   9.926  21.811  11.251  0.0414  0.0547 -0.1852
 1509BOLB   C1A36197   9.678  22.226  11.246 -0.1686 -0.1289 -0.0096
 1509BOLB   C2A36198   9.626  22.430  11.000 -0.2467  0.1407 -0.0738
 1509BOLB   C3A36199   9.502  22.449  10.616  0.1019 -0.1418 -0.2011
 1509BOLB   C4A36200   9.188  22.566  10.225 -0.1185  0.6688  0.0905
 1509BOLB   C1B36201   9.759  21.926  10.878 -0.4839  0.0783 -0.2785
 1509BOLB   C2B36202   9.582  21.722  10.531 -0.0514 -0.0662 -0.1202
 1509BOLB   C3B36203   9.738  22.085  10.131  0.5226  0.2322  0.3523
 1509BOLB   C4B36204   9.585  22.333   9.763  0.3773  0.1019  0.2062
 1509BOLB   NC236205   8.023  22.366   7.674  0.1260 -0.0329 -0.0159
 1509BOLB   PO236206   8.127  22.595   7.996  0.0506  0.0050 -0.0383
 1509BOLB   GL336207   8.141  22.565   8.442  0.0563 -0.0527 -0.1803
 1509BOLB   GL436208   8.317  22.875   8.471  0.2306 -0.1212  0.0328
 1509BOLB   C1C36209   8.267  22.404   8.896 -0.2843  0.1721  0.2716
 1509BOLB   C2C36210   8.423  22.166   9.151 -0.0064  0.0640  0.0287
 1509BOLB   C3C36211   8.627  22.159   9.508 -0.0081  0.2116  0.2449
 1509BOLB   C4C36212   8.913  22.362   9.841  0.2783  0.0023 -0.1138
 1509BOLB   C1D36213   8.688  22.819   8.889  0.2156  0.1342 -0.2483
 1509BOLB   C2D36214   8.723  22.757   9.376 -0.0650 -0.4104  0.1356
 1509BOLB   C3D36215   8.498  22.604   9.770  0.0180 -0.0490  0.3820
 1509BOLB   C4D36216   8.433  22.812  10.175 -0.1774  0.0049  0.1835
 1510BOLB   NC136217  20.680  17.999  11.467 -0.0327 -0.2800 -0.1566
 1510BOLB   PO136218  21.017  17.918  11.171  0.1121  0.1809 -0.0133
 1510BOLB   GL136219  21.360  17.897  11.016 -0.3112 -0.0935 -0.1198
 1510BOLB   GL236220  21.635  17.969  11.195 -0.0258 -0.0561  0.0664
 1510BOLB   C1A36221  21.432  17.989  10.551  0.1366 -0.0378 -0.1016
 1510BOLB   C2A36222  21.527  18.433  10.325 -0.2496 -0.1608  0.2534
 1510BOLB   C3A36223  21.699  18.670  10.042 -0.1321  0.0010 -0.2140
 1510BOLB   C4A36224  21.506  18.861   9.720  0.2616  0.1280 -0.3205
 1510BOLB   C1B36225  22.081  18.090  11.068  0.2041  0.0754 -0.6662
 1510BOLB   C2B36226  22.350  18.147  10.827  0.0919  0.4742 -0.1363
 1510BOLB   C3B36227  22.761  18.092  10.705  0.0641 -0.0501 -0.0008
 1510BOLB   C4B36228  22.972  17.706  10.519  0.2196 -0.1461 -0.2088
 1510BOLB   NC236229  21.328  20.000   7.554  0.2819  0.0297  0.1396
 1510BOLB   PO236230  21.686  20.112   7.468  0.1071  0.1457  0.0467
 1510BOLB   GL336231  21.760  19.980   7.855 -0.1748  0.1570  0.2204
 1510BOLB   GL436232  22.112  19.858   7.941 -0.1988  0.1926  0.0249
 1510BOLB   C1C36233  21.506  19.697   8.201  0.2705  0.1520  0.1165
 1510BOLB   C2C36234  21.516  19.491   8.532 -0.0374 -0.1056  0.1598
 1510BOLB   C3C36235  21.488  19.265   8.931  0.3104  0.0215 -0.1427
 1510BOLB   C4C36236  21.519  19.093   9.393 -0.1220  0.1647 -0.0269
 1510BOLB   C1D36237  21.977  19.940   8.341  0.0672 -0.0614 -0.1332
 1510BOLB   C2D36238  21.785  19.878   8.658  0.1127 -0.1393  0.0086
 1510BOLB   C3D36239  21.798  19.617   9.118  0.1771 -0.2332  0.0142
 1510BOLB   C4D36240  21.564  19.566   9.596 -0.3676  0.0071 -0.1427
 1511BOLB   NC136241  12.299   8.970  12.306  0.0082  0.2112  0.0463
 1511BOLB   PO136242  11.867   8.968  12.152 -0.0439  0.0523  0.4226
 1511BOLB   GL136243  11.960   8.702  11.784  0.0163  0.1170 -0.0396
 1511BOLB   GL236244  12.075   8.513  11.999 -0.0649 -0.1892  0.0682
 1511BOLB   C1A36245  12.033   8.371  11.417  0.1272  0.0041 -0.3720
 1511BOLB   C2A36246  11.993   7.977  11.286  0.2086  0.2699 -0.1142
 1511BOLB   C3A36247  11.753   7.761  11.032 -0.1169  0.0041  0.3063
 1511BOLB   C4A36248  11.401   7.964  10.833 -0.5245 -0.0407  0.0697
 1511BOLB   C1B36249  12.407   8.585  11.694 -0.2089 -0.2348 -0.1483
 1511BOLB   C2B36250  12.502   8.158  11.539  0.2358 -0.0502  0.0248
 1511BOLB   C3B36251  12.584   7.825  11.295  0.0938  0.1557  0.2389
 1511BOLB   C4B36252  12.647   7.531  10.961 -0.1307 -0.0884 -0.1205
 1511BOLB   NC236253  10.579   7.819   8.391 -0.0574 -0.0176 -0.2526
 1511BOLB   PO236254  10.755   7.535   8.587 -0.4529  0.0715 -0.0776
 1511BOLB   GL336255  11.002   7.695   8.888  0.1122 -0.0614 -0.0711
 1511BOLB   GL436256  10.873   8.110   8.896 -0.0046 -0.1624  0.4874
 1511BOLB   C1C36257  11.253   7.883   9.218  0.1231  0.1004 -0.0926
 1511BOLB   C2C36258  11.334   7.904   9.654 -0.1921  0.0016 -0.0281
 1511BOLB   C3C36259  11.287   8.018  10.073  0.3403  0.0647  0.0627
 1511BOLB   C4C36260  11.122   8.016  10.479  0.0063  0.2154 -0.0437
 1511BOLB   C1D36261  11.176   8.351   9.133 -0.0996  0.2855 -0.0782
 1511BOLB   C2D36262  11.379   8.463   9.493 -0.3301 -0.0913  0.0723
 1511BOLB   C3D36263  11.533   8.325   9.816  0.0652  0.4290  0.1791
 1511BOLB   C4D36264  11.749   8.366  10.105  0.0682 -0.0925  0.0061
 1512BOLB   NC136265  18.872  15.464  10.244 -0.1684  0.0431 -0.4606
 1512BOLB   PO136266  18.642  15.090  10.259  0.0170  0.4053  0.0618
 1512BOLB   GL136267  18.764  15.197   9.822  0.1182  0.0311 -0.0395
 1512BOLB   GL236268  18.937  15.485   9.773  0.0155 -0.0899 -0.1398
 1512BOLB   C1A36269  18.785  15.153   9.437  0.3247 -0.2397 -0.1442
 1512BOLB   C2A36270  18.851  15.025   9.115  0.0556  0.0577  0.0036
 1512BOLB   C3A36271  19.050  14.748   8.949  0.0049  0.0276  0.2289
 1512BOLB   C4A36272  19.137  14.889   8.660 -0.2863 -0.0508  0.1096
 1512BOLB   C1B36273  19.041  15.571   9.363 -0.3271 -0.0313  0.0995
 1512BOLB   C2B36274  18.888  15.560   9.065  0.0325 -0.0362  0.0447
 1512BOLB   C3B36275  18.944  15.383   8.696  0.0964 -0.1545 -0.3238
 1512BOLB   C4B36276  18.854  15.175   8.307  0.0630  0.0422  0.1252
 1512BOLB   NC236277  19.386  15.333   6.363  0.1901 -0.0866 -0.0429
 1512BOLB   PO236278  19.880  15.376   6.340  0.0184  0.0946 -0.0856
 1512BOLB   GL336279  19.822  15.208   6.704 -0.1019 -0.0023  0.2336
 1512BOLB   GL436280  19.617  14.980   6.685  0.1401 -0.1234  0.0309
 1512BOLB   C1C36281  19.977  15.056   7.071  0.0727 -0.3780 -0.1335
 1512BOLB   C2C36282  19.837  14.942   7.535 -0.0080 -0.0961  0.2587
 1512BOLB   C3C36283  19.606  14.993   7.860  0.0915  0.0370 -0.2268
 1512BOLB   C4C36284  19.364  15.027   8.300  0.1471 -0.0472 -0.1991
 1512BOLB   C1D36285  19.504  14.905   7.101  0.0450 -0.1147  0.0568
 1512BOLB   C2D36286  19.322  14.774   7.429  0.0653 -0.2162  0.4031
 1512BOLB   C3D36287  18.899  14.705   7.578  0.0207  0.0838  0.1309
 1512BOLB   C4D36288  18.610  14.833   7.928  0.4687  0.1737  0.1562
 1513BOLB   NC136289  11.562  17.879  10.740  0.0620 -0.3271 -0.4026
 1513BOLB   PO136290  11.327  17.766  10.258 -0.0266 -0.1060  0.2871
 1513BOLB   GL136291  11.036  17.614  10.037  0.0664  0.0000  0.1025
 1513BOLB   GL236292  10.669  17.396  10.188 -0.4422  0.0514 -0.2074
 1513BOLB   C1A36293  10.771  17.832   9.709 -0.0098  0.0586 -0.0403
 1513BOLB   C2A36294  10.471  17.648   9.399 -0.0134 -0.1271  0.0031
 1513BOLB   C3A36295   9.988  17.520   9.405  0.1400 -0.0864  0.1141
 1513BOLB   C4A36296   9.722  17.616   9.127  0.1924 -0.2149 -0.2153
 1513BOLB   C1B36297  10.748  17.259   9.783  0.0541 -0.2627 -0.2834
 1513BOLB   C2B36298  10.436  17.150   9.418 -0.1047 -0.3575  0.0918
 1513BOLB   C3B36299  10.330  17.329   9.035  0.0607 -0.0744  0.1148
 1513BOLB   C4B36300  10.370  17.187   8.589 -0.3812  0.0357 -0.0479
 1513BOLB   NC236301  10.058  18.963   6.999  0.1983  0.0489  0.0239
 1513BOLB   PO236302   9.701  18.885   7.291  0.1956 -0.2489 -0.2394
 1513BOLB   GL336303  10.041  18.989   7.580  0.2718 -0.2561  0.2477
 1513BOLB   GL436304  10.310  19.112   7.582 -0.0753  0.0577  0.0897
 1513BOLB   C1C36305  10.211  18.657   7.832  0.0201 -0.0355 -0.2943
 1513BOLB   C2C36306  10.148  18.257   8.076  0.2709 -0.0803  0.2491
 1513BOLB   C3C36307  10.086  18.185   8.459  0.4607  0.0368  0.0575
 1513BOLB   C4C36308   9.810  17.951   8.807 -0.1703  0.2688 -0.0340
 1513BOLB   C1D36309  10.688  19.066   7.924  0.1061 -0.1943  0.1422
 1513BOLB   C2D36310  11.007  18.825   7.762  0.0273  0.2267  0.1121
 1513BOLB   C3D36311  11.098  18.436   7.842 -0.1069  0.2919  0.1435
 1513BOLB   C4D36312  11.477  18.245   8.093 -0.1404  0.0489 -0.3984
 1514BOLB   NC136313  14.945  13.132  10.474 -0.2672  0.1594 -0.3411
 1514BOLB   PO136314  15.279  12.991  10.641 -0.1003 -0.2108  0.4216
 1514BOLB   GL136315  15.544  12.999  10.464 -0.4989  0.1465 -0.1182
 1514BOLB   GL236316  15.322  13.101  10.136 -0.1084 -0.1218  0.1783
 1514BOLB   C1A36317  15.936  12.961  10.146 -0.0262 -0.0325  0.4161
 1514BOLB   C2A36318  16.087  13.033   9.697 -0.1051  0.3084 -0.0949
 1514BOLB   C3A36319  16.106  12.824   9.306 -0.2672 -0.0730  0.0312
 1514BOLB   C4A36320  16.350  12.985   8.948 -0.0361 -0.0816 -0.0434
 1514BOLB   C1B36321  15.585  12.813   9.823 -0.0040  0.1614 -0.1684
 1514BOLB   C2B36322  15.733  12.477   9.586 -0.0544  0.0448  0.1383
 1514BOLB   C3B36323  16.156  12.155   9.510 -0.1734  0.0447 -0.2281
 1514BOLB   C4B36324  16.463  12.018   9.231 -0.2484  0.0001 -0.1153
 1514BOLB   NC236325  16.241  11.822   6.753  0.1727  0.1512 -0.0198
 1514BOLB   PO236326  16.407  12.174   6.801 -0.3911 -0.3251  0.3776
 1514BOLB   GL336327  16.408  12.197   7.230  0.2693 -0.0229 -0.2437
 1514BOLB   GL436328  16.379  11.922   7.463 -0.0056  0.0189 -0.0657
 1514BOLB   C1C36329  16.187  12.483   7.458 -0.0677 -0.1242 -0.3436
 1514BOLB   C2C36330  16.208  12.733   7.806  0.2395  0.0649 -0.0014
 1514BOLB   C3C36331  16.115  12.831   8.260  0.1854  0.0174  0.1608
 1514BOLB   C4C36332  16.288  13.036   8.500 -0.0027  0.2223 -0.1300
 1514BOLB   C1D36333  16.133  11.943   7.734  0.1284  0.0569  0.2979
 1514BOLB   C2D36334  16.214  11.856   8.156 -0.1200  0.0008 -0.2419
 1514BOLB   C3D36335  16.093  11.691   8.469  0.0510  0.0642 -0.0795
 1514BOLB   C4D36336  15.709  11.724   8.645 -0.1547 -0.0808 -0.0036
 1515BOLB   NC136337  21.564  15.305  11.677 -0.1093  0.3368  0.0360
 1515BOLB   PO136338  21.542  15.718  11.552  0.2044  0.1192 -0.0187
 1515BOLB   GL136339  21.605  15.797  11.197 -0.4202  0.0618 -0.0017
 1515BOLB   GL236340  21.466  15.936  10.926 -0.1881  0.0964  0.0730
 1515BOLB   C1A36341  21.949  16.018  10.887  0.1213  0.3033  0.0599
 1515BOLB   C2A36342  22.181  16.087  10.648 -0.1959  0.2845 -0.1287
 1515BOLB   C3A36343  22.381  16.295  10.352 -0.0584  0.0908 -0.2051
 1515BOLB   C4A36344  22.634  16.235  10.010  0.2934  0.3189  0.2553
 1515BOLB   C1B36345  21.628  15.974  10.417 -0.2199 -0.1404 -0.0631
 1515BOLB   C2B36346  21.915  16.086  10.110  0.2452  0.1112 -0.2893
 1515BOLB   C3B36347  22.213  16.392   9.896  0.5203  0.0563 -0.0887
 1515BOLB   C4B36348  22.526  16.741   9.869  0.0989  0.3941 -0.1661
 1515BOLB   NC236349  23.098  16.132   7.796 -0.4998  0.0287  0.4147
 1515BOLB   PO236350  23.438  16.296   7.901  0.1470  0.1394  0.0264
 1515BOLB   GL336351  23.217  16.404   8.266 -0.3829  0.0730 -0.3055
 1515BOLB   GL436352  23.478  16.395   8.577  0.0791  0.0744 -0.2321
 1515BOLB   C1C36353  23.129  16.709   8.585  0.0365  0.2318 -0.1638
 1515BOLB   C2C36354  23.026  16.737   8.987  0.0593 -0.0650 -0.0340
 1515BOLB   C3C36355  22.887  16.702   9.388 -0.0450  0.1403 -0.0313
 1515BOLB   C4C36356  22.869  16.343   9.721  0.2054  0.0980  0.0380
 1515BOLB   C1D36357  23.612  16.567   8.986  0.2248 -0.4314 -0.0882
 1515BOLB   C2D36358  23.830  16.899   9.219  0.2228  0.1441 -0.2033
 1515BOLB   C3D36359  24.126  17.162   9.469  0.4014  0.0274 -0.0596
 1515BOLB   C4D36360  24.036  17.397   9.790  0.1163  0.1067  0.1547
 1516BOLB   NC136361  19.740  16.486  11.024  0.0468  0.0897 -0.0914
 1516BOLB   PO136362  20.088  16.482  10.807 -0.2772 -0.0716 -0.1806
 1516BOLB   GL136363  20.032  16.558  10.354  0.0193  0.1092 -0.2867
 1516BOLB   GL236364  19.671  16.628  10.204  0.2627  0.3283  0.0332
 1516BOLB   C1A36365  20.002  16.373   9.890  0.1339  0.0525 -0.0828
 1516BOLB   C2A36366  20.265  16.216   9.548  0.1412  0.1399 -0.2594
 1516BOLB   C3A36367  20.220  16.032   9.119  0.0069  0.0685  0.2176
 1516BOLB   C4A36368  20.030  15.967   8.773  0.0673  0.0913  0.0814
 1516BOLB   C1B36369  19.733  16.851   9.851  0.0050  0.1568 -0.2009
 1516BOLB   C2B36370  20.054  16.787   9.495 -0.1178 -0.1520  0.3577
 1516BOLB   C3B36371  20.307  16.566   9.184 -0.1127  0.2113 -0.0291
 1516BOLB   C4B36372  20.611  16.778   9.025 -0.0121 -0.0658  0.5095
 1516BOLB   NC236373  20.728  16.213   6.471  0.0708  0.0585  0.1248
 1516BOLB   PO236374  20.305  16.114   6.300 -0.3554  0.0482 -0.1658
 1516BOLB   GL336375  20.121  15.813   6.571  0.0920 -0.0998 -0.0516
 1516BOLB   GL436376  19.742  15.713   6.699  0.0292 -0.0161 -0.1627
 1516BOLB   C1C36377  20.076  15.558   7.032  0.3152  0.1147  0.1502
 1516BOLB   C2C36378  19.791  15.592   7.377  0.0588  0.2057  0.1236
 1516BOLB   C3C36379  19.668  15.674   7.846 -0.0233  0.2081 -0.1911
 1516BOLB   C4C36380  19.912  15.749   8.299  0.0554 -0.0528  0.0509
 1516BOLB   C1D36381  19.428  15.409   7.026 -0.0158  0.3851  0.0439
 1516BOLB   C2D36382  19.429  15.263   7.501 -0.2583 -0.1667 -0.1802
 1516BOLB   C3D36383  19.334  15.392   8.007  0.2554 -0.1008  0.1431
 1516BOLB   C4D36384  19.338  15.507   8.392  0.0622  0.0586 -0.1741
 1517BOLB   NC136385  13.479  24.418  13.958 -0.0234 -0.0272 -0.0335
 1517BOLB   PO136386  13.708  24.839  13.930  0.1379  0.2749  0.2214
 1517BOLB   GL136387  13.693  25.219  13.833  0.1078 -0.2474 -0.1538
 1517BOLB   GL236388  13.717  25.185  13.515  0.2002  0.0335 -0.1134
 1517BOLB   C1A36389  13.628  25.728  13.704  0.0312 -0.3031 -0.0872
 1517BOLB   C2A36390  13.794  26.081  13.471  0.2111  0.1781 -0.0825
 1517BOLB   C3A36391  13.842  26.534  13.529 -0.1467 -0.1583 -0.0200
 1517BOLB   C4A36392  14.273  26.768  13.703  0.2569  0.0142 -0.1422
 1517BOLB   C1B36393  13.770  25.404  13.002  0.1005  0.0804 -0.3695
 1517BOLB   C2B36394  13.648  25.555  12.644 -0.1826 -0.0353 -0.2323
 1517BOLB   C3B36395  13.478  25.764  12.376 -0.0198  0.1027  0.2229
 1517BOLB   C4B36396  13.633  25.885  11.961 -0.2864  0.0130  0.1862
 1517BOLB   NC236397  15.183  29.236  13.415 -0.0847 -0.0708  0.0674
 1517BOLB   PO236398  15.014  28.852  13.253 -0.0886  0.0120  0.1318
 1517BOLB   GL336399  15.122  28.575  13.510 -0.1035 -0.0870  0.1483
 1517BOLB   GL436400  15.310  28.602  13.765 -0.2287 -0.1368 -0.0241
 1517BOLB   C1C36401  14.931  28.303  13.732 -0.0920 -0.0164 -0.0635
 1517BOLB   C2C36402  14.678  27.950  13.654  0.0838  0.5597  0.1051
 1517BOLB   C3C36403  14.533  27.616  13.789 -0.1296  0.0969 -0.0550
 1517BOLB   C4C36404  14.538  27.157  13.705  0.2232  0.0575 -0.0779
 1517BOLB   C1D36405  15.483  28.290  13.982  0.0263 -0.2373  0.0437
 1517BOLB   C2D36406  15.652  27.966  14.278  0.2439 -0.3919  0.1412
 1517BOLB   C3D36407  16.025  27.705  14.124  0.0632 -0.0731  0.1610
 1517BOLB   C4D36408  16.342  27.784  13.950  0.1322  0.1183  0.0215
 1518BOLB   NC136409  10.591   8.384  12.797  0.3337 -0.2418  0.5394
 1518BOLB   PO136410  10.854   8.003  12.606  0.2573  0.1884  0.2117
 1518BOLB   GL136411  10.627   8.189  12.357 -0.1860 -0.0000  0.0018
 1518BOLB   GL236412  10.699   8.485  12.153 -0.1093 -0.2852  0.1314
 1518BOLB   C1A36413  10.473   8.157  11.871 -0.1620  0.0592  0.0856
 1518BOLB   C2A36414  10.432   7.841  11.525 -0.2567 -0.4466 -0.1196
 1518BOLB   C3A36415  10.474   7.784  11.061 -0.0828  0.1605 -0.4631
 1518BOLB   C4A36416  10.528   7.853  10.586 -0.1938 -0.0741  0.0550
 1518BOLB   C1B36417  10.697   8.605  11.765 -0.2529 -0.1106 -0.0041
 1518BOLB   C2B36418  10.625   8.443  11.428 -0.4733  0.0139 -0.2157
 1518BOLB   C3B36419  10.675   8.287  11.078 -0.1531 -0.0603 -0.0609
 1518BOLB   C4B36420  10.744   8.351  10.607  0.0345 -0.2138 -0.1635
 1518BOLB   NC236421  11.648   6.920   8.335  0.2105 -0.3656  0.0522
 1518BOLB   PO236422  11.686   6.903   8.881  0.0308 -0.0126 -0.1931
 1518BOLB   GL336423  11.531   7.060   9.212 -0.1104 -0.1906  0.1287
 1518BOLB   GL436424  11.429   7.386   9.165  0.1148  0.0009  0.0451
 1518BOLB   C1C36425  11.189   7.120   9.501  0.0087  0.0994 -0.2749
 1518BOLB   C2C36426  11.025   7.511   9.577 -0.1727 -0.1676  0.1657
 1518BOLB   C3C36427  10.840   7.853   9.919  0.2047  0.1056  0.1661
 1518BOLB   C4C36428  10.618   7.830  10.211  0.2425  0.0302  0.1220
 1518BOLB   C1D36429  11.639   7.544   9.465  0.1133  0.3386 -0.0835
 1518BOLB   C2D36430  11.550   7.510   9.861  0.2360  0.2179 -0.1808
 1518BOLB   C3D36431  11.142   7.512  10.061 -0.1840  0.0012 -0.1017
 1518BOLB   C4D36432  10.735   7.304   9.980 -0.1549  0.0187  0.1205
 1519BOLB   NC136433  13.645  23.983  12.971 -0.1008 -0.2108 -0.2061
 1519BOLB   PO136434  14.071  23.934  12.893  0.0194 -0.1132 -0.0993
 1519BOLB   GL136435  14.203  24.079  12.550 -0.1731  0.1803 -0.1439
 1519BOLB   GL236436  14.623  24.028  12.631  0.0249 -0.0195 -0.0932
 1519BOLB   C1A36437  14.187  24.313  12.266 -0.0895  0.1572 -0.1979
 1519BOLB   C2A36438  14.313  24.753  12.107 -0.2172 -0.3664  0.2167
 1519BOLB   C3A36439  14.319  25.190  11.851  0.0780  0.2650  0.3538
 1519BOLB   C4A36440  14.102  25.488  11.649  0.0461 -0.4029  0.1768
 1519BOLB   C1B36441  14.604  24.418  12.486  0.2548 -0.0907  0.0973
 1519BOLB   C2B36442  14.458  24.838  12.581  0.4977  0.1157  0.0938
 1519BOLB   C3B36443  14.171  25.120  12.794  0.1753 -0.1522 -0.3015
 1519BOLB   C4B36444  14.160  25.554  12.631 -0.1114 -0.1916 -0.5634
 1519BOLB   NC236445  14.745  26.289   9.530  0.2310  0.2118 -0.1753
 1519BOLB   PO236446  14.594  26.551   9.762  0.0727 -0.0052  0.0759
 1519BOLB   GL336447  14.701  26.265  10.134 -0.1564 -0.1129  0.1298
 1519BOLB   GL436448  14.435  25.994  10.173  0.0858 -0.2426 -0.1040
 1519BOLB   C1C36449  14.646  26.251  10.608 -0.1133  0.0440  0.0210
 1519BOLB   C2C36450  14.313  26.418  10.896  0.0322  0.1268 -0.4220
 1519BOLB   C3C36451  14.012  26.141  11.088 -0.2611  0.1228 -0.1039
 1519BOLB   C4C36452  13.847  25.825  11.378  0.3424 -0.0008  0.0935
 1519BOLB   C1D36453  14.849  25.882  10.363  0.0255  0.4082 -0.0766
 1519BOLB   C2D36454  15.211  25.702  10.550 -0.3777  0.1390 -0.1055
 1519BOLB   C3D36455  15.207  25.324  10.721  0.1081  0.0156  0.0594
 1519BOLB   C4D36456  15.347  24.998  10.571 -0.2160 -0.1711 -0.5177
 1520BOLB   NC136457  13.553   9.016  13.394 -0.1957 -0.1089  0.2236
 1520BOLB   PO136458  13.436   8.998  12.959 -0.2206  0.1997 -0.1266
 1520BOLB   GL136459  13.445   8.856  12.435 -0.0367 -0.1753  0.1008
 1520BOLB   GL236460  13.532   9.056  12.240 -0.2648  0.4957 -0.2600
 1520BOLB   C1A36461  13.290   8.590  12.133  0.1762  0.1848 -0.2092
 1520BOLB   C2A36462  13.436   8.241  11.796 -0.2567 -0.3449 -0.2661
 1520BOLB   C3A36463  13.585   8.068  11.506 -0.1019  0.2591  0.2670
 1520BOLB   C4A36464  13.679   8.108  11.083  0.0306 -0.4407 -0.0847
 1520BOLB   C1B36465  13.810   8.757  11.981  0.3722  0.1241  0.0657
 1520BOLB   C2B36466  13.829   8.491  11.639  0.2651 -0.1261 -0.1953
 1520BOLB   C3B36467  14.163   8.292  11.359 -0.2013  0.2858  0.3150
 1520BOLB   C4B36468  14.366   8.358  11.013 -0.0143 -0.2438 -0.0222
 1520BOLB   NC236469  14.943   6.433   9.605  0.1693  0.1491  0.0378
 1520BOLB   PO236470  14.834   6.685   9.266 -0.2584  0.1634  0.1666
 1520BOLB   GL336471  14.998   6.988   9.630  0.2377  0.0205 -0.1385
 1520BOLB   GL436472  15.313   7.031   9.784  0.0344 -0.3006 -0.1588
 1520BOLB   C1C36473  14.914   7.373   9.881 -0.2514 -0.1170  0.1012
 1520BOLB   C2C36474  14.678   7.573  10.207 -0.0071 -0.1231  0.0409
 1520BOLB   C3C36475  14.353   7.834  10.523 -0.0496  0.2512  0.2732
 1520BOLB   C4C36476  14.010   8.046  10.800  0.5854  0.1253 -0.3216
 1520BOLB   C1D36477  15.346   7.202  10.200  0.2036  0.2416  0.1227
 1520BOLB   C2D36478  15.091   7.402  10.539 -0.1200  0.0487  0.1719
 1520BOLB   C3D36479  14.784   7.463  10.790 -0.0434 -0.1082  0.2089
 1520BOLB   C4D36480  14.617   7.460  11.289 -0.1067 -0.1558  0.3435
 1521BOLB   NC136481  10.492  14.104  10.748 -0.0890  0.0345  0.1743
 1521BOLB   PO136482  10.535  14.485  10.787  0.0236  0.0636  0.0904
 1521BOLB   GL136483  10.225  14.421  10.329 -0.4692  0.0937  0.1344
 1521BOLB   GL236484  10.175  14.801  10.193 -0.0185 -0.0046 -0.1219
 1521BOLB   C1A36485  10.074  14.285   9.919 -0.0328 -0.1440 -0.3861
 1521BOLB   C2A36486   9.852  14.075   9.577 -0.0343  0.3251 -0.1077
 1521BOLB   C3A36487   9.552  14.057   9.236 -0.0616  0.3546  0.5200
 1521BOLB   C4A36488   9.611  14.130   8.875 -0.2115 -0.2525 -0.2583
 1521BOLB   C1B36489   9.917  14.926   9.803 -0.0312  0.2039  0.1339
 1521BOLB   C2B36490   9.819  14.990   9.324  0.1646  0.0810 -0.1884
 1521BOLB   C3B36491   9.545  15.189   9.030 -0.0550  0.0329 -0.3705
 1521BOLB   C4B36492   9.132  15.214   8.930 -0.0573  0.1954  0.0200
 1521BOLB   NC236493   9.691  14.407   6.238 -0.2158 -0.2903  0.0951
 1521BOLB   PO236494   9.914  14.229   6.652  0.0292  0.1607 -0.0694
 1521BOLB   GL336495  10.021  14.221   7.043 -0.0252  0.0549 -0.0155
 1521BOLB   GL436496  10.284  14.497   7.012 -0.2362  0.1019  0.0466
 1521BOLB   C1C36497   9.742  14.291   7.410 -0.0919  0.3702  0.2380
 1521BOLB   C2C36498   9.427  14.423   7.673 -0.1565 -0.0214 -0.2269
 1521BOLB   C3C36499   9.395  14.361   8.132 -0.2608  0.0839 -0.0130
 1521BOLB   C4C36500   9.498  14.229   8.534  0.0034 -0.2129 -0.0673
 1521BOLB   C1D36501  10.240  14.434   7.429 -0.1583  0.3462 -0.2269
 1521BOLB   C2D36502  10.289  14.103   7.784 -0.1253 -0.2980  0.0025
 1521BOLB   C3D36503  10.307  14.201   8.166  0.0249 -0.1757 -0.2406
 1521BOLB   C4D36504  10.238  14.129   8.634 -0.1598 -0.2319  0.0436
 1522BOLB   NC136505  16.314  14.481  10.401  0.0442  0.0343 -0.0257
 1522BOLB   PO136506  16.472  14.073  10.462  0.0325  0.0779  0.0852
 1522BOLB   GL136507  16.712  13.828  10.217  0.1616  0.2245 -0.1343
 1522BOLB   GL236508  16.962  13.917  10.031 -0.1172 -0.0097 -0.0480
 1522BOLB   C1A36509  16.714  13.620   9.704 -0.1258 -0.2780 -0.0945
 1522BOLB   C2A36510  16.807  13.504   9.345  0.2121  0.3074  0.1619
 1522BOLB   C3A36511  16.926  13.280   8.953 -0.0874  0.0176 -0.2325
 1522BOLB   C4A36512  17.214  13.106   8.773 -0.2421 -0.0661 -0.2019
 1522BOLB   C1B36513  17.137  13.877   9.705 -0.0330  0.1183 -0.3998
 1522BOLB   C2B36514  17.264  13.643   9.291  0.1343 -0.0414 -0.0947
 1522BOLB   C3B36515  17.158  13.707   8.808  0.2018 -0.1000 -0.3359
 1522BOLB   C4B36516  16.821  13.864   8.428  0.1055 -0.1417  0.0911
 1522BOLB   NC236517  17.318  11.175   7.460  0.0449  0.3685  0.3010
 1522BOLB   PO236518  17.165  10.791   7.684 -0.0160 -0.0247  0.1519
 1522BOLB   GL336519  17.164  11.146   7.948 -0.0269 -0.2566 -0.0323
 1522BOLB   GL436520  17.420  11.148   7.931 -0.0682  0.0855  0.0819
 1522BOLB   C1C36521  17.143  11.532   8.092  0.1030  0.0194 -0.1705
 1522BOLB   C2C36522  17.314  11.922   8.311  0.3257 -0.2931 -0.2971
 1522BOLB   C3C36523  17.433  12.336   8.567  0.3436  0.0481  0.1233
 1522BOLB   C4C36524  17.295  12.662   8.741  0.1432  0.1821  0.0368
 1522BOLB   C1D36525  17.624  11.399   8.193 -0.3835 -0.1037 -0.0200
 1522BOLB   C2D36526  17.682  11.565   8.512  0.1826 -0.0868 -0.2112
 1522BOLB   C3D36527  17.470  11.830   8.854  0.0930  0.2288  0.1606
 1522BOLB   C4D36528  17.276  11.849   9.248  0.1541 -0.1353 -0.0230
 1523BOLB   NC136529  17.601  19.760  10.857 -0.0595 -0.0410 -0.0993
 1523BOLB   PO136530  17.474  20.236  10.704  0.0618  0.3509 -0.3086
 1523BOLB   GL136531  17.251  20.312  10.364  0.0881  0.0043  0.0516
 1523BOLB   GL236532  16.851  20.389  10.304 -0.1546 -0.3119  0.4140
 1523BOLB   C1A36533  17.187  20.761  10.144  0.5750  0.3103 -0.0597
 1523BOLB   C2A36534  17.088  20.839   9.812 -0.0030  0.0037  0.3803
 1523BOLB   C3A36535  16.933  21.253   9.604 -0.2874 -0.3588  0.1117
 1523BOLB   C4A36536  16.909  21.568   9.282 -0.0443 -0.0606 -0.3076
 1523BOLB   C1B36537  16.934  20.378   9.902  0.0495 -0.1278  0.3172
 1523BOLB   C2B36538  17.004  20.421   9.470  0.1907 -0.4055  0.1567
 1523BOLB   C3B36539  16.969  20.421   9.122 -0.1354 -0.1300 -0.1253
 1523BOLB   C4B36540  16.818  20.401   8.703  0.0625 -0.3479  0.0760
 1523BOLB   NC236541  15.968  22.088   7.209  0.0271 -0.1969 -0.0462
 1523BOLB   PO236542  16.447  22.257   7.368  0.1437 -0.0201  0.2708
 1523BOLB   GL336543  16.535  22.418   7.778 -0.1028  0.1559 -0.2436
 1523BOLB   GL436544  16.755  22.395   7.847  0.1457 -0.1626 -0.0329
 1523BOLB   C1C36545  16.356  22.424   8.194 -0.0641  0.1611 -0.2507
 1523BOLB   C2C36546  16.461  22.266   8.559 -0.1442  0.1869  0.0650
 1523BOLB   C3C36547  16.573  21.895   8.640 -0.0610 -0.4044  0.0420
 1523BOLB   C4C36548  16.664  21.785   8.994  0.1653 -0.2368  0.0978
 1523BOLB   C1D36549  16.893  22.342   8.266 -0.0299 -0.1969  0.0510
 1523BOLB   C2D36550  16.972  22.333   8.645 -0.2931 -0.0411 -0.0404
 1523BOLB   C3D36551  16.921  22.266   9.131  0.2992 -0.2809  0.1223
 1523BOLB   C4D36552  17.163  22.359   9.490 -0.2741 -0.4228  0.0546
 1524BOLB   NC136553  16.204   9.696  12.473 -0.1263 -0.1536  0.0244
 1524BOLB   PO136554  16.138  10.104  12.510  0.0134  0.3636  0.0073
 1524BOLB   GL136555  16.387   9.980  12.133  0.0706 -0.0252  0.3262
 1524BOLB   GL236556  16.126  10.001  12.001 -0.1092  0.1595  0.1049
 1524BOLB   C1A36557  16.688   9.816  11.836 -0.1750 -0.0433  0.0729
 1524BOLB   C2A36558  17.024   9.805  11.496  0.1181  0.1476 -0.1989
 1524BOLB   C3A36559  17.224   9.732  11.157  0.0792  0.0860  0.0086
 1524BOLB   C4A36560  17.394   9.463  10.843 -0.0342 -0.2949 -0.3286
 1524BOLB   C1B36561  16.128   9.624  11.695  0.1735 -0.1590  0.1043
 1524BOLB   C2B36562  16.423   9.515  11.449  0.1665  0.1249  0.2166
 1524BOLB   C3B36563  16.633   9.254  11.227  0.0532 -0.1854  0.0296
 1524BOLB   C4B36564  16.599   9.019  10.840  0.0296  0.0365 -0.0304
 1524BOLB   NC236565  17.885   8.645   8.636 -0.0680  0.0775  0.1123
 1524BOLB   PO236566  18.207   8.323   8.820  0.0135  0.2748 -0.0644
 1524BOLB   GL336567  18.139   8.567   9.257 -0.1649 -0.2270  0.3803
 1524BOLB   GL436568  18.412   8.392   9.532  0.1329  0.2620 -0.3171
 1524BOLB   C1C36569  17.764   8.644   9.499  0.1310  0.0349  0.0203
 1524BOLB   C2C36570  17.459   8.926   9.691  0.4539 -0.0248  0.4135
 1524BOLB   C3C36571  17.549   9.262   9.988  0.1341 -0.1223  0.0432
 1524BOLB   C4C36572  17.504   9.366  10.438 -0.0003  0.0317  0.2557
 1524BOLB   C1D36573  18.298   8.714   9.739  0.0128 -0.1137 -0.2544
 1524BOLB   C2D36574  18.375   8.896  10.145 -0.0589 -0.1342 -0.1710
 1524BOLB   C3D36575  18.838   9.127  10.412 -0.1606  0.1268  0.1673
 1524BOLB   C4D36576  18.993   9.257  10.757  0.2540 -0.1663 -0.2519
 1525BOLB   NC136577   9.548  25.227  12.473 -0.1958 -0.3120  0.1044
 1525BOLB   PO136578   9.380  25.201  12.009  0.1028 -0.0022 -0.1623
 1525BOLB   GL136579   9.485  25.322  11.575 -0.4476  0.2873 -0.1477
 1525BOLB   GL236580   9.166  25.351  11.568  0.0925  0.3926 -0.1386
 1525BOLB   C1A36581   9.658  25.290  11.204 -0.0297  0.1888  0.0039
 1525BOLB   C2A36582   9.577  25.062  10.889 -0.0300 -0.2148  0.1716
 1525BOLB   C3A36583   9.558  24.953  10.453  0.1697 -0.3671 -0.1883
 1525BOLB   C4A36584   9.870  24.645  10.283 -0.2410 -0.0713 -0.2368
 1525BOLB   C1B36585   8.981  25.233  11.217  0.0416  0.0895 -0.0477
 1525BOLB   C2B36586   9.119  24.979  10.768 -0.2612 -0.3008  0.0009
 1525BOLB   C3B36587   9.291  24.631  10.652  0.0487 -0.2579 -0.1804
 1525BOLB   C4B36588   9.446  24.328  10.379 -0.3104  0.2494  0.1520
 1525BOLB   NC236589   8.423  24.393   8.777  0.1375 -0.5125  0.5207
 1525BOLB   PO236590   8.653  24.792   8.858 -0.5175  0.0396  0.3565
 1525BOLB   GL336591   8.909  24.570   9.201  0.1721 -0.1003  0.2008
 1525BOLB   GL436592   8.685  24.303   9.167  0.0718 -0.0654  0.0091
 1525BOLB   C1C36593   9.418  24.639   9.375  0.3176  0.0416 -0.0144
 1525BOLB   C2C36594   9.828  24.470   9.479 -0.1331 -0.0480 -0.1199
 1525BOLB   C3C36595   9.847  24.230   9.771 -0.2861  0.3159 -0.1957
 1525BOLB   C4C36596   9.926  24.247  10.178  0.1003  0.0164  0.4525
 1525BOLB   C1D36597   8.582  23.837   9.307  0.0458 -0.0500  0.0341
 1525BOLB   C2D36598   8.831  23.436   9.491 -0.3298  0.2256 -0.3484
 1525BOLB   C3D36599   9.117  23.352   9.900  0.4495  0.0437  0.1412
 1525BOLB   C4D36600   9.374  23.455  10.260  0.1514  0.2248  0.1586
 1526BOLB   NC136601  13.074  10.325  12.290 -0.1679 -0.0658  0.1825
 1526BOLB   PO136602  12.941   9.963  12.007 -0.1198  0.4074  0.0541
 1526BOLB   GL136603  12.840   9.943  11.522  0.2432  0.3017 -0.0455
 1526BOLB   GL236604  12.766   9.541  11.526 -0.1040  0.0843 -0.1134
 1526BOLB   C1A36605  13.102   9.846  11.277 -0.0572  0.0825  0.1776
 1526BOLB   C2A36606  13.134   9.821  10.941 -0.0865 -0.2728  0.1452
 1526BOLB   C3A36607  12.821   9.760  10.567  0.1408 -0.1826 -0.1827
 1526BOLB   C4A36608  12.828   9.493  10.167  0.2255  0.1140 -0.1617
 1526BOLB   C1B36609  12.704   9.516  11.144 -0.1981  0.0178  0.1201
 1526BOLB   C2B36610  12.362   9.587  10.810 -0.4137  0.1881  0.5081
 1526BOLB   C3B36611  12.060   9.275  10.942  0.2306  0.1672 -0.2470
 1526BOLB   C4B36612  11.677   9.217  10.928  0.1316 -0.1062  0.1565
 1526BOLB   NC236613  12.644   8.984   7.834 -0.3442  0.0172 -0.3261
 1526BOLB   PO236614  13.064   8.719   7.821  0.1918  0.1261 -0.0842
 1526BOLB   GL336615  13.305   8.848   8.228  0.0322 -0.0511 -0.0965
 1526BOLB   GL436616  13.458   8.603   8.364  0.0780 -0.1477  0.0275
 1526BOLB   C1C36617  13.248   9.015   8.539 -0.1880  0.2131 -0.2066
 1526BOLB   C2C36618  13.156   9.286   8.809 -0.3678 -0.0938  0.0103
 1526BOLB   C3C36619  12.911   9.458   9.199 -0.0517 -0.2109 -0.2287
 1526BOLB   C4C36620  12.889   9.355   9.698  0.0511 -0.0722  0.2780
 1526BOLB   C1D36621  13.799   8.536   8.766  0.2536 -0.4667 -0.0570
 1526BOLB   C2D36622  13.859   8.338   9.296 -0.1627 -0.2375 -0.0917
 1526BOLB   C3D36623  13.677   8.497   9.678  0.1218 -0.1533  0.0915
 1526BOLB   C4D36624  13.573   8.735  10.034 -0.0790 -0.1743  0.0892
 1527BOLB   NC136625  12.857  14.552  10.470 -0.3715 -0.1038  0.0896
 1527BOLB   PO136626  12.431  14.710  10.267  0.1617  0.0141  0.1391
 1527BOLB   GL136627  12.399  14.582   9.825 -0.1428  0.2499 -0.0519
 1527BOLB   GL236628  12.007  14.525   9.639 -0.0243 -0.1054 -0.1453
 1527BOLB   C1A36629  12.354  14.552   9.319 -0.5913  0.2014 -0.0540
 1527BOLB   C2A36630  12.540  14.561   8.863  0.2191  0.1079  0.0389
 1527BOLB   C3A36631  12.437  14.489   8.440 -0.0694 -0.3591  0.3326
 1527BOLB   C4A36632  12.604  14.668   8.030 -0.5711 -0.2697  0.0292
 1527BOLB   C1B36633  11.940  14.228   9.297 -0.1708  0.2049 -0.0433
 1527BOLB   C2B36634  12.082  14.189   8.798  0.0520 -0.0129 -0.0787
 1527BOLB   C3B36635  12.123  14.129   8.373  0.0318 -0.2821  0.0633
 1527BOLB   C4B36636  12.320  14.258   8.033 -0.2240  0.0904  0.2128
 1527BOLB   NC236637  12.404  15.316   6.105 -0.5154  0.0513 -0.0944
 1527BOLB   PO236638  12.788  15.045   6.051  0.0364 -0.0911  0.6085
 1527BOLB   GL336639  12.841  14.556   6.241 -0.0747 -0.2941 -0.0612
 1527BOLB   GL436640  12.742  14.581   6.499 -0.1282 -0.0930 -0.0582
 1527BOLB   C1C36641  12.924  14.132   6.545  0.0154  0.0524  0.0694
 1527BOLB   C2C36642  12.956  14.123   6.991 -0.2969 -0.0823 -0.2167
 1527BOLB   C3C36643  13.002  14.049   7.514  0.1246 -0.1505 -0.3081
 1527BOLB   C4C36644  12.780  14.396   7.760  0.0179 -0.0293  0.1757
 1527BOLB   C1D36645  12.883  14.638   6.886  0.3408  0.1017 -0.0253
 1527BOLB   C2D36646  12.937  14.752   7.271 -0.1506 -0.1531 -0.0128
 1527BOLB   C3D36647  12.962  14.837   7.708 -0.0985 -0.1194 -0.2109
 1527BOLB   C4D36648  13.179  14.933   8.155  0.1448  0.1189 -0.2192
 1528BOLB   NC136649  11.175  20.672  11.470  0.2182 -0.2008  0.2758
 1528BOLB   PO136650  11.369  20.853  11.131 -0.0192 -0.1817  0.1222
 1528BOLB   GL136651  11.069  20.876  10.896  0.0876  0.1202  0.0542
 1528BOLB   GL236652  10.912  21.101  11.012  0.0790 -0.1930 -0.0830
 1528BOLB   C1A36653  10.749  20.819  10.619 -0.1944 -0.4080 -0.1594
 1528BOLB   C2A36654  10.528  20.647  10.310  0.0977  0.1397 -0.0617
 1528BOLB   C3A36655  10.616  20.582   9.829  0.2428 -0.0694  0.3585
 1528BOLB   C4A36656  10.479  20.518   9.304  0.2007 -0.1529  0.2493
 1528BOLB   C1B36657  10.662  21.405  10.806  0.0127 -0.2404 -0.0086
 1528BOLB   C2B36658  10.595  21.288  10.323  0.1105 -0.1045 -0.1661
 1528BOLB   C3B36659  10.469  21.130  10.015 -0.1175  0.1839  0.3751
 1528BOLB   C4B36660  10.455  21.028   9.598  0.0518 -0.0132 -0.2152
 1528BOLB   NC236661  10.487  22.446   7.608 -0.0918  0.0450  0.1280
 1528BOLB   PO236662  10.719  22.148   7.396 -0.0395  0.0174 -0.0425
 1528BOLB   GL336663  10.984  22.119   7.823  0.1425  0.1690 -0.0754
 1528BOLB   GL436664  10.883  22.400   7.975 -0.1748 -0.0963 -0.0243
 1528BOLB   C1C36665  10.819  21.723   8.015 -0.1488 -0.1724 -0.2480
 1528BOLB   C2C36666  10.659  21.428   8.308 -0.0561  0.1790 -0.1822
 1528BOLB   C3C36667  10.620  21.033   8.460  0.2011  0.1306 -0.0150
 1528BOLB   C4C36668  10.544  20.838   8.801  0.1875 -0.0237 -0.1897
 1528BOLB   C1D36669  11.033  22.420   8.384 -0.0836 -0.0521 -0.3966
 1528BOLB   C2D36670  11.369  22.606   8.619  0.3114  0.0772  0.0083
 1528BOLB   C3D36671  11.449  22.574   9.013 -0.0135  0.0063  0.1756
 1528BOLB   C4D36672  11.739  22.421   9.270 -0.0861  0.3171  0.1000
 1529BOLB   NC136673  16.571  19.077  10.871 -0.3010 -0.2577 -0.2715
 1529BOLB   PO136674  16.651  19.040  10.490  0.0177  0.0969  0.1898
 1529BOLB   GL136675  16.591  19.262  10.024  0.1938  0.0917  0.1766
 1529BOLB   GL236676  16.824  19.405   9.969 -0.0969 -0.1157 -0.1061
 1529BOLB   C1A36677  16.567  19.306   9.549 -0.0069  0.0553  0.1891
 1529BOLB   C2A36678  16.899  19.333   9.087 -0.0267 -0.0705 -0.4174
 1529BOLB   C3A36679  16.830  19.616   8.774  0.2339  0.0804  0.1202
 1529BOLB   C4A36680  16.832  19.911   8.462  0.0520  0.1311  0.2712
 1529BOLB   C1B36681  17.048  19.437   9.641 -0.0225  0.2432 -0.1249
 1529BOLB   C2B36682  17.418  19.535   9.152  0.0384  0.1335 -0.1572
 1529BOLB   C3B36683  17.368  19.425   8.713  0.0440 -0.2952 -0.0220
 1529BOLB   C4B36684  17.456  19.443   8.308  0.0794 -0.1573 -0.1678
 1529BOLB   NC236685  16.174  19.672   6.418  0.0581 -0.1347 -0.0634
 1529BOLB   PO236686  16.585  19.743   6.606  0.1187  0.2169  0.3856
 1529BOLB   GL336687  16.878  19.823   7.043  0.0809  0.0002 -0.1201
 1529BOLB   GL436688  16.982  20.070   6.944  0.3617  0.1879 -0.0155
 1529BOLB   C1C36689  16.764  20.073   7.423 -0.3032 -0.1956 -0.1159
 1529BOLB   C2C36690  16.694  20.415   7.568 -0.1734  0.5674 -0.1303
 1529BOLB   C3C36691  16.452  20.309   7.891 -0.0344  0.3630  0.1319
 1529BOLB   C4C36692  16.600  20.134   8.176 -0.0741  0.0294  0.0638
 1529BOLB   C1D36693  17.276  20.192   7.142  0.0762 -0.0690 -0.0959
 1529BOLB   C2D36694  17.141  20.461   7.425 -0.0709  0.0502  0.0821
 1529BOLB   C3D36695  17.032  20.522   7.890 -0.1807  0.1602 -0.0988
 1529BOLB   C4D36696  17.054  20.376   8.291 -0.3290 -0.1042  0.1343
 1530BOLB   NC136697  14.964   9.516  12.856  0.0132 -0.2641  0.2260
 1530BOLB   PO136698  15.036   9.073  12.977  0.1172 -0.0721 -0.0745
 1530BOLB   GL136699  15.261   8.725  12.812 -0.2065  0.3289 -0.0207
 1530BOLB   GL236700  15.026   8.521  12.514  0.0780 -0.0656  0.0309
 1530BOLB   C1A36701  15.528   8.351  12.616  0.2072 -0.0148 -0.3467
 1530BOLB   C2A36702  15.891   8.207  12.431 -0.0552  0.2015  0.2423
 1530BOLB   C3A36703  16.251   7.838  12.351 -0.0731  0.1185  0.2108
 1530BOLB   C4A36704  16.394   7.444  11.990  0.3608 -0.1444 -0.0527
 1530BOLB   C1B36705  15.288   8.383  12.107  0.1267  0.0484  0.0796
 1530BOLB   C2B36706  15.609   8.264  11.887 -0.2839  0.1992 -0.2793
 1530BOLB   C3B36707  15.941   7.937  11.732 -0.2610  0.1067  0.0505
 1530BOLB   C4B36708  15.948   7.505  11.682  0.0459  0.2179 -0.3731
 1530BOLB   NC236709  17.740   5.751  11.124 -0.0798 -0.2789  0.1737
 1530BOLB   PO236710  17.997   6.105  11.174 -0.2140  0.1782 -0.1074
 1530BOLB   GL336711  17.959   6.538  11.146 -0.2183 -0.1027  0.0347
 1530BOLB   GL436712  17.725   6.675  10.942 -0.1005 -0.0718  0.2346
 1530BOLB   C1C36713  17.880   6.744  11.476  0.0398  0.1958  0.6119
 1530BOLB   C2C36714  17.465   6.739  11.660 -0.2076 -0.1811  0.0217
 1530BOLB   C3C36715  17.041   6.923  11.858  0.1201 -0.0644 -0.1456
 1530BOLB   C4C36716  16.627   7.144  11.741  0.1727  0.0670  0.1628
 1530BOLB   C1D36717  17.464   7.059  10.787 -0.3041  0.1144  0.2663
 1530BOLB   C2D36718  17.434   7.449  10.688 -0.2335  0.0495 -0.0953
 1530BOLB   C3D36719  17.296   7.902  10.538 -0.1202  0.4187  0.1134
 1530BOLB   C4D36720  17.315   8.429  10.603  0.0393 -0.0228 -0.1495
 1531BOLB   NC136721  20.569  11.548  13.679  0.2890 -0.0102  0.1544
 1531BOLB   PO136722  20.717  11.187  13.577  0.4419  0.1144  0.1016
 1531BOLB   GL136723  20.839  10.875  13.375  0.1231  0.0443  0.1366
 1531BOLB   GL236724  20.659  10.876  13.047  0.0705 -0.0704  0.0168
 1531BOLB   C1A36725  21.071  10.464  13.249 -0.0108 -0.0605 -0.1374
 1531BOLB   C2A36726  21.160  10.292  13.001 -0.0182  0.1921  0.1065
 1531BOLB   C3A36727  21.168   9.870  12.877  0.0521  0.1826  0.1822
 1531BOLB   C4A36728  21.318   9.648  12.585 -0.0400 -0.0011 -0.2115
 1531BOLB   C1B36729  20.603  11.280  12.785 -0.3455  0.0146  0.1228
 1531BOLB   C2B36730  20.863  11.456  12.600  0.0761  0.1402  0.1704
 1531BOLB   C3B36731  21.092  11.184  12.384 -0.4565  0.1077 -0.1535
 1531BOLB   C4B36732  20.795  10.852  12.327 -0.0503  0.1160  0.0935
 1531BOLB   NC236733  22.571   7.967  11.884 -0.0094  0.0816 -0.2972
 1531BOLB   PO236734  22.591   7.647  12.239  0.1207 -0.1120  0.0006
 1531BOLB   GL336735  22.180   7.906  12.245  0.3323  0.2627 -0.0625
 1531BOLB   GL436736  22.024   7.849  12.594  0.1693  0.1329 -0.1134
 1531BOLB   C1C36737  21.700   8.092  12.278 -0.0463  0.3230  0.3074
 1531BOLB   C2C36738  21.345   8.374  12.425  0.2662 -0.1678 -0.3790
 1531BOLB   C3C36739  21.402   8.824  12.474 -0.0291  0.2551  0.2835
 1531BOLB   C4C36740  21.277   9.261  12.413  0.4017  0.2255 -0.0834
 1531BOLB   C1D36741  21.748   8.190  12.762  0.2320 -0.0813 -0.0858
 1531BOLB   C2D36742  21.463   8.572  12.946 -0.0882 -0.2827 -0.4015
 1531BOLB   C3D36743  21.393   9.006  12.961 -0.1619  0.0291  0.0039
 1531BOLB   C4D36744  21.106   9.306  12.897  0.0405  0.1052  0.1457
 1532BOLB   NC136745  16.024  12.892  11.554 -0.3191  0.4207 -0.2604
 1532BOLB   PO136746  15.843  13.066  11.201  0.0737  0.1948 -0.1164
 1532BOLB   GL136747  15.944  12.856  10.816 -0.1094 -0.1168 -0.2480
 1532BOLB   GL236748  16.088  13.068  10.606  0.0204 -0.2851 -0.2176
 1532BOLB   C1A36749  15.963  12.618  10.479 -0.1803 -0.1355 -0.1089
 1532BOLB   C2A36750  15.999  12.454  10.173 -0.2344  0.1015 -0.0113
 1532BOLB   C3A36751  16.295  12.526   9.787  0.2375  0.1545  0.0040
 1532BOLB   C4A36752  16.519  12.583   9.283 -0.2015 -0.2722 -0.2591
 1532BOLB   C1B36753  16.429  12.843  10.217  0.0622 -0.3142  0.0549
 1532BOLB   C2B36754  16.736  12.686   9.887 -0.2554  0.1118 -0.1832
 1532BOLB   C3B36755  16.866  12.377   9.512 -0.0490  0.1023  0.0233
 1532BOLB   C4B36756  16.880  11.994   9.498 -0.0884 -0.1324 -0.0218
 1532BOLB   NC236757  17.683  11.199   6.830  0.0024  0.1822 -0.1400
 1532BOLB   PO236758  17.577  11.498   7.200 -0.0290  0.0832  0.0586
 1532BOLB   GL336759  17.430  11.603   7.650  0.0335  0.2767 -0.0349
 1532BOLB   GL436760  17.662  11.728   7.888 -0.3769 -0.2230  0.0504
 1532BOLB   C1C36761  17.206  12.039   7.799  0.2202 -0.1957 -0.0384
 1532BOLB   C2C36762  17.017  12.309   8.148  0.3289 -0.1805  0.4811
 1532BOLB   C3C36763  16.798  12.257   8.500  0.0005 -0.0266 -0.1617
 1532BOLB   C4C36764  16.455  12.503   8.814  0.2545  0.1077 -0.0192
 1532BOLB   C1D36765  17.717  12.185   7.837  0.1785 -0.1609  0.1693
 1532BOLB   C2D36766  17.475  12.597   8.045  0.3032  0.0611  0.3552
 1532BOLB   C3D36767  17.119  12.789   8.218  0.1378  0.2198 -0.1824
 1532BOLB   C4D36768  16.754  12.820   8.081  0.0364  0.2886  0.2481
 1533BOLB   NC136769  11.960  14.005  10.499  0.2021  0.0333 -0.0779
 1533BOLB   PO136770  12.132  13.669  10.389  0.0468  0.4133  0.1852
 1533BOLB   GL136771  12.386  13.605  10.166  0.1308 -0.0998 -0.1171
 1533BOLB   GL236772  12.542  13.324  10.125  0.2065 -0.0908 -0.2302
 1533BOLB   C1A36773  12.197  13.593   9.710 -0.2788  0.0856  0.0719
 1533BOLB   C2A36774  12.050  13.700   9.330  0.0390 -0.2123 -0.2227
 1533BOLB   C3A36775  11.661  13.761   9.033 -0.2694 -0.1402 -0.4812
 1533BOLB   C4A36776  11.512  13.584   8.675 -0.1130  0.0790  0.2335
 1533BOLB   C1B36777  12.459  13.239   9.758 -0.1036  0.2786  0.0246
 1533BOLB   C2B36778  12.086  13.100   9.420  0.2066  0.0881  0.0700
 1533BOLB   C3B36779  12.104  12.776   9.261 -0.1133  0.0542  0.0503
 1533BOLB   C4B36780  12.168  12.474   9.067  0.0503 -0.4177  0.0564
 1533BOLB   NC236781  10.988  11.783   6.810 -0.5051  0.1516 -0.0185
 1533BOLB   PO236782  10.887  11.435   7.004 -0.1981 -0.2630 -0.1692
 1533BOLB   GL336783  10.909  11.615   7.426  0.1577 -0.2782 -0.1046
 1533BOLB   GL436784  11.144  11.541   7.486 -0.1242 -0.3401  0.0760
 1533BOLB   C1C36785  10.993  11.971   7.727 -0.0283  0.2074  0.1738
 1533BOLB   C2C36786  11.197  12.341   7.990 -0.0619 -0.1931  0.3277
 1533BOLB   C3C36787  11.290  12.737   8.302 -0.0660 -0.2612  0.3163
 1533BOLB   C4C36788  11.385  13.157   8.475  0.0140  0.1113  0.0123
 1533BOLB   C1D36789  11.500  11.800   7.678 -0.1132  0.3010  0.2101
 1533BOLB   C2D36790  11.647  12.126   7.893  0.0347  0.1864 -0.0632
 1533BOLB   C3D36791  11.910  12.167   8.229  0.0418 -0.2300  0.2812
 1533BOLB   C4D36792  12.141  11.834   8.434 -0.1175 -0.1385  0.0201
 1534BOLB   NC136793  11.343  18.244  10.367  0.2998  0.1337  0.0593
 1534BOLB   PO136794  11.732  18.417  10.194 -0.0687 -0.1968  0.1714
 1534BOLB   GL136795  11.608  18.484   9.824 -0.1962 -0.3517  0.0493
 1534BOLB   GL236796  11.839  18.320   9.591  0.2552 -0.0653  0.1246
 1534BOLB   C1A36797  11.392  18.548   9.446  0.2770 -0.0199  0.2121
 1534BOLB   C2A36798  11.073  18.503   9.097 -0.1375 -0.0649  0.2347
 1534BOLB   C3A36799  10.790  18.286   8.838 -0.1288 -0.1138 -0.0603
 1534BOLB   C4A36800  10.622  18.138   8.450 -0.1422 -0.1779 -0.2674
 1534BOLB   C1B36801  11.518  18.059   9.509 -0.0501 -0.0506 -0.0554
 1534BOLB   C2B36802  11.283  17.763   9.606 -0.1766 -0.0532 -0.2712
 1534BOLB   C3B36803  10.945  17.502   9.363  0.0627  0.1383 -0.0150
 1534BOLB   C4B36804  10.945  17.257   8.977 -0.0961 -0.0775  0.1173
 1534BOLB   NC236805   9.606  17.558   6.235 -0.0320 -0.1923  0.2014
 1534BOLB   PO236806  10.046  17.552   6.394  0.0359 -0.1726  0.2904
 1534BOLB   GL336807  10.301  17.681   6.733  0.0431  0.0219 -0.3382
 1534BOLB   GL436808  10.718  17.866   6.748  0.0054 -0.0884 -0.0596
 1534BOLB   C1C36809  10.406  17.656   7.149 -0.3162 -0.0258  0.1567
 1534BOLB   C2C36810  10.163  17.487   7.534 -0.0147  0.2818  0.2282
 1534BOLB   C3C36811  10.107  17.752   7.902 -0.0693 -0.2488 -0.1283
 1534BOLB   C4C36812  10.405  17.849   8.292  0.2386  0.1853  0.2673
 1534BOLB   C1D36813  10.915  17.848   7.140  0.0437  0.0499  0.2947
 1534BOLB   C2D36814  10.779  17.731   7.489 -0.0016 -0.0713  0.0529
 1534BOLB   C3D36815  10.606  17.499   7.843 -0.2694 -0.3173 -0.0234
 1534BOLB   C4D36816  10.710  17.096   8.102  0.2989  0.1284 -0.0181
 1535BOLB   NC136817  10.065   9.314  12.064  0.1953 -0.0742 -0.2458
 1535BOLB   PO136818  10.467   9.161  12.034  0.0895  0.2240  0.0675
 1535BOLB   GL136819  10.775   9.134  11.695 -0.2266 -0.0108  0.2002
 1535BOLB   GL236820  10.827   9.419  11.502 -0.0604  0.1129  0.1251
 1535BOLB   C1A36821  10.820   8.906  11.305 -0.1274 -0.1301  0.1406
 1535BOLB   C2A36822  10.784   8.864  10.873 -0.3917  0.1284  0.3521
 1535BOLB   C3A36823  10.851   8.825  10.392 -0.0580 -0.0003 -0.1038
 1535BOLB   C4A36824  10.628   8.701  10.149  0.1931 -0.2469 -0.4221
 1535BOLB   C1B36825  10.514   9.265  11.281  0.2026  0.2292 -0.3256
 1535BOLB   C2B36826  10.216   9.210  11.017  0.0060  0.2220 -0.3078
 1535BOLB   C3B36827  10.077   9.349  10.624 -0.0567 -0.0027  0.0013
 1535BOLB   C4B36828   9.978   9.323  10.210  0.0427  0.0065 -0.0701
 1535BOLB   NC236829  11.429   7.669   8.265  0.1959 -0.1419 -0.1382
 1535BOLB   PO236830  11.122   7.929   8.418  0.1934 -0.1438 -0.0386
 1535BOLB   GL336831  11.075   8.316   8.449 -0.0514  0.2162  0.2851
 1535BOLB   GL436832  11.174   8.451   8.265 -0.5539 -0.2940  0.1084
 1535BOLB   C1C36833  10.863   8.593   8.651 -0.1363  0.2785  0.2792
 1535BOLB   C2C36834  10.618   8.930   9.084 -0.1683  0.3896 -0.3077
 1535BOLB   C3C36835  10.417   8.773   9.427  0.1316 -0.1118 -0.0076
 1535BOLB   C4C36836  10.414   8.885   9.802  0.0897  0.0295  0.0414
 1535BOLB   C1D36837  11.446   8.362   8.744 -0.0476  0.0725  0.0714
 1535BOLB   C2D36838  11.671   8.225   9.089  0.1643 -0.0762 -0.4177
 1535BOLB   C3D36839  11.727   8.105   9.429 -0.0727 -0.2564  0.0190
 1535BOLB   C4D36840  11.826   7.918   9.833  0.1646 -0.0995 -0.0118
 1536BOLB   NC136841  13.914  13.928  10.197 -0.3415 -0.0294  0.2036
 1536BOLB   PO136842  13.804  13.796   9.866 -0.2249  0.0826 -0.4579
 1536BOLB   GL136843  13.696  13.536   9.605 -0.3647  0.2183  0.1997
 1536BOLB   GL236844  13.747  13.690   9.325 -0.1483  0.0595  0.3038
 1536BOLB   C1A36845  13.513  13.247   9.240 -0.0856 -0.0669 -0.3642
 1536BOLB   C2A36846  13.415  13.125   8.885  0.2977 -0.2955  0.3342
 1536BOLB   C3A36847  13.413  13.012   8.457 -0.4068 -0.0828 -0.2751
 1536BOLB   C4A36848  13.290  13.033   7.988 -0.3642 -0.1655  0.1005
 1536BOLB   C1B36849  13.521  13.603   8.850 -0.1147  0.0471  0.3420
 1536BOLB   C2B36850  13.328  13.894   8.771 -0.0671  0.0145  0.0740
 1536BOLB   C3B36851  13.186  14.088   8.461 -0.1298  0.0802  0.0939
 1536BOLB   C4B36852  12.781  14.155   8.305 -0.0974 -0.1412 -0.1687
 1536BOLB   NC236853  13.203  13.287   6.358 -0.0647 -0.3387  0.1474
 1536BOLB   PO236854  12.770  13.190   6.626 -0.1817  0.1651  0.2435
 1536BOLB   GL336855  12.788  12.985   6.991 -0.3566  0.1335  0.3522
 1536BOLB   GL436856  12.695  13.096   7.318 -0.2001  0.0103 -0.0325
 1536BOLB   C1C36857  12.982  12.632   7.100  0.0836 -0.1392 -0.1515
 1536BOLB   C2C36858  13.219  12.308   7.345 -0.6340  0.0765  0.0679
 1536BOLB   C3C36859  13.495  12.416   7.585  0.2071  0.0467  0.0476
 1536BOLB   C4C36860  13.595  12.813   7.733  0.4774 -0.2649 -0.0376
 1536BOLB   C1D36861  12.452  13.226   7.716 -0.3429  0.1829 -0.1475
 1536BOLB   C2D36862  12.165  13.119   8.048 -0.0898  0.0140 -0.0792
 1536BOLB   C3D36863  11.952  13.293   8.422 -0.1137 -0.0222  0.1376
 1536BOLB   C4D36864  12.059  13.682   8.672 -0.3969 -0.4029  0.2923
 1537BOLB   NC136865   8.676  12.037  12.143  0.0436 -0.1845  0.1385
 1537BOLB   PO136866   9.075  11.962  11.760 -0.0377 -0.0022  0.2252
 1537BOLB   GL136867   9.207  12.099  11.410  0.2448  0.1663 -0.4575
 1537BOLB   GL236868   9.242  12.420  11.304  0.0363 -0.0703 -0.5010
 1537BOLB   C1A36869   9.177  11.991  10.947  0.1900  0.0029  0.0083
 1537BOLB   C2A36870   9.185  12.051  10.497 -0.1563  0.1258  0.1316
 1537BOLB   C3A36871   9.444  12.071  10.094 -0.0330 -0.1802 -0.0562
 1537BOLB   C4A36872   9.651  12.032   9.708 -0.2866  0.1917 -0.0632
 1537BOLB   C1B36873   9.374  12.460  10.868 -0.1642  0.1583 -0.2094
 1537BOLB   C2B36874   9.472  12.482  10.436  0.0846  0.0067  0.1793
 1537BOLB   C3B36875   9.423  12.520   9.899 -0.1976  0.3867 -0.0143
 1537BOLB   C4B36876   9.329  12.587   9.522 -0.1202  0.3029  0.0566
 1537BOLB   NC236877   9.203  11.487   7.540 -0.0196 -0.1076  0.0799
 1537BOLB   PO236878   9.480  11.230   7.300  0.2139 -0.1612  0.2819
 1537BOLB   GL336879   9.568  11.155   7.796 -0.2778 -0.1427  0.0550
 1537BOLB   GL436880   9.896  11.107   7.758  0.0348  0.2775  0.0171
 1537BOLB   C1C36881   9.688  11.317   8.193 -0.0943 -0.0834 -0.0579
 1537BOLB   C2C36882   9.603  11.455   8.638  0.1167 -0.1219  0.0276
 1537BOLB   C3C36883   9.362  11.670   8.972  0.0707 -0.2141 -0.0465
 1537BOLB   C4C36884   9.469  11.963   9.320  0.0453  0.0932  0.1637
 1537BOLB   C1D36885  10.150  11.387   8.150 -0.0374  0.1015 -0.2247
 1537BOLB   C2D36886  10.098  11.350   8.689  0.1468 -0.2431  0.1120
 1537BOLB   C3D36887  10.157  11.096   8.983 -0.1902  0.0166 -0.1149
 1537BOLB   C4D36888   9.959  11.169   9.298 -0.3275 -0.1448 -0.0223
 1538BOLB   NC136889  16.897  17.173   9.726  0.1535 -0.1796  0.0519
 1538BOLB   PO136890  17.137  17.298  10.021 -0.0816 -0.0861 -0.1657
 1538BOLB   GL136891  17.342  17.447   9.763 -0.0860 -0.0027  0.3450
 1538BOLB   GL236892  17.363  17.188   9.525 -0.0064  0.2150  0.1547
 1538BOLB   C1A36893  17.301  17.703   9.255 -0.1119  0.0124 -0.1500
 1538BOLB   C2A36894  16.953  17.792   8.996 -0.0185  0.1546  0.2881
 1538BOLB   C3A36895  16.970  17.996   8.526 -0.0446 -0.0844 -0.1389
 1538BOLB   C4A36896  17.155  18.226   8.165 -0.0902  0.0836  0.0767
 1538BOLB   C1B36897  17.515  17.077   9.126  0.1081  0.0647 -0.0048
 1538BOLB   C2B36898  17.546  17.114   8.694 -0.0535 -0.0071 -0.0761
 1538BOLB   C3B36899  17.659  17.269   8.348 -0.0199 -0.0490  0.1736
 1538BOLB   C4B36900  17.764  17.266   8.046  0.1833  0.2276  0.0582
 1538BOLB   NC236901  17.010  19.681   6.249 -0.0384  0.3311  0.1585
 1538BOLB   PO236902  17.254  19.363   5.963 -0.1730  0.2193  0.2203
 1538BOLB   GL336903  17.158  19.197   6.475 -0.1425 -0.3402 -0.1075
 1538BOLB   GL436904  17.188  19.534   6.728  0.1483 -0.0893  0.1428
 1538BOLB   C1C36905  17.055  18.891   6.843 -0.2346 -0.0767 -0.1812
 1538BOLB   C2C36906  16.909  19.056   7.325  0.2426 -0.6014  0.1206
 1538BOLB   C3C36907  16.971  18.952   7.760 -0.1501  0.0987 -0.1402
 1538BOLB   C4C36908  17.066  18.562   7.899  0.0659  0.1980  0.1574
 1538BOLB   C1D36909  17.284  19.236   7.163 -0.2971 -0.4012 -0.1099
 1538BOLB   C2D36910  17.404  18.908   7.429 -0.2411  0.0099  0.0156
 1538BOLB   C3D36911  17.414  18.504   7.507 -0.0445  0.1267  0.1134
 1538BOLB   C4D36912  17.217  18.127   7.593  0.0612 -0.1269  0.2220
 1539BOLB   NC136913  17.845  21.949  11.958 -0.1852 -0.0528  0.0679
 1539BOLB   PO136914  17.577  22.234  12.051  0.1284 -0.0393  0.0769
 1539BOLB   GL136915  17.535  22.671  11.929 -0.0150 -0.1770 -0.0211
 1539BOLB   GL236916  17.294  22.908  11.992 -0.0192 -0.0745  0.0263
 1539BOLB   C1A36917  17.740  22.916  11.651  0.0458  0.2716  0.1424
 1539BOLB   C2A36918  17.773  23.184  11.266 -0.0505  0.2380  0.0925
 1539BOLB   C3A36919  17.759  23.576  11.071 -0.0401 -0.1612 -0.5799
 1539BOLB   C4A36920  17.603  23.993  10.878  0.1165  0.2496 -0.1416
 1539BOLB   C1B36921  17.395  23.228  11.762  0.2355  0.0660 -0.0521
 1539BOLB   C2B36922  17.495  23.599  11.527  0.1672  0.0193  0.0853
 1539BOLB   C3B36923  17.402  24.037  11.393  0.2987  0.0264  0.2355
 1539BOLB   C4B36924  17.711  24.330  11.297 -0.1937 -0.0233 -0.0486
 1539BOLB   NC236925  17.245  24.597   8.652 -0.0816  0.3875 -0.1113
 1539BOLB   PO236926  17.672  24.786   8.704 -0.2383 -0.2884 -0.0961
 1539BOLB   GL336927  17.566  24.654   9.056 -0.2145 -0.0790  0.2289
 1539BOLB   GL436928  17.465  24.338   9.038 -0.0420  0.1323 -0.0190
 1539BOLB   C1C36929  17.415  24.662   9.498  0.0330  0.0575  0.0061
 1539BOLB   C2C36930  17.285  24.250   9.671  0.0937 -0.1684  0.1493
 1539BOLB   C3C36931  17.268  23.993   9.998 -0.0834 -0.3627  0.0807
 1539BOLB   C4C36932  17.435  24.155  10.416  0.1996  0.0938 -0.3468
 1539BOLB   C1D36933  17.749  24.307   9.402  0.1084  0.0365  0.0290
 1539BOLB   C2D36934  18.122  24.197   9.622  0.2222 -0.0767  0.1699
 1539BOLB   C3D36935  18.350  24.240   9.963 -0.0709 -0.3085  0.2270
 1539BOLB   C4D36936  18.853  24.294   9.822 -0.3090  0.0358  0.3589
 1540BOLB   NC136937   8.857  10.448  12.188  0.0739 -0.0421  0.0089
 1540BOLB   PO136938   9.153  10.626  12.033  0.2951 -0.0461 -0.4557
 1540BOLB   GL136939   9.223  10.344  11.751  0.4880 -0.1046 -0.0857
 1540BOLB   GL236940   8.886  10.287  11.481 -0.1611  0.1141  0.1231
 1540BOLB   C1A36941   9.396  10.227  11.373  0.0776  0.3906 -0.1121
 1540BOLB   C2A36942   9.349  10.153  10.826 -0.2542 -0.1538 -0.2281
 1540BOLB   C3A36943   9.275   9.973  10.467 -0.0165 -0.2304  0.1475
 1540BOLB   C4A36944   9.198  10.002   9.997 -0.2553  0.1110 -0.3411
 1540BOLB   C1B36945   9.027  10.457  11.066 -0.0345  0.0032  0.0661
 1540BOLB   C2B36946   8.911  10.400  10.620 -0.0631 -0.2328  0.1798
 1540BOLB   C3B36947   9.122  10.394  10.266 -0.0990 -0.0323  0.2211
 1540BOLB   C4B36948   8.840  10.352   9.893  0.0179  0.1392  0.1991
 1540BOLB   NC236949   9.831   9.179   7.571  0.0993  0.0600 -0.0951
 1540BOLB   PO236950   9.604   8.981   7.837  0.0198 -0.0837  0.0113
 1540BOLB   GL336951   9.669   9.043   8.285 -0.0687 -0.0601 -0.0852
 1540BOLB   GL436952   9.568   8.711   8.333  0.1886  0.0293 -0.0704
 1540BOLB   C1C36953   9.733   9.468   8.579 -0.3311 -0.2473  0.3113
 1540BOLB   C2C36954   9.564   9.790   8.829 -0.1901  0.0069  0.1891
 1540BOLB   C3C36955   9.384   9.865   9.204 -0.0948 -0.2852 -0.0045
 1540BOLB   C4C36956   9.392   9.769   9.608  0.3792  0.2893  0.0475
 1540BOLB   C1D36957   9.403   8.788   8.722  0.1073 -0.2085  0.0098
 1540BOLB   C2D36958   9.116   8.522   8.891 -0.0111 -0.0978  0.0525
 1540BOLB   C3D36959   8.742   8.631   9.065 -0.3316  0.0205  0.0868
 1540BOLB   C4D36960   8.404   8.735   9.080  0.0329  0.3840 -0.0618
 1541BOLB   NC136961  12.601   9.624  11.995 -0.1571 -0.2387  0.0325
 1541BOLB   PO136962  12.293   9.683  11.711 -0.1129  0.1604 -0.2745
 1541BOLB   GL136963  12.317   9.326  11.403 -0.0605  0.1353  0.0838
 1541BOLB   GL236964  12.159   9.103  11.497  0.0756 -0.2268  0.3845
 1541BOLB   C1A36965  12.502   9.098  10.970 -0.3619  0.3239 -0.0308
 1541BOLB   C2A36966  12.655   9.217  10.630  0.1537  0.0702 -0.1891
 1541BOLB   C3A36967  12.605   9.057  10.127  0.0502  0.0261 -0.0580
 1541BOLB   C4A36968  12.797   8.808   9.873  0.0331 -0.0542  0.4272
 1541BOLB   C1B36969  12.389   8.663  11.214 -0.2751 -0.2323  0.0517
 1541BOLB   C2B36970  12.346   8.340  11.022  0.4996  0.1005 -0.1627
 1541BOLB   C3B36971  12.303   7.870  10.861 -0.2420  0.1586  0.2178
 1541BOLB   C4B36972  12.178   7.508  11.057  0.0225  0.1358 -0.4505
 1541BOLB   NC236973  13.773   8.268   8.074 -0.1165  0.1101 -0.0185
 1541BOLB   PO236974  14.039   8.693   8.100  0.2800  0.1541  0.0833
 1541BOLB   GL336975  14.066   8.948   8.449 -0.1838 -0.0222  0.1423
 1541BOLB   GL436976  13.792   9.132   8.247  0.2335 -0.1842 -0.0352
 1541BOLB   C1C36977  13.766   9.070   8.797 -0.0238 -0.0929 -0.0051
 1541BOLB   C2C36978  13.613   9.030   9.144 -0.1252 -0.4431 -0.1608
 1541BOLB   C3C36979  13.283   9.109   9.252  0.2757 -0.1482  0.2789
 1541BOLB   C4C36980  12.867   8.989   9.397 -0.1367  0.1802  0.0178
 1541BOLB   C1D36981  13.607   9.456   8.486  0.1486  0.0439 -0.1395
 1541BOLB   C2D36982  13.576   9.498   8.932  0.1712 -0.3686 -0.0846
 1541BOLB   C3D36983  13.827   9.809   9.105 -0.2703 -0.1934 -0.1890
 1541BOLB   C4D36984  13.882  10.207   9.288 -0.2782  0.0159  0.1525
 1542BOLB   NC136985  15.617  18.994  10.175 -0.2138  0.3117  0.1919
 1542BOLB   PO136986  15.331  18.937   9.921 -0.0756 -0.1344 -0.2776
 1542BOLB   GL136987  15.504  18.898   9.520 -0.1623  0.3741  0.2408
 1542BOLB   GL236988  15.705  19.146   9.533 -0.0859  0.1990 -0.0955
 1542BOLB   C1A36989  15.374  19.103   9.173 -0.4066 -0.2357  0.0830
 1542BOLB   C2A36990  15.412  19.355   8.803 -0.3122  0.0161  0.0386
 1542BOLB   C3A36991  15.554  19.676   8.627  0.0834 -0.4968  0.0523
 1542BOLB   C4A36992  15.942  19.722   8.426 -0.3072 -0.1311 -0.0768
 1542BOLB   C1B36993  15.886  19.086   9.141  0.6704  0.0689 -0.0522
 1542BOLB   C2B36994  15.905  19.118   8.661  0.3277  0.1721 -0.1252
 1542BOLB   C3B36995  16.185  19.268   8.261  0.0756 -0.1020 -0.1967
 1542BOLB   C4B36996  16.536  19.608   8.129 -0.0981 -0.2752 -0.1419
 1542BOLB   NC236997  16.728  20.609   6.575 -0.1485 -0.2677 -0.1724
 1542BOLB   PO236998  16.873  21.035   6.759 -0.0959  0.0483 -0.1016
 1542BOLB   GL336999  16.683  20.789   7.067  0.1886  0.1558 -0.1160
 1542BOLB   GL437000  16.603  20.857   7.331  0.4439 -0.0690  0.0342
 1542BOLB   C1C37001  16.448  20.360   7.075  0.0286  0.0049  0.0604
 1542BOLB   C2C37002  16.216  20.082   7.417 -0.0551 -0.0402 -0.2489
 1542BOLB   C3C37003  15.973  20.138   7.685 -0.0810 -0.1034  0.1701
 1542BOLB   C4C37004  16.109  19.935   8.032  0.0284  0.0957  0.0132
 1542BOLB   C1D37005  16.643  20.939   7.702 -0.2862  0.1931  0.1251
 1542BOLB   C2D37006  16.638  20.631   8.165  0.3331 -0.0843 -0.0253
 1542BOLB   C3D37007  16.410  20.485   8.461 -0.2229 -0.0751  0.2436
 1542BOLB   C4D37008  16.103  20.691   8.639  0.0399  0.0322  0.0491
 1543BOLB   NC137009  19.302  21.989  12.794  0.2684  0.0447  0.1708
 1543BOLB   PO137010  19.214  22.418  12.534  0.1262  0.1789  0.0021
 1543BOLB   GL137011  19.252  22.433  12.082  0.4479  0.0632 -0.0968
 1543BOLB   GL237012  19.157  22.230  11.830  0.1184  0.1891  0.2865
 1543BOLB   C1A37013  19.085  22.712  11.745  0.3576  0.1190 -0.1566
 1543BOLB   C2A37014  19.296  22.827  11.332 -0.0106  0.1285 -0.1882
 1543BOLB   C3A37015  19.441  22.895  10.981  0.0586 -0.0565 -0.1953
 1543BOLB   C4A37016  19.418  23.189  10.612  0.2182 -0.2623 -0.1303
 1543BOLB   C1B37017  19.350  22.340  11.442 -0.0919 -0.3113  0.3526
 1543BOLB   C2B37018  19.725  22.574  11.280 -0.0996  0.5147 -0.1182
 1543BOLB   C3B37019  20.080  22.660  11.034  0.1533 -0.0777  0.0831
 1543BOLB   C4B37020  20.382  22.451  10.827  0.0041 -0.1356 -0.0339
 1543BOLB   NC237021  19.307  25.048   8.273 -0.1999  0.1367 -0.0026
 1543BOLB   PO237022  19.303  24.857   8.793 -0.2244 -0.2065  0.2251
 1543BOLB   GL337023  19.186  24.603   9.039  0.0590 -0.0520  0.2563
 1543BOLB   GL437024  18.964  24.456   9.076  0.0328  0.1588  0.0820
 1543BOLB   C1C37025  19.378  24.230   9.423 -0.0290  0.0666  0.2178
 1543BOLB   C2C37026  19.501  23.826   9.547 -0.2451  0.2329  0.3269
 1543BOLB   C3C37027  19.436  23.502   9.853  0.3434 -0.3136 -0.2196
 1543BOLB   C4C37028  19.257  23.364  10.197  0.0908 -0.0963  0.0541
 1543BOLB   C1D37029  18.548  24.464   9.354 -0.3493 -0.0434  0.0268
 1543BOLB   C2D37030  18.346  24.691   9.716 -0.1045  0.0758 -0.0805
 1543BOLB   C3D37031  18.142  24.649  10.174 -0.2467 -0.2865 -0.0812
 1543BOLB   C4D37032  18.400  24.703  10.667  0.0510  0.1366 -0.1167
 1544BOLB   NC137033  10.117  13.550  11.331 -0.1606  0.0370 -0.4350
 1544BOLB   PO137034  10.128  14.037  11.156 -0.0109 -0.0937  0.1460
 1544BOLB   GL137035  10.000  13.920  10.793 -0.4790  0.0206  0.0214
 1544BOLB   GL237036  10.101  13.848  10.568  0.4064 -0.2534  0.1980
 1544BOLB   C1A37037   9.568  13.805  10.618  0.1528 -0.3263 -0.1029
 1544BOLB   C2A37038   9.154  13.888  10.420  0.0034  0.2524  0.3911
 1544BOLB   C3A37039   9.046  13.839  10.071  0.2891 -0.1919  0.0088
 1544BOLB   C4A37040   8.879  13.942   9.647 -0.2128  0.3057 -0.2939
 1544BOLB   C1B37041  10.304  13.698  10.241  0.1600 -0.6599 -0.1157
 1544BOLB   C2B37042  10.273  13.750   9.714 -0.3805 -0.1493  0.0630
 1544BOLB   C3B37043  10.289  13.559   9.330  0.0398  0.0808 -0.0404
 1544BOLB   C4B37044  10.213  13.271   9.122  0.2750  0.0618 -0.0695
 1544BOLB   NC237045   8.615  14.263   7.176  0.2257  0.1174  0.0975
 1544BOLB   PO237046   8.455  13.831   7.473  0.1373  0.1082  0.0044
 1544BOLB   GL337047   8.644  14.174   7.648  0.1410  0.2744  0.1751
 1544BOLB   GL437048   8.957  14.417   7.482 -0.0234 -0.3527  0.0375
 1544BOLB   C1C37049   8.581  14.294   8.046  0.0080  0.2738  0.4814
 1544BOLB   C2C37050   8.542  14.367   8.498 -0.1399  0.1631  0.1772
 1544BOLB   C3C37051   8.555  14.002   8.822  0.3150 -0.1334  0.0220
 1544BOLB   C4C37052   8.632  14.008   9.295  0.3332 -0.0927 -0.1977
 1544BOLB   C1D37053   8.899  14.727   7.854  0.1479 -0.2606  0.0116
 1544BOLB   C2D37054   9.056  14.861   8.244 -0.2381  0.0028 -0.0792
 1544BOLB   C3D37055   8.797  14.894   8.668  0.1783  0.1265 -0.3506
 1544BOLB   C4D37056   8.480  14.645   8.964  0.0482 -0.0526 -0.3025
 1545BOLB   NC137057  10.320  13.198  11.756 -0.1660 -0.0708  0.0594
 1545BOLB   PO137058  10.134  13.062  11.297 -0.4629 -0.0361 -0.1375
 1545BOLB   GL137059   9.955  12.999  10.939  0.3927 -0.0393 -0.0088
 1545BOLB   GL237060   9.904  13.353  10.944  0.0952 -0.3191  0.1044
 1545BOLB   C1A37061   9.834  12.797  10.535  0.4705 -0.2922 -0.0840
 1545BOLB   C2A37062   9.698  12.952  10.090 -0.1974  0.1484 -0.1573
 1545BOLB   C3A37063   9.538  13.150   9.728  0.0392  0.3101 -0.1553
 1545BOLB   C4A37064   9.296  13.172   9.355 -0.1703 -0.1070 -0.7089
 1545BOLB   C1B37065   9.697  13.292  10.587 -0.4343 -0.1877 -0.0578
 1545BOLB   C2B37066   9.490  13.422  10.246 -0.1473  0.5394 -0.1048
 1545BOLB   C3B37067   9.043  13.331  10.102 -0.0235  0.0348 -0.0897
 1545BOLB   C4B37068   8.992  13.366   9.731  0.1413 -0.1710 -0.0873
 1545BOLB   NC237069   8.674  13.350   7.291  0.1526  0.0165  0.0726
 1545BOLB   PO237070   9.027  13.298   6.966 -0.0560 -0.2459  0.3072
 1545BOLB   GL337071   9.152  13.259   7.399 -0.0452  0.2321  0.1454
 1545BOLB   GL437072   9.436  13.392   7.628  0.1648  0.0122  0.1600
 1545BOLB   C1C37073   9.200  13.003   7.813  0.1767  0.1241 -0.1733
 1545BOLB   C2C37074   8.830  13.035   8.164 -0.1190 -0.0868  0.1295
 1545BOLB   C3C37075   8.932  13.074   8.665  0.1868 -0.0402 -0.2020
 1545BOLB   C4C37076   9.079  13.238   9.050 -0.1150 -0.1539 -0.4052
 1545BOLB   C1D37077   9.719  13.307   8.015  0.2152  0.1160  0.0069
 1545BOLB   C2D37078   9.805  13.213   8.380 -0.3294 -0.1576  0.1704
 1545BOLB   C3D37079  10.056  13.055   8.675 -0.2017  0.2796  0.0307
 1545BOLB   C4D37080  10.380  12.965   8.777  0.1940  0.0062 -0.1493
 1546BOLB   NC137081  14.699  11.052  11.022 -0.0647  0.0810  0.1883
 1546BOLB   PO137082  14.865  11.402  11.160  0.0756 -0.1792  0.0983
 1546BOLB   GL137083  14.646  11.534  10.829 -0.0207 -0.0607  0.0821
 1546BOLB   GL237084  14.488  11.350  10.610  0.3643  0.1222  0.0228
 1546BOLB   C1A37085  14.771  11.688  10.439 -0.1352  0.0389  0.2516
 1546BOLB   C2A37086  14.807  11.648   9.965 -0.1715  0.1543 -0.2117
 1546BOLB   C3A37087  14.793  11.542   9.568  0.1792  0.3082 -0.1634
 1546BOLB   C4A37088  14.938  11.307   9.149  0.0609  0.1872 -0.2251
 1546BOLB   C1B37089  14.403  11.388  10.233  0.3393  0.0674  0.0700
 1546BOLB   C2B37090  14.396  11.316   9.880 -0.1137 -0.2485 -0.2059
 1546BOLB   C3B37091  14.320  11.141   9.422 -0.2690 -0.3684 -0.0569
 1546BOLB   C4B37092  14.449  11.036   9.097  0.2738 -0.2058  0.1821
 1546BOLB   NC237093  14.635   9.873   7.477  0.0787 -0.3790 -0.0844
 1546BOLB   PO237094  14.322  10.155   7.239  0.3737  0.0480  0.0300
 1546BOLB   GL337095  14.304  10.407   7.530 -0.0607 -0.3208  0.0990
 1546BOLB   GL437096  14.471  10.687   7.608 -0.4282 -0.1042  0.1376
 1546BOLB   C1C37097  14.225  10.508   8.028 -0.1437 -0.0509 -0.0311
 1546BOLB   C2C37098  14.149  10.834   8.237  0.0200  0.0936  0.0905
 1546BOLB   C3C37099  14.381  11.107   8.526  0.0280  0.1984  0.0965
 1546BOLB   C4C37100  14.780  11.190   8.738  0.2004 -0.3260  0.4446
 1546BOLB   C1D37101  14.789  10.821   7.934 -0.0206 -0.0608 -0.0154
 1546BOLB   C2D37102  14.990  10.806   8.392 -0.0814  0.0014  0.2809
 1546BOLB   C3D37103  15.081  10.653   8.770 -0.1540 -0.2823  0.0086
 1546BOLB   C4D37104  15.244  10.869   9.173 -0.1369 -0.1068  0.0536
 1547BOLB   NC137105  17.810   9.865  13.648 -0.0237  0.0249  0.0145
 1547BOLB   PO137106  17.835   9.663  13.267 -0.0889  0.0707 -0.1886
 1547BOLB   GL137107  18.142   9.388  13.138  0.2973  0.0959 -0.0521
 1547BOLB   GL237108  18.465   9.488  13.165 -0.0649  0.0481 -0.0824
 1547BOLB   C1A37109  18.119   8.946  13.075  0.1273 -0.2158  0.0200
 1547BOLB   C2A37110  18.523   8.762  13.145  0.0013 -0.0124 -0.0489
 1547BOLB   C3A37111  18.884   8.540  12.828  0.1151 -0.3272 -0.2820
 1547BOLB   C4A37112  19.132   8.352  12.648 -0.0964  0.2570 -0.0626
 1547BOLB   C1B37113  18.495   9.164  12.884  0.0306 -0.1334  0.1111
 1547BOLB   C2B37114  18.432   8.970  12.483 -0.1515 -0.0244  0.1504
 1547BOLB   C3B37115  18.499   8.769  12.218  0.0637  0.1304 -0.2401
 1547BOLB   C4B37116  18.725   8.553  12.042 -0.1981 -0.1392 -0.1166
 1547BOLB   NC237117  19.047   7.666  10.173  0.1886  0.3272 -0.2118
 1547BOLB   PO237118  19.375   7.637  10.428  0.0281 -0.1450  0.0273
 1547BOLB   GL337119  19.108   7.937  10.698  0.0287 -0.1267 -0.0633
 1547BOLB   GL437120  18.851   8.168  10.487  0.1198 -0.0260 -0.1484
 1547BOLB   C1C37121  19.040   8.156  11.048  0.1054 -0.3217 -0.1156
 1547BOLB   C2C37122  19.190   8.253  11.465 -0.3024  0.0345  0.1330
 1547BOLB   C3C37123  19.263   8.426  11.876  0.4789 -0.0671  0.1709
 1547BOLB   C4C37124  19.254   8.270  12.302 -0.0054 -0.1005 -0.2256
 1547BOLB   C1D37125  18.633   8.288  10.882  0.5016  0.0437 -0.2500
 1547BOLB   C2D37126  18.736   8.404  11.441 -0.1009 -0.1972 -0.0280
 1547BOLB   C3D37127  18.947   8.827  11.615  0.0445  0.4114 -0.0177
 1547BOLB   C4D37128  19.408   8.844  11.610  0.0211 -0.0451  0.5098
 1548BOLB   NC137129  11.262  21.977  11.800 -0.0701  0.1588 -0.1322
 1548BOLB   PO137130  10.952  22.342  11.782  0.0725  0.0645  0.0722
 1548BOLB   GL137131  11.013  22.440  11.261  0.0491 -0.0041 -0.0613
 1548BOLB   GL237132  11.196  22.334  11.216 -0.0163  0.2107  0.3565
 1548BOLB   C1A37133  10.910  22.635  10.865  0.0057 -0.2018  0.0122
 1548BOLB   C2A37134  10.959  22.607  10.417 -0.0927 -0.1110  0.1672
 1548BOLB   C3A37135  10.957  22.606  10.004  0.1204  0.2842  0.1355
 1548BOLB   C4A37136  10.973  22.364   9.622 -0.1576  0.2634  0.1858
 1548BOLB   C1B37137  11.366  22.360  10.797 -0.1503 -0.2852  0.3615
 1548BOLB   C2B37138  11.401  22.381  10.336  0.1336  0.0987  0.1225
 1548BOLB   C3B37139  11.421  22.395   9.945  0.0866 -0.0891 -0.0585
 1548BOLB   C4B37140  11.357  22.663   9.544  0.6213 -0.0010  0.2159
 1548BOLB   NC237141   9.424  22.727   7.747  0.4110 -0.4109  0.1651
 1548BOLB   PO237142   9.781  22.917   7.974 -0.0969 -0.1756  0.0151
 1548BOLB   GL337143  10.241  22.781   8.206  0.0015  0.0992  0.1800
 1548BOLB   GL437144  10.418  22.583   8.084  0.3196 -0.0397 -0.1748
 1548BOLB   C1C37145  10.522  23.043   8.360  0.4527 -0.0868 -0.0054
 1548BOLB   C2C37146  10.681  22.889   8.710  0.2900 -0.0011 -0.1838
 1548BOLB   C3C37147  10.827  22.585   8.872 -0.0305  0.1168  0.0671
 1548BOLB   C4C37148  11.051  22.312   9.221 -0.0818  0.1989 -0.0597
 1548BOLB   C1D37149  10.543  22.242   8.291  0.1345  0.1158 -0.2824
 1548BOLB   C2D37150  10.783  22.063   8.621 -0.0903 -0.1457  0.2269
 1548BOLB   C3D37151  11.220  22.162   8.781 -0.0941  0.0979 -0.2831
 1548BOLB   C4D37152  11.675  22.238   8.754  0.1858  0.0694 -0.1187
 1549BOLB   NC137153  12.084  14.837  10.687  0.2681 -0.3593  0.0876
 1549BOLB   PO137154  11.871  14.603  10.505  0.1315 -0.1844 -0.2274
 1549BOLB   GL137155  11.737  14.301  10.117 -0.2315 -0.0991  0.1634
 1549BOLB   GL237156  11.603  13.953  10.136 -0.3520 -0.1234 -0.4112
 1549BOLB   C1A37157  11.607  14.003   9.636  0.0187  0.2010  0.2674
 1549BOLB   C2A37158  11.267  13.858   9.372  0.0133  0.4478  0.3167
 1549BOLB   C3A37159  11.173  13.859   8.935  0.1120 -0.0710  0.0057
 1549BOLB   C4A37160  11.150  13.996   8.459  0.1389  0.0371 -0.1269
 1549BOLB   C1B37161  11.734  13.585   9.808 -0.3598 -0.0428 -0.1705
 1549BOLB   C2B37162  11.645  13.373   9.446 -0.0984  0.0590 -0.1844
 1549BOLB   C3B37163  11.825  13.278   9.023 -0.0643 -0.0079 -0.0459
 1549BOLB   C4B37164  12.108  13.043   8.835  0.3224  0.0361 -0.0564
 1549BOLB   NC237165  12.059  13.876   5.981 -0.4579 -0.0720  0.1284
 1549BOLB   PO237166  11.689  13.867   6.251 -0.0173 -0.0814  0.1547
 1549BOLB   GL337167  11.901  14.037   6.591  0.0814 -0.0929 -0.2925
 1549BOLB   GL437168  12.008  13.756   6.900  0.1103 -0.0871 -0.0449
 1549BOLB   C1C37169  11.666  14.218   6.970  0.2430 -0.2745 -0.3656
 1549BOLB   C2C37170  11.353  14.466   7.297 -0.0920  0.0593 -0.0712
 1549BOLB   C3C37171  11.354  14.245   7.711 -0.1855  0.1806  0.2615
 1549BOLB   C4C37172  11.300  14.041   8.169  0.2496 -0.4509 -0.0476
 1549BOLB   C1D37173  12.108  14.102   7.186 -0.2160 -0.2222 -0.0373
 1549BOLB   C2D37174  12.470  14.099   7.524 -0.2491  0.1414 -0.1105
 1549BOLB   C3D37175  12.635  13.823   7.832 -0.0849  0.5102  0.2145
 1549BOLB   C4D37176  12.297  13.613   8.138  0.1194 -0.1440  0.2356
 1550BOLB   NC137177  15.310  18.087  10.025  0.3920 -0.3829  0.3789
 1550BOLB   PO137178  15.400  17.696   9.902  0.0632  0.0364  0.0933
 1550BOLB   GL137179  15.676  17.605   9.545 -0.0333  0.1387 -0.1452
 1550BOLB   GL237180  15.476  17.678   9.339 -0.1652 -0.1064  0.3896
 1550BOLB   C1A37181  15.935  17.617   9.149  0.0642  0.0233 -0.3554
 1550BOLB   C2A37182  16.174  17.680   8.667  0.0074 -0.2071  0.0036
 1550BOLB   C3A37183  16.055  17.701   8.264 -0.1067 -0.1680 -0.4436
 1550BOLB   C4A37184  16.255  17.762   7.877 -0.0787  0.0076  0.1019
 1550BOLB   C1B37185  15.172  17.798   8.910 -0.0064  0.0908  0.0907
 1550BOLB   C2B37186  15.018  17.739   8.576  0.0274 -0.0902  0.0848
 1550BOLB   C3B37187  14.884  18.007   8.269  0.3896  0.1476 -0.0362
 1550BOLB   C4B37188  14.519  18.077   7.966  0.1017 -0.1934 -0.0729
 1550BOLB   NC237189  17.219  18.652   5.605 -0.0055 -0.0056  0.4250
 1550BOLB   PO237190  16.790  18.840   5.862  0.0108 -0.2353  0.0538
 1550BOLB   GL337191  16.916  18.795   6.337  0.0560  0.1330  0.1399
 1550BOLB   GL437192  17.122  18.472   6.476 -0.0555 -0.3326 -0.4736
 1550BOLB   C1C37193  16.622  18.622   6.716  0.0812 -0.1882  0.2743
 1550BOLB   C2C37194  16.469  18.544   7.130 -0.0462  0.2618 -0.0229
 1550BOLB   C3C37195  16.352  18.274   7.383 -0.2749  0.0994 -0.4108
 1550BOLB   C4C37196  16.190  18.007   7.594  0.1466 -0.2869  0.0427
 1550BOLB   C1D37197  16.862  17.980   6.510 -0.4658 -0.3677  0.1151
 1550BOLB   C2D37198  16.967  17.648   6.895 -0.1541 -0.0271  0.5321
 1550BOLB   C3D37199  17.199  17.574   7.271 -0.0804  0.0057  0.1001
 1550BOLB   C4D37200  17.466  17.453   7.653 -0.1041 -0.1105 -0.0054
 1551BOLB   NC137201   9.228  27.217  11.656  0.1013 -0.2588  0.1408
 1551BOLB   PO137202   9.588  26.906  11.667 -0.0363  0.0534  0.2392
 1551BOLB   GL137203  10.008  26.747  11.649  0.0755 -0.1379 -0.1625
 1551BOLB   GL237204  10.157  26.762  11.334  0.0874  0.1508 -0.5027
 1551BOLB   C1A37205  10.188  26.355  11.762 -0.7130 -0.1151  0.2693
 1551BOLB   C2A37206  10.223  25.893  11.721  0.1683 -0.4126 -0.0769
 1551BOLB   C3A37207  10.499  25.570  11.530  0.0837 -0.0812  0.0524
 1551BOLB   C4A37208  10.735  25.520  11.139 -0.2804  0.1637  0.6484
 1551BOLB   C1B37209  10.365  26.428  11.260 -0.1048  0.2561  0.2434
 1551BOLB   C2B37210  10.344  25.888  11.210  0.1740 -0.1566 -0.2221
 1551BOLB   C3B37211   9.905  25.746  11.340  0.0528 -0.0024 -0.1587
 1551BOLB   C4B37212   9.369  25.706  11.265 -0.4007  0.0846 -0.0433
 1551BOLB   NC237213   9.156  26.283   9.851 -0.0446 -0.1154  0.1791
 1551BOLB   PO237214   9.290  26.323   9.456 -0.2296  0.1071 -0.0251
 1551BOLB   GL337215   9.613  26.098   9.696 -0.1111 -0.1258  0.2826
 1551BOLB   GL437216   9.852  26.287   9.638 -0.0806  0.1917  0.3988
 1551BOLB   C1C37217   9.766  25.725   9.846 -0.2946  0.2323  0.2816
 1551BOLB   C2C37218  10.149  25.658  10.126  0.0733  0.0959  0.1363
 1551BOLB   C3C37219  10.428  25.518  10.345  0.3078 -0.0660 -0.3229
 1551BOLB   C4C37220  10.528  25.563  10.834 -0.1641 -0.2044 -0.0673
 1551BOLB   C1D37221  10.125  26.004   9.699 -0.2584 -0.1890  0.2489
 1551BOLB   C2D37222  10.518  25.666   9.586  0.3013  0.1806  0.0167
 1551BOLB   C3D37223  10.921  25.379   9.569  0.1777 -0.1395 -0.0846
 1551BOLB   C4D37224  11.202  25.110   9.881  0.0571  0.1868  0.0903
 1552BOLB   NC137225  21.931  21.086  12.655 -0.0370  0.1152  0.0055
 1552BOLB   PO137226  21.608  21.308  12.364 -0.1462 -0.0339  0.3301
 1552BOLB   GL137227  21.781  21.500  11.991  0.0085  0.1053 -0.3063
 1552BOLB   GL237228  21.998  21.751  12.135 -0.0309 -0.2077 -0.0466
 1552BOLB   C1A37229  21.790  21.443  11.566  0.2431  0.0654 -0.0737
 1552BOLB   C2A37230  21.808  21.492  11.077 -0.1879  0.2772 -0.2109
 1552BOLB   C3A37231  21.942  21.629  10.758 -0.0352 -0.0803  0.1636
 1552BOLB   C4A37232  21.744  21.823  10.356 -0.0973 -0.1392 -0.3865
 1552BOLB   C1B37233  21.862  21.930  11.716 -0.0745 -0.0323 -0.1672
 1552BOLB   C2B37234  21.897  22.250  11.474 -0.2641  0.0766 -0.0807
 1552BOLB   C3B37235  22.016  22.547  11.261  0.2018  0.0134 -0.0689
 1552BOLB   C4B37236  22.196  22.871  11.128 -0.1632  0.2504  0.1382
 1552BOLB   NC237237  21.694  22.649   8.436 -0.2529  0.1996  0.0042
 1552BOLB   PO237238  21.644  22.346   8.493 -0.0176 -0.1323 -0.0626
 1552BOLB   GL337239  21.766  22.152   8.830  0.0851 -0.2224  0.0857
 1552BOLB   GL437240  21.465  21.904   8.722 -0.0564  0.0277  0.2479
 1552BOLB   C1C37241  21.541  22.230   9.127  0.1259 -0.0408 -0.1325
 1552BOLB   C2C37242  21.285  22.206   9.393 -0.1049  0.2654 -0.1812
 1552BOLB   C3C37243  21.298  22.113   9.844 -0.4674 -0.2681  0.2082
 1552BOLB   C4C37244  21.495  21.918  10.068  0.0713 -0.2025  0.0251
 1552BOLB   C1D37245  21.496  21.611   9.061 -0.0910 -0.2356  0.0827
 1552BOLB   C2D37246  21.341  21.169   9.158  0.1624  0.0575 -0.0820
 1552BOLB   C3D37247  21.115  20.762   9.413 -0.0474  0.0022 -0.3017
 1552BOLB   C4D37248  20.872  20.459   9.712  0.0646 -0.1465  0.0078
 1553BOLB   NC137249   9.358  21.626  12.159 -0.0440 -0.0485  0.0631
 1553BOLB   PO137250   9.557  21.271  12.106 -0.0707 -0.1765 -0.1439
 1553BOLB   GL137251   9.491  21.499  11.683  0.1085 -0.2686  0.4128
 1553BOLB   GL237252   9.365  21.827  11.690  0.0766  0.1308  0.2136
 1553BOLB   C1A37253   9.158  21.371  11.340 -0.0623 -0.3125 -0.0486
 1553BOLB   C2A37254   8.792  21.319  11.044  0.4279  0.2956 -0.0074
 1553BOLB   C3A37255   8.604  21.381  10.682 -0.3416 -0.0581  0.1440
 1553BOLB   C4A37256   8.171  21.276  10.436 -0.0111 -0.1169  0.1530
 1553BOLB   C1B37257   9.353  21.820  11.206 -0.3858  0.4479  0.4547
 1553BOLB   C2B37258   9.177  21.555  10.839 -0.3670  0.2062 -0.0945
 1553BOLB   C3B37259   9.052  21.588  10.307  0.0690  0.0374  0.1893
 1553BOLB   C4B37260   9.038  21.362   9.975  0.2871 -0.2704  0.1239
 1553BOLB   NC237261   6.609  20.166   8.819 -0.4276  0.1019 -0.2231
 1553BOLB   PO237262   6.531  20.467   9.130 -0.0078  0.1992 -0.1495
 1553BOLB   GL337263   6.891  20.574   9.249  0.1602  0.2591 -0.1374
 1553BOLB   GL437264   7.120  20.393   9.058  0.0060 -0.1303  0.0153
 1553BOLB   C1C37265   6.958  20.908   9.441  0.0623 -0.1858  0.0097
 1553BOLB   C2C37266   7.137  21.131   9.579 -0.1033 -0.3935  0.1177
 1553BOLB   C3C37267   7.573  21.019   9.630  0.1731  0.1711 -0.0257
 1553BOLB   C4C37268   7.970  21.181   9.928  0.1639 -0.0215 -0.0989
 1553BOLB   C1D37269   7.213  20.132   9.397  0.3289  0.1832  0.1952
 1553BOLB   C2D37270   7.188  20.104   9.930 -0.2704 -0.1019 -0.1807
 1553BOLB   C3D37271   7.510  20.336  10.197 -0.0099  0.0720 -0.0062
 1553BOLB   C4D37272   7.968  20.279  10.147 -0.0136  0.0856 -0.0598
 1554BOLB   NC137273  11.014  14.611  10.452 -0.0876 -0.0967 -0.1006
 1554BOLB   PO137274  11.004  14.959  10.128 -0.3076 -0.1015  0.0008
 1554BOLB   GL137275  11.152  14.874   9.653  0.2547  0.1335 -0.0549
 1554BOLB   GL237276  11.545  14.744   9.716  0.0229 -0.0527 -0.1181
 1554BOLB   C1A37277  11.372  14.944   9.222  0.0746  0.4690 -0.1129
 1554BOLB   C2A37278  11.276  14.649   8.830 -0.1615  0.1415 -0.5562
 1554BOLB   C3A37279  11.425  14.546   8.496  0.0743 -0.4411 -0.1383
 1554BOLB   C4A37280  11.249  14.592   8.057  0.3046  0.0113 -0.3631
 1554BOLB   C1B37281  11.370  14.483   9.349 -0.2797  0.0402  0.2561
 1554BOLB   C2B37282  11.511  14.219   9.042 -0.0812  0.2679  0.1219
 1554BOLB   C3B37283  11.647  14.087   8.654  0.0314 -0.1713 -0.2805
 1554BOLB   C4B37284  11.681  13.832   8.323 -0.2129  0.0587  0.1549
 1554BOLB   NC237285  11.771  15.637   5.633  0.0643 -0.0655  0.2407
 1554BOLB   PO237286  11.753  15.444   6.107  0.3181 -0.1081 -0.0677
 1554BOLB   GL337287  11.841  15.491   6.538 -0.1126  0.1395 -0.0545
 1554BOLB   GL437288  11.972  15.721   6.627 -0.1603 -0.1755 -0.0297
 1554BOLB   C1C37289  11.668  15.427   6.971  0.0193 -0.0692 -0.1876
 1554BOLB   C2C37290  11.302  15.404   7.152  0.0470  0.0506 -0.2816
 1554BOLB   C3C37291  11.024  15.215   7.463 -0.0646  0.0099  0.0298
 1554BOLB   C4C37292  11.215  14.897   7.639 -0.0550 -0.0777 -0.1586
 1554BOLB   C1D37293  11.972  15.952   6.957 -0.1200  0.2806 -0.3544
 1554BOLB   C2D37294  11.881  16.296   7.232  0.1289 -0.0573 -0.0249
 1554BOLB   C3D37295  11.825  16.683   7.152  0.2985 -0.0553 -0.2209
 1554BOLB   C4D37296  12.081  17.046   6.837  0.0247  0.0618 -0.0277
 1555BOLB   NC137297  10.526  13.152  10.951 -0.1715  0.1311  0.0869
 1555BOLB   PO137298  10.375  13.630  10.948  0.0156  0.0682  0.1335
 1555BOLB   GL137299  10.243  13.296  10.612  0.3524 -0.1653 -0.2033
 1555BOLB   GL237300  10.229  12.994  10.503 -0.1742 -0.0922  0.1420
 1555BOLB   C1A37301   9.987  13.332  10.107 -0.3745 -0.2380  0.0133
 1555BOLB   C2A37302   9.887  13.446   9.762 -0.0212  0.0014  0.2719
 1555BOLB   C3A37303   9.779  13.488   9.318  0.2183 -0.0743  0.0756
 1555BOLB   C4A37304   9.522  13.648   8.948  0.1319 -0.2513 -0.2122
 1555BOLB   C1B37305  10.364  13.017  10.091 -0.3067  0.1004  0.1167
 1555BOLB   C2B37306  10.071  12.976   9.684 -0.0184 -0.0233  0.0288
 1555BOLB   C3B37307  10.276  12.801   9.291 -0.1755  0.2364 -0.2558
 1555BOLB   C4B37308  10.179  12.530   8.858 -0.0374 -0.0701 -0.0178
 1555BOLB   NC237309   9.875  13.114   6.397  0.2087  0.2092  0.1663
 1555BOLB   PO237310  10.041  13.268   6.756 -0.3590  0.2220 -0.0310
 1555BOLB   GL337311   9.887  13.378   7.099  0.1831 -0.0304 -0.0937
 1555BOLB   GL437312   9.835  13.248   7.408  0.0250 -0.0863  0.3184
 1555BOLB   C1C37313   9.842  13.780   7.426 -0.1859  0.0206 -0.0037
 1555BOLB   C2C37314   9.658  13.859   7.669 -0.0901 -0.0272 -0.1671
 1555BOLB   C3C37315   9.436  13.799   8.117 -0.0424 -0.1806 -0.3169
 1555BOLB   C4C37316   9.637  13.683   8.487  0.0142  0.0374 -0.0738
 1555BOLB   C1D37317  10.083  13.228   7.721 -0.1569  0.1172  0.3404
 1555BOLB   C2D37318  10.178  13.089   8.103 -0.0603 -0.2290  0.0250
 1555BOLB   C3D37319  10.328  12.771   8.264  0.3475 -0.0134 -0.0569
 1555BOLB   C4D37320  10.826  12.507   8.398  0.0083 -0.0816  0.1825
 1556BOLB   NC137321  18.076  15.482  10.857 -0.0054  0.1163  0.3755
 1556BOLB   PO137322  18.116  15.225  10.496  0.0428  0.0759  0.1332
 1556BOLB   GL137323  18.096  15.108  10.183  0.3627  0.1660  0.0005
 1556BOLB   GL237324  17.876  15.369   9.918 -0.0444 -0.1066 -0.0308
 1556BOLB   C1A37325  18.256  14.944   9.812 -0.0724 -0.0255 -0.1282
 1556BOLB   C2A37326  18.231  14.743   9.470  0.1383 -0.1546  0.0191
 1556BOLB   C3A37327  18.392  14.608   9.086  0.0791 -0.2383 -0.0425
 1556BOLB   C4A37328  18.555  14.339   8.803 -0.0653  0.0531  0.2044
 1556BOLB   C1B37329  18.119  15.398   9.556 -0.2288  0.0659 -0.0853
 1556BOLB   C2B37330  18.325  15.218   9.155  0.2085  0.0660 -0.0959
 1556BOLB   C3B37331  18.548  14.972   8.759 -0.2474 -0.0763 -0.1329
 1556BOLB   C4B37332  18.756  14.660   8.485  0.1164 -0.1515  0.0843
 1556BOLB   NC237333  18.890  13.752   6.511 -0.1516 -0.0441 -0.0024
 1556BOLB   PO237334  18.741  14.005   6.700 -0.1252  0.1412  0.2814
 1556BOLB   GL337335  18.755  14.053   7.017  0.0991 -0.1408 -0.0471
 1556BOLB   GL437336  18.719  14.495   7.163 -0.0599  0.0261 -0.0627
 1556BOLB   C1C37337  18.626  13.975   7.457  0.0117 -0.3774 -0.1301
 1556BOLB   C2C37338  18.576  14.347   7.689 -0.2132 -0.0325  0.3986
 1556BOLB   C3C37339  18.371  14.334   8.095  0.2489 -0.0052 -0.0031
 1556BOLB   C4C37340  18.342  14.164   8.458 -0.1899  0.2718  0.0064
 1556BOLB   C1D37341  18.488  14.758   7.121  0.1361 -0.0878 -0.4162
 1556BOLB   C2D37342  18.466  15.133   7.121  0.0242  0.0356  0.4241
 1556BOLB   C3D37343  18.556  15.481   7.396  0.0532 -0.1394 -0.0913
 1556BOLB   C4D37344  18.597  15.824   7.733  0.2932 -0.0288  0.3035
 1557BOLB   NC137345  11.818  18.843  10.484  0.1795 -0.0020 -0.1824
 1557BOLB   PO137346  11.523  19.177  10.585  0.3616 -0.3108 -0.0942
 1557BOLB   GL137347  11.251  19.239  10.256  0.4142  0.0181 -0.1089
 1557BOLB   GL237348  10.862  18.984  10.432  0.2728  0.3264 -0.0337
 1557BOLB   C1A37349  10.933  19.597  10.203  0.2874  0.0362 -0.2229
 1557BOLB   C2A37350  10.750  19.806   9.832 -0.2553  0.2507  0.1646
 1557BOLB   C3A37351  10.638  19.646   9.357  0.1378 -0.1347  0.2575
 1557BOLB   C4A37352  10.437  19.922   8.996 -0.1021  0.1298  0.1660
 1557BOLB   C1B37353  10.738  19.099  10.152 -0.0451 -0.0324  0.3104
 1557BOLB   C2B37354  10.547  19.276   9.738  0.2339  0.0797 -0.0595
 1557BOLB   C3B37355  10.458  19.102   9.309  0.1371  0.0584  0.0966
 1557BOLB   C4B37356  10.675  18.796   8.913  0.0048  0.1630  0.2223
 1557BOLB   NC237357   9.552  21.234   7.457  0.1015 -0.2753  0.1235
 1557BOLB   PO237358   9.738  21.561   7.375  0.2012  0.0470 -0.3217
 1557BOLB   GL337359  10.025  21.328   7.636  0.1396  0.1438 -0.2276
 1557BOLB   GL437360   9.923  21.333   7.875  0.1276 -0.2075 -0.1151
 1557BOLB   C1C37361  10.119  20.874   7.880 -0.0298  0.1435 -0.2902
 1557BOLB   C2C37362  10.414  20.619   8.038  0.0873 -0.2361  0.2050
 1557BOLB   C3C37363  10.530  20.455   8.466  0.1282  0.1994  0.0086
 1557BOLB   C4C37364  10.534  20.204   8.800  0.1834  0.3708  0.1422
 1557BOLB   C1D37365  10.155  21.377   8.184  0.2611  0.0241  0.0941
 1557BOLB   C2D37366  10.261  21.376   8.570 -0.1077 -0.0300 -0.0639
 1557BOLB   C3D37367  10.279  21.489   9.009  0.0783 -0.0606 -0.1765
 1557BOLB   C4D37368  10.042  21.848   9.238  0.1543  0.0558 -0.0418
 1558BOLB   NC137369  21.812  11.166  15.558 -0.0785  0.2218 -0.0518
 1558BOLB   PO137370  21.594  10.660  15.565  0.2336 -0.0641  0.1647
 1558BOLB   GL137371  21.696  10.249  15.644  0.3936  0.0062  0.1129
 1558BOLB   GL237372  21.607  10.130  15.909  0.1587 -0.0415  0.1571
 1558BOLB   C1A37373  21.900  10.008  15.490  0.0985 -0.0345  0.0943
 1558BOLB   C2A37374  22.061   9.701  15.665 -0.0893  0.1050  0.1423
 1558BOLB   C3A37375  22.257   9.412  15.470  0.3848  0.2376 -0.0859
 1558BOLB   C4A37376  22.543   9.122  15.190 -0.1769 -0.2841 -0.1828
 1558BOLB   C1B37377  21.728   9.757  16.011  0.0170 -0.0541 -0.0636
 1558BOLB   C2B37378  21.910   9.366  16.056  0.1087  0.2161 -0.0422
 1558BOLB   C3B37379  22.156   8.936  16.179  0.2145  0.2752  0.2501
 1558BOLB   C4B37380  22.662   8.941  16.139 -0.0949  0.1422 -0.0468
 1558BOLB   NC237381  25.041   8.251  14.534 -0.0781 -0.3876 -0.0959
 1558BOLB   PO237382  24.616   8.168  14.457 -0.1114  0.2240  0.0771
 1558BOLB   GL337383  24.341   8.498  14.572 -0.1592 -0.1067 -0.1005
 1558BOLB   GL437384  24.021   8.407  14.451  0.0649 -0.0278 -0.0312
 1558BOLB   C1C37385  23.958   8.713  14.809  0.0190 -0.1512 -0.2092
 1558BOLB   C2C37386  23.545   8.609  14.822 -0.1007 -0.2799  0.1228
 1558BOLB   C3C37387  23.199   8.840  15.100 -0.1265  0.0497 -0.1395
 1558BOLB   C4C37388  22.802   8.841  15.199  0.0476  0.1485 -0.0504
 1558BOLB   C1D37389  23.957   8.828  14.337 -0.3457 -0.0741 -0.1952
 1558BOLB   C2D37390  24.099   9.117  14.510  0.0360 -0.4291 -0.1158
 1558BOLB   C3D37391  24.182   9.629  14.657  0.0496  0.2767 -0.0272
 1558BOLB   C4D37392  24.209  10.071  14.628 -0.0258  0.2806  0.2744
 1559BOLB   NC137393   9.761  13.394  11.829  0.3817  0.0836  0.0932
 1559BOLB   PO137394   9.697  13.300  11.427  0.3665 -0.0212 -0.2468
 1559BOLB   GL137395   9.397  13.260  11.236 -0.0541  0.0039  0.0100
 1559BOLB   GL237396   9.399  13.396  10.957  0.4088  0.0350 -0.2021
 1559BOLB   C1A37397   8.931  13.375  11.213  0.1171 -0.0475 -0.1625
 1559BOLB   C2A37398   8.671  13.141  10.755  0.2094 -0.0852  0.2179
 1559BOLB   C3A37399   8.720  12.986  10.304 -0.0826  0.0766  0.2415
 1559BOLB   C4A37400   8.566  13.220   9.892  0.1075  0.1078  0.3275
 1559BOLB   C1B37401   9.148  13.427  10.651  0.1916 -0.0521  0.3431
 1559BOLB   C2B37402   8.651  13.498  10.396  0.1066  0.3956 -0.1399
 1559BOLB   C3B37403   8.522  13.696  10.078  0.2411  0.1871  0.1388
 1559BOLB   C4B37404   8.496  13.662   9.690  0.0908 -0.1404  0.2324
 1559BOLB   NC237405   7.954  13.710   7.486  0.1276 -0.3233 -0.3297
 1559BOLB   PO237406   8.261  13.395   7.546 -0.2409 -0.1043  0.0750
 1559BOLB   GL337407   8.404  13.504   7.951 -0.0695 -0.1154 -0.1474
 1559BOLB   GL437408   8.519  13.804   7.998  0.3187 -0.0906  0.0641
 1559BOLB   C1C37409   8.694  13.588   8.361 -0.1735 -0.0874  0.2000
 1559BOLB   C2C37410   8.766  13.574   8.788  0.0214  0.1207 -0.2377
 1559BOLB   C3C37411   8.642  13.463   9.172 -0.1768  0.0135 -0.1252
 1559BOLB   C4C37412   8.466  13.283   9.421 -0.0706  0.0851  0.0536
 1559BOLB   C1D37413   8.209  14.027   8.351 -0.3009  0.0608 -0.1952
 1559BOLB   C2D37414   8.068  14.092   8.773  0.2973 -0.0316  0.2947
 1559BOLB   C3D37415   7.768  13.963   9.073  0.1152 -0.2648  0.1317
 1559BOLB   C4D37416   7.674  14.146   9.470 -0.0747  0.0613  0.0170
 1560BOLB   NC137417  10.056  18.071  11.603 -0.1649  0.1148 -0.0744
 1560BOLB   PO137418  10.038  17.765  11.295  0.1140 -0.1100  0.1522
 1560BOLB   GL137419   9.609  17.951  11.199 -0.0644 -0.0926 -0.0892
 1560BOLB   GL237420   9.488  18.305  11.061 -0.1563  0.1319 -0.1401
 1560BOLB   C1A37421   9.309  17.799  10.927 -0.1771  0.0364  0.1435
 1560BOLB   C2A37422   8.996  17.718  10.610 -0.1208 -0.0512 -0.0164
 1560BOLB   C3A37423   8.851  17.604  10.233  0.1870 -0.3527 -0.1231
 1560BOLB   C4A37424   8.775  17.622   9.710 -0.1656 -0.2078 -0.5280
 1560BOLB   C1B37425   9.460  18.640  10.773 -0.0001 -0.1349  0.0233
 1560BOLB   C2B37426   9.036  18.697  10.587 -0.3686 -0.0473 -0.0104
 1560BOLB   C3B37427   8.700  18.934  10.290  0.0523  0.1990  0.3164
 1560BOLB   C4B37428   8.420  18.848   9.929  0.1636 -0.0424 -0.3502
 1560BOLB   NC237429   7.556  17.754   7.734 -0.4754 -0.1723  0.0891
 1560BOLB   PO237430   7.881  18.101   7.847 -0.1104 -0.0085 -0.2913
 1560BOLB   GL337431   7.927  18.000   8.239  0.0995 -0.3571  0.2250
 1560BOLB   GL437432   8.010  18.333   8.320 -0.1925  0.3918  0.1841
 1560BOLB   C1C37433   8.085  17.683   8.552 -0.0308  0.0467 -0.2101
 1560BOLB   C2C37434   8.258  17.291   8.682 -0.0720  0.0521  0.1373
 1560BOLB   C3C37435   8.512  17.290   9.035 -0.0816 -0.0210 -0.1434
 1560BOLB   C4C37436   8.556  17.477   9.330 -0.3279 -0.1652 -0.0502
 1560BOLB   C1D37437   8.132  18.560   8.625  0.0642  0.2294 -0.2480
 1560BOLB   C2D37438   8.089  18.939   8.803  0.1035  0.0316  0.1383
 1560BOLB   C3D37439   8.140  18.923   9.246 -0.0531  0.0937  0.0935
 1560BOLB   C4D37440   8.493  18.928   9.469 -0.4207 -0.0543  0.1938
 1561BOLB   NC137441  16.483  18.690  10.161 -0.0370  0.2159 -0.2632
 1561BOLB   PO137442  16.147  19.025  10.238 -0.1257  0.1572 -0.1454
 1561BOLB   GL137443  16.054  19.260   9.961 -0.1844 -0.2538  0.3895
 1561BOLB   GL237444  15.762  19.415   9.973  0.0499  0.0123  0.3293
 1561BOLB   C1A37445  16.062  19.477   9.501 -0.2144  0.1382  0.0556
 1561BOLB   C2A37446  15.731  19.542   9.190  0.2407 -0.1647  0.0226
 1561BOLB   C3A37447  15.691  19.975   9.053  0.2298 -0.0450  0.0039
 1561BOLB   C4A37448  15.769  20.299   8.671 -0.3190 -0.0127  0.0725
 1561BOLB   C1B37449  15.711  19.699   9.713 -0.0565 -0.4430  0.1261
 1561BOLB   C2B37450  15.969  19.977   9.432  0.2260 -0.2210 -0.1494
 1561BOLB   C3B37451  16.183  19.847   9.104  0.1596 -0.3296  0.0904
 1561BOLB   C4B37452  16.607  19.997   8.926  0.0960  0.0037  0.0004
 1561BOLB   NC237453  15.873  20.874   7.001  0.0252 -0.1792  0.4022
 1561BOLB   PO237454  16.231  21.234   6.937 -0.1212  0.1534 -0.2303
 1561BOLB   GL337455  16.204  21.272   7.317  0.2847 -0.1947  0.0650
 1561BOLB   GL437456  15.860  21.279   7.321  0.2961 -0.0925 -0.2196
 1561BOLB   C1C37457  16.265  21.336   7.744  0.2248 -0.0768 -0.1074
 1561BOLB   C2C37458  16.272  21.137   8.171  0.0963 -0.2665 -0.2109
 1561BOLB   C3C37459  15.892  20.946   8.269 -0.0416  0.0740 -0.1711
 1561BOLB   C4C37460  15.568  20.590   8.385 -0.1366 -0.0518 -0.0195
 1561BOLB   C1D37461  15.812  21.017   7.646  0.3900  0.1747  0.2402
 1561BOLB   C2D37462  15.735  20.587   7.796 -0.1151  0.0124  0.2281
 1561BOLB   C3D37463  15.347  20.416   7.867  0.0031 -0.2026 -0.0663
 1561BOLB   C4D37464  15.012  20.516   8.136  0.2605 -0.1843  0.0886
 1562BOLB   NC137465  21.036  11.441  13.921 -0.4533 -0.0832 -0.0667
 1562BOLB   PO137466  21.414  11.685  14.178 -0.1024 -0.0281  0.2389
 1562BOLB   GL137467  21.480  11.417  13.765 -0.0418 -0.0630 -0.0847
 1562BOLB   GL237468  21.208  11.358  13.470  0.1505  0.2951  0.1044
 1562BOLB   C1A37469  21.734  11.436  13.420  0.0621  0.3444  0.4012
 1562BOLB   C2A37470  21.673  11.214  12.929 -0.0463 -0.1656 -0.0423
 1562BOLB   C3A37471  21.569  11.070  12.618  0.1953 -0.0515  0.1295
 1562BOLB   C4A37472  21.545  10.989  12.263  0.0504 -0.3191  0.0481
 1562BOLB   C1B37473  21.444  11.071  13.334 -0.1097 -0.2463  0.0017
 1562BOLB   C2B37474  21.686  10.741  12.990 -0.2766  0.1933 -0.0065
 1562BOLB   C3B37475  22.005  10.468  12.912 -0.4036  0.0273  0.2011
 1562BOLB   C4B37476  22.173  10.057  12.798  0.0314  0.1083 -0.0711
 1562BOLB   NC237477  23.002   9.968  10.465  0.2091 -0.1278 -0.0562
 1562BOLB   PO237478  23.094   9.738  10.902  0.1909 -0.2864  0.1741
 1562BOLB   GL337479  22.959   9.905  11.262  0.0805 -0.1756 -0.1223
 1562BOLB   GL437480  23.118   9.923  11.482  0.1579 -0.1534 -0.0156
 1562BOLB   C1C37481  22.557  10.124  11.424 -0.1363 -0.3421  0.0889
 1562BOLB   C2C37482  22.327  10.243  11.686 -0.4708  0.3969  0.0029
 1562BOLB   C3C37483  22.064  10.379  11.855 -0.2279  0.0063  0.0224
 1562BOLB   C4C37484  21.775  10.731  11.998  0.3156 -0.2019  0.1803
 1562BOLB   C1D37485  22.866  10.233  11.856  0.0639 -0.3602  0.2101
 1562BOLB   C2D37486  22.581  10.408  12.223 -0.0073 -0.0830 -0.0463
 1562BOLB   C3D37487  22.286  10.653  12.212  0.2296  0.2409 -0.2252
 1562BOLB   C4D37488  22.191  10.904  11.820  0.0136  0.0437 -0.2968
 1563BOLB   NC137489  15.994  17.541   9.897  0.3216 -0.2066 -0.2287
 1563BOLB   PO137490  15.650  17.210   9.975 -0.1353 -0.0153  0.1883
 1563BOLB   GL137491  15.547  17.168   9.445 -0.2103  0.0005  0.1471
 1563BOLB   GL237492  15.831  17.141   9.348 -0.2208  0.1001  0.1107
 1563BOLB   C1A37493  15.544  17.253   8.998  0.0011 -0.3328  0.3416
 1563BOLB   C2A37494  15.358  17.360   8.710 -0.2007  0.1283 -0.0094
 1563BOLB   C3A37495  15.322  17.621   8.262 -0.0292 -0.1219  0.1410
 1563BOLB   C4A37496  15.163  17.806   7.851 -0.1434  0.0569 -0.0327
 1563BOLB   C1B37497  16.154  17.102   8.972 -0.2241  0.1112  0.1933
 1563BOLB   C2B37498  16.326  17.129   8.530  0.0378  0.0774  0.0012
 1563BOLB   C3B37499  16.358  17.243   8.185 -0.1282 -0.1097 -0.2213
 1563BOLB   C4B37500  15.954  17.364   7.907  0.0663 -0.0604 -0.1898
 1563BOLB   NC237501  13.885  18.497   5.570 -0.3719 -0.6376  0.2426
 1563BOLB   PO237502  14.223  18.377   5.986  0.2464  0.0710  0.2965
 1563BOLB   GL337503  14.603  18.370   6.232  0.1311 -0.0847  0.2386
 1563BOLB   GL437504  14.707  18.005   6.301 -0.2029 -0.1666 -0.1899
 1563BOLB   C1C37505  14.537  18.569   6.615 -0.2652  0.4289 -0.3485
 1563BOLB   C2C37506  14.760  18.437   6.957 -0.3159 -0.3181  0.1888
 1563BOLB   C3C37507  14.553  18.264   7.346  0.0358 -0.1807  0.0019
 1563BOLB   C4C37508  14.829  18.169   7.619 -0.0213 -0.0939  0.2794
 1563BOLB   C1D37509  14.667  17.858   6.764 -0.0639  0.0097 -0.1958
 1563BOLB   C2D37510  14.677  17.786   7.187 -0.0024 -0.0755  0.1681
 1563BOLB   C3D37511  14.974  17.745   7.381 -0.4707 -0.0250 -0.0890
 1563BOLB   C4D37512  15.291  17.688   7.205  0.0070  0.1834  0.0864
 1564BOLB   NC137513  14.027   9.752  11.850 -0.1011  0.0059 -0.0111
 1564BOLB   PO137514  14.216   9.634  12.194 -0.0883  0.0737  0.3322
 1564BOLB   GL137515  14.415   9.142  12.173  0.1077 -0.0564 -0.2078
 1564BOLB   GL237516  14.158   8.855  12.279  0.0214  0.0619 -0.1290
 1564BOLB   C1A37517  14.674   8.942  11.785 -0.2957 -0.0986 -0.0486
 1564BOLB   C2A37518  14.818   8.939  11.429 -0.1503  0.2605  0.1026
 1564BOLB   C3A37519  15.172   8.811  11.189  0.0441  0.1513 -0.0546
 1564BOLB   C4A37520  15.363   8.610  10.843 -0.5094  0.3437 -0.2370
 1564BOLB   C1B37521  14.254   8.535  11.853  0.4831  0.0108  0.1310
 1564BOLB   C2B37522  14.646   8.417  11.648  0.1270  0.1881 -0.0903
 1564BOLB   C3B37523  14.926   8.338  11.277 -0.0894 -0.1410 -0.1118
 1564BOLB   C4B37524  15.152   8.168  10.831  0.1888  0.1158  0.4083
 1564BOLB   NC237525  15.602   7.103   8.906 -0.0960 -0.1122 -0.2084
 1564BOLB   PO237526  15.323   7.439   8.835  0.2226 -0.0091  0.1864
 1564BOLB   GL337527  15.259   7.842   9.087  0.1863  0.1545 -0.0556
 1564BOLB   GL437528  15.002   7.997   9.188  0.1564  0.0327  0.0553
 1564BOLB   C1C37529  15.551   8.138   9.380  0.1306 -0.4435  0.2521
 1564BOLB   C2C37530  15.795   8.245   9.702  0.1883 -0.0355 -0.0341
 1564BOLB   C3C37531  15.493   8.208  10.024  0.0462  0.4235 -0.0574
 1564BOLB   C4C37532  15.471   8.473  10.427 -0.2001  0.1653 -0.0397
 1564BOLB   C1D37533  15.088   8.042   9.634 -0.0016  0.0955 -0.2939
 1564BOLB   C2D37534  14.987   8.173  10.065  0.0589  0.2424 -0.2172
 1564BOLB   C3D37535  14.853   8.372  10.397  0.3487  0.0300 -0.1632
 1564BOLB   C4D37536  14.849   8.579  10.820 -0.1635 -0.3319  0.3164
 1565BOLB   NC137537  16.304  20.709  11.104 -0.0624  0.4186 -0.4852
 1565BOLB   PO137538  16.545  20.532  10.766  0.3030  0.1625  0.1044
 1565BOLB   GL137539  16.429  20.746  10.446 -0.5361  0.0086 -0.0560
 1565BOLB   GL237540  16.594  21.020  10.392  0.1959  0.0312  0.2946
 1565BOLB   C1A37541  16.429  20.633   9.950 -0.1790  0.2770  0.0493
 1565BOLB   C2A37542  16.606  20.791   9.540  0.1849  0.1942  0.0215
 1565BOLB   C3A37543  16.971  20.896   9.253  0.0652 -0.0976  0.0800
 1565BOLB   C4A37544  17.266  21.118   9.118 -0.0782 -0.0535  0.1005
 1565BOLB   C1B37545  16.478  21.104  10.119 -0.1029 -0.1763 -0.0256
 1565BOLB   C2B37546  16.486  21.441   9.960  0.3034  0.0357 -0.4963
 1565BOLB   C3B37547  16.561  21.638   9.652  0.0413 -0.0343 -0.3326
 1565BOLB   C4B37548  16.509  21.918   9.440 -0.2433 -0.0722  0.2821
 1565BOLB   NC237549  17.537  21.025   6.622  0.4325 -0.0677  0.0190
 1565BOLB   PO237550  17.642  21.292   6.841 -0.4473 -0.0495  0.1376
 1565BOLB   GL337551  17.487  21.226   7.269  0.2286 -0.0484 -0.2956
 1565BOLB   GL437552  17.129  21.317   7.213 -0.1748 -0.0787  0.0438
 1565BOLB   C1C37553  17.664  21.108   7.680 -0.0647  0.0558 -0.2159
 1565BOLB   C2C37554  17.709  20.988   8.058 -0.1958  0.3544 -0.1517
 1565BOLB   C3C37555  17.686  20.979   8.427 -0.3021  0.1343  0.0175
 1565BOLB   C4C37556  17.655  21.039   8.888 -0.1384  0.1235 -0.2984
 1565BOLB   C1D37557  17.087  21.094   7.519  0.2100 -0.4271 -0.0581
 1565BOLB   C2D37558  17.189  20.996   7.920  0.0167 -0.1925 -0.1017
 1565BOLB   C3D37559  17.128  20.911   8.395 -0.1701 -0.4084 -0.0767
 1565BOLB   C4D37560  17.049  20.842   8.775 -0.0784  0.0852 -0.0463
 1566BOLB   NC137561  16.196  23.754  13.355 -0.2680 -0.0075 -0.3149
 1566BOLB   PO137562  16.697  23.819  13.180 -0.0138  0.0126 -0.0801
 1566BOLB   GL137563  16.435  24.146  13.142  0.0335  0.0232 -0.1579
 1566BOLB   GL237564  16.585  24.366  13.241  0.3250  0.0559 -0.0792
 1566BOLB   C1A37565  16.324  24.378  12.770  0.0527  0.2212  0.2358
 1566BOLB   C2A37566  16.344  24.663  12.409 -0.0451  0.1472  0.0389
 1566BOLB   C3A37567  16.344  25.031  12.265  0.2227  0.0575  0.0177
 1566BOLB   C4A37568  16.392  25.315  11.961 -0.0296  0.4319 -0.0218
 1566BOLB   C1B37569  16.708  24.817  13.111 -0.2054 -0.0373 -0.1987
 1566BOLB   C2B37570  16.655  25.081  12.731 -0.1295  0.0786 -0.1399
 1566BOLB   C3B37571  16.628  25.476  12.499  0.1202  0.1034  0.0709
 1566BOLB   C4B37572  16.670  25.894  12.411 -0.0856 -0.0119  0.2360
 1566BOLB   NC237573  17.244  26.859  11.003 -0.4238  0.2379  0.1821
 1566BOLB   PO237574  17.530  26.782  10.752 -0.1012 -0.0698  0.2101
 1566BOLB   GL337575  17.610  26.494  11.061  0.1474  0.2196  0.2572
 1566BOLB   GL437576  17.616  26.779  11.353  0.0272  0.0112  0.1059
 1566BOLB   C1C37577  17.427  26.215  11.385 -0.1839 -0.0109  0.0790
 1566BOLB   C2C37578  17.142  26.179  11.705  0.1242 -0.2982 -0.1601
 1566BOLB   C3C37579  16.722  25.998  11.804 -0.0312  0.2907 -0.2763
 1566BOLB   C4C37580  16.508  25.651  11.946 -0.2081 -0.4124 -0.2681
 1566BOLB   C1D37581  17.430  26.732  11.656  0.3876  0.3135 -0.2123
 1566BOLB   C2D37582  17.393  26.628  12.057  0.1918  0.1256 -0.0916
 1566BOLB   C3D37583  17.593  26.330  12.328  0.2220  0.2075  0.0149
 1566BOLB   C4D37584  17.901  26.077  12.442  0.2444 -0.8801 -0.1712
 1567BOLB   NC137585  17.864  14.652  10.227 -0.2956  0.1233  0.0906
 1567BOLB   PO137586  17.412  14.616  10.286  0.2013  0.0802 -0.1651
 1567BOLB   GL137587  17.406  14.345   9.996 -0.2258  0.0933 -0.1619
 1567BOLB   GL237588  17.583  13.949   9.898  0.1351  0.1224 -0.2958
 1567BOLB   C1A37589  17.573  14.337   9.628 -0.1724  0.1965  0.5055
 1567BOLB   C2A37590  17.682  13.927   9.327  0.0309  0.0447 -0.2855
 1567BOLB   C3A37591  17.642  13.810   8.894 -0.0907 -0.0985  0.1008
 1567BOLB   C4A37592  17.567  13.567   8.533  0.0609  0.1633 -0.3620
 1567BOLB   C1B37593  17.993  13.809   9.742  0.4160  0.2439 -0.1086
 1567BOLB   C2B37594  18.077  13.671   9.319  0.1272  0.0659  0.1204
 1567BOLB   C3B37595  18.069  13.215   9.063 -0.1584  0.0829 -0.1890
 1567BOLB   C4B37596  18.188  12.918   8.809  0.0515  0.0840 -0.1724
 1567BOLB   NC237597  17.922  13.908   6.515 -0.2510  0.1788  0.1856
 1567BOLB   PO237598  17.570  13.971   6.189  0.3362  0.0092  0.0252
 1567BOLB   GL337599  17.371  14.013   6.507 -0.0420 -0.1683  0.3457
 1567BOLB   GL437600  17.177  13.734   6.596 -0.5402  0.2068 -0.2604
 1567BOLB   C1C37601  17.321  14.138   6.925  0.0376 -0.0059 -0.3001
 1567BOLB   C2C37602  17.302  13.954   7.430  0.0725 -0.1984  0.0567
 1567BOLB   C3C37603  17.151  13.680   7.759 -0.1439  0.1589 -0.3109
 1567BOLB   C4C37604  17.248  13.556   8.209  0.3021  0.0155 -0.0134
 1567BOLB   C1D37605  16.928  13.777   6.973 -0.1550  0.1242  0.0506
 1567BOLB   C2D37606  16.732  13.618   7.431 -0.1800  0.0853 -0.0130
 1567BOLB   C3D37607  16.603  13.769   7.904 -0.2085  0.1203 -0.0160
 1567BOLB   C4D37608  16.492  14.094   8.072  0.0065 -0.0052 -0.0895
 1568BOLB   NC137609  11.553  18.792  10.872 -0.1556  0.3425  0.2293
 1568BOLB   PO137610  11.353  18.711  10.504 -0.0936 -0.0914  0.2239
 1568BOLB   GL137611  11.217  18.661  10.054  0.2347  0.1557  0.2142
 1568BOLB   GL237612  10.816  18.615  10.033 -0.0218  0.2639  0.0903
 1568BOLB   C1A37613  11.120  18.946   9.742 -0.1984  0.1840  0.1627
 1568BOLB   C2A37614  10.800  18.733   9.440 -0.2636 -0.0481  0.0459
 1568BOLB   C3A37615  10.330  18.637   9.322 -0.3348  0.1497 -0.1697
 1568BOLB   C4A37616  10.166  18.902   8.962  0.2423  0.1096 -0.3601
 1568BOLB   C1B37617  10.404  18.775   9.862  0.1906 -0.3412  0.0663
 1568BOLB   C2B37618  10.077  19.049   9.680  0.0690 -0.0919  0.1082
 1568BOLB   C3B37619   9.867  19.300   9.419  0.1214 -0.2163  0.1180
 1568BOLB   C4B37620  10.190  19.443   9.026  0.0309 -0.0533 -0.2939
 1568BOLB   NC237621   8.826  18.238   7.068 -0.5413 -0.2989  0.0590
 1568BOLB   PO237622   9.058  18.310   7.442 -0.0130 -0.3227 -0.3447
 1568BOLB   GL337623   9.106  18.513   7.838  0.2770  0.1646 -0.1697
 1568BOLB   GL437624   9.306  18.741   7.702 -0.0058  0.2412 -0.0259
 1568BOLB   C1C37625   9.060  18.523   8.190 -0.1900  0.0515  0.4405
 1568BOLB   C2C37626   9.354  18.783   8.452  0.0947 -0.0418 -0.0691
 1568BOLB   C3C37627   9.639  19.138   8.501 -0.0254 -0.0453 -0.2345
 1568BOLB   C4C37628  10.016  19.164   8.650  0.1281  0.0448 -0.1060
 1568BOLB   C1D37629   9.691  18.758   8.019 -0.0792 -0.0483  0.0661
 1568BOLB   C2D37630   9.882  18.670   8.466  0.2194  0.0802  0.1156
 1568BOLB   C3D37631   9.779  18.494   8.834  0.0836 -0.1640 -0.0738
 1568BOLB   C4D37632   9.353  18.675   9.041  0.0304 -0.3237  0.4004
 1569BOLB   NC137633   9.366  17.747  12.015  0.0107  0.4022 -0.1214
 1569BOLB   PO137634   9.256  17.853  11.566  0.0062 -0.2030  0.4245
 1569BOLB   GL137635   9.107  18.078  11.272  0.0411  0.3413  0.0172
 1569BOLB   GL237636   8.758  18.144  11.195  0.2081 -0.1114 -0.0854
 1569BOLB   C1A37637   9.028  18.206  10.847 -0.1390  0.0672 -0.2372
 1569BOLB   C2A37638   8.660  18.271  10.620  0.1731 -0.2362 -0.1601
 1569BOLB   C3A37639   8.369  18.516  10.355  0.0731 -0.2351  0.3261
 1569BOLB   C4A37640   8.130  18.387  10.045 -0.1935 -0.2329 -0.0589
 1569BOLB   C1B37641   8.385  18.161  11.094 -0.1635  0.0780  0.0326
 1569BOLB   C2B37642   8.066  18.276  10.778 -0.0076  0.0802 -0.0793
 1569BOLB   C3B37643   7.749  18.547  10.436 -0.0281  0.1568  0.0905
 1569BOLB   C4B37644   7.605  18.620  10.070  0.0806 -0.2373  0.1982
 1569BOLB   NC237645   7.085  18.025   7.914 -0.1033  0.1373  0.2118
 1569BOLB   PO237646   7.405  17.921   8.179  0.2617  0.0639  0.0965
 1569BOLB   GL337647   7.370  17.671   8.476  0.3541 -0.0737  0.2229
 1569BOLB   GL437648   7.152  17.855   8.767 -0.0679  0.0194  0.0602
 1569BOLB   C1C37649   7.636  17.748   8.763 -0.1391 -0.3422  0.0211
 1569BOLB   C2C37650   7.956  18.092   8.832  0.1542  0.1969  0.1333
 1569BOLB   C3C37651   8.052  18.442   9.146 -0.3149 -0.1016 -0.1293
 1569BOLB   C4C37652   8.166  18.381   9.532 -0.0517 -0.1600 -0.0024
 1569BOLB   C1D37653   7.310  17.837   9.180  0.0472 -0.0171  0.0708
 1569BOLB   C2D37654   7.756  17.936   9.344 -0.0730  0.0812 -0.0366
 1569BOLB   C3D37655   8.298  17.985   9.293 -0.0408 -0.0083  0.2437
 1569BOLB   C4D37656   8.488  18.226   9.074  0.4950  0.1927  0.0202
 1570BOLB   NC137657  12.735  22.973  12.588 -0.1337  0.0333 -0.1378
 1570BOLB   PO137658  12.835  23.381  12.338  0.1379 -0.3231 -0.0195
 1570BOLB   GL137659  12.814  23.519  11.943  0.2140  0.3297 -0.0046
 1570BOLB   GL237660  12.445  23.477  11.758  0.1152  0.2608  0.3449
 1570BOLB   C1A37661  12.939  23.880  11.699 -0.0307 -0.3311 -0.2182
 1570BOLB   C2A37662  12.989  23.867  11.125 -0.1757 -0.1684  0.0062
 1570BOLB   C3A37663  12.848  23.899  10.730  0.0018 -0.1475 -0.2641
 1570BOLB   C4A37664  12.770  24.117  10.186  0.1573 -0.0527  0.2097
 1570BOLB   C1B37665  12.408  23.684  11.406  0.2728  0.0421  0.0093
 1570BOLB   C2B37666  12.418  23.962  11.107 -0.0028  0.0927 -0.0330
 1570BOLB   C3B37667  12.363  23.878  10.598 -0.0289  0.0151  0.2630
 1570BOLB   C4B37668  12.359  23.879  10.239 -0.1058  0.0155 -0.3848
 1570BOLB   NC237669  12.102  24.068   8.252  0.1849 -0.1888 -0.0396
 1570BOLB   PO237670  11.834  24.302   8.199  0.1025 -0.0814  0.1359
 1570BOLB   GL337671  12.017  24.494   8.539  0.0713  0.0898 -0.1798
 1570BOLB   GL437672  11.808  24.259   8.727  0.3177 -0.3169 -0.1914
 1570BOLB   C1C37673  12.273  24.426   8.892  0.3279 -0.0783 -0.1688
 1570BOLB   C2C37674  12.481  24.527   9.198  0.3708 -0.0375 -0.1472
 1570BOLB   C3C37675  12.566  24.276   9.435  0.0240 -0.0812  0.1105
 1570BOLB   C4C37676  12.750  24.267   9.766 -0.2981 -0.1540  0.0368
 1570BOLB   C1D37677  12.007  23.925   8.890 -0.0056 -0.3846  0.1129
 1570BOLB   C2D37678  11.945  23.547   8.917 -0.1966 -0.0309  0.0072
 1570BOLB   C3D37679  11.991  23.291   9.325 -0.0383  0.0080  0.1835
 1570BOLB   C4D37680  12.253  22.954   9.482  0.1091 -0.1804  0.2125
 1571BOLB   NC137681  21.644  18.227  11.581 -0.1156 -0.2127 -0.1267
 1571BOLB   PO137682  21.723  17.766  11.668 -0.2608 -0.1524 -0.5629
 1571BOLB   GL137683  22.116  17.675  11.312  0.1615 -0.1002 -0.1375
 1571BOLB   GL237684  22.057  17.418  11.292  0.1330 -0.1142 -0.0387
 1571BOLB   C1A37685  22.367  17.654  10.941 -0.0423  0.1864  0.2677
 1571BOLB   C2A37686  22.417  17.765  10.506 -0.2045  0.2740  0.0283
 1571BOLB   C3A37687  22.594  17.859  10.137  0.0214  0.1226 -0.1560
 1571BOLB   C4A37688  22.464  18.057   9.793  0.1570 -0.2591 -0.1242
 1571BOLB   C1B37689  22.572  17.333  11.236  0.2344  0.0537  0.1812
 1571BOLB   C2B37690  22.831  17.137  10.868 -0.3516  0.0494  0.0155
 1571BOLB   C3B37691  22.951  17.200  10.421 -0.1214  0.1079  0.3423
 1571BOLB   C4B37692  23.155  17.520  10.038  0.0002 -0.4671 -0.1988
 1571BOLB   NC237693  22.271  17.395   7.535  0.0049 -0.1573 -0.0541
 1571BOLB   PO237694  22.566  17.751   7.500  0.1405  0.0625  0.0778
 1571BOLB   GL337695  22.601  17.718   7.916 -0.1546 -0.0993  0.0839
 1571BOLB   GL437696  22.459  17.451   7.984  0.0180 -0.1839  0.2550
 1571BOLB   C1C37697  22.664  18.015   8.327 -0.1727  0.0253  0.1897
 1571BOLB   C2C37698  22.505  18.129   8.604  0.0328  0.0940 -0.1527
 1571BOLB   C3C37699  22.571  18.156   9.096 -0.2463  0.0222 -0.1991
 1571BOLB   C4C37700  22.265  18.198   9.464 -0.1634 -0.1612 -0.0190
 1571BOLB   C1D37701  22.362  17.646   8.348 -0.3101 -0.0411 -0.0373
 1571BOLB   C2D37702  22.028  17.832   8.524 -0.2121 -0.2863 -0.0740
 1571BOLB   C3D37703  21.770  17.747   8.868  0.2243 -0.0805 -0.0915
 1571BOLB   C4D37704  21.941  17.716   9.242  0.2557 -0.3011 -0.0281
 1572BOLB   NC137705   9.762  26.790  12.477  0.0272  0.2986  0.1832
 1572BOLB   PO137706   9.919  26.474  12.626  0.2288 -0.1078 -0.2229
 1572BOLB   GL137707   9.991  26.143  12.532 -0.3476 -0.0919 -0.1468
 1572BOLB   GL237708  10.108  26.027  12.763  0.1191 -0.4806 -0.0812
 1572BOLB   C1A37709   9.966  25.889  12.159 -0.2943 -0.0423 -0.0159
 1572BOLB   C2A37710   9.962  25.547  11.968 -0.2162 -0.0863  0.1950
 1572BOLB   C3A37711  10.057  25.304  11.520 -0.1284 -0.0203  0.0496
 1572BOLB   C4A37712  10.112  25.382  11.039 -0.2514 -0.0785 -0.1224
 1572BOLB   C1B37713  10.507  26.252  12.736  0.1053  0.0075 -0.3219
 1572BOLB   C2B37714  10.855  26.504  12.569  0.3429 -0.0930 -0.1697
 1572BOLB   C3B37715  11.244  26.795  12.401  0.1109  0.0881  0.1647
 1572BOLB   C4B37716  11.416  27.123  12.120  0.0188  0.0411 -0.1263
 1572BOLB   NC237717   9.178  24.815   8.782 -0.1977 -0.3765  0.1745
 1572BOLB   PO237718   8.991  25.082   9.085  0.0712  0.1015  0.4732
 1572BOLB   GL337719   9.021  25.242   9.457 -0.0109  0.0487 -0.1654
 1572BOLB   GL437720   8.848  25.400   9.629 -0.1162  0.3621 -0.1490
 1572BOLB   C1C37721   9.404  25.115   9.694 -0.3315 -0.1097 -0.2344
 1572BOLB   C2C37722   9.885  24.950   9.831  0.1489  0.5237 -0.2304
 1572BOLB   C3C37723  10.202  25.008  10.158 -0.2059  0.3187 -0.2871
 1572BOLB   C4C37724  10.080  25.175  10.566  0.0600 -0.0607  0.2072
 1572BOLB   C1D37725   8.642  25.194   9.925 -0.1042  0.0920 -0.1754
 1572BOLB   C2D37726   8.616  24.976  10.336  0.3804  0.2403 -0.0258
 1572BOLB   C3D37727   8.478  25.064  10.854  0.3936  0.0844 -0.1747
 1572BOLB   C4D37728   8.393  24.784  11.212 -0.0530  0.0928 -0.2273
 1573BOLB   NC137729  12.508  13.885  10.576 -0.2714  0.2109 -0.2800
 1573BOLB   PO137730  12.603  14.154  10.183 -0.0018  0.0040  0.2891
 1573BOLB   GL137731  12.677  14.098   9.755  0.1550  0.0094 -0.3725
 1573BOLB   GL237732  12.355  14.059   9.582 -0.2866 -0.1056 -0.2029
 1573BOLB   C1A37733  12.817  14.186   9.379 -0.0079 -0.0948 -0.0495
 1573BOLB   C2A37734  12.962  14.212   8.923 -0.1233  0.0525  0.2772
 1573BOLB   C3A37735  13.415  14.403   8.802  0.3029  0.3017  0.0325
 1573BOLB   C4A37736  13.483  14.648   8.469  0.3953  0.2211  0.0557
 1573BOLB   C1B37737  12.448  14.008   9.146 -0.2271 -0.1494 -0.1321
 1573BOLB   C2B37738  12.544  13.900   8.719  0.0427  0.0308  0.4695
 1573BOLB   C3B37739  12.904  13.695   8.357 -0.0550 -0.2758 -0.0327
 1573BOLB   C4B37740  13.331  13.576   8.300 -0.0312 -0.3505 -0.0284
 1573BOLB   NC237741  13.650  14.878   5.572  0.2704  0.1591  0.0586
 1573BOLB   PO237742  13.694  15.115   5.995 -0.1652 -0.1209 -0.3838
 1573BOLB   GL337743  13.520  15.007   6.352 -0.1400 -0.0792 -0.3793
 1573BOLB   GL437744  13.187  15.143   6.415  0.2192  0.2086 -0.1391
 1573BOLB   C1C37745  13.783  14.947   6.695 -0.0173  0.3263  0.0294
 1573BOLB   C2C37746  13.759  14.917   7.200  0.1354 -0.1430 -0.0126
 1573BOLB   C3C37747  13.774  14.671   7.643 -0.0764  0.4445  0.2104
 1573BOLB   C4C37748  13.569  14.691   7.992  0.0974 -0.1888  0.0341
 1573BOLB   C1D37749  13.342  15.336   6.825 -0.0268 -0.4106 -0.0697
 1573BOLB   C2D37750  13.675  15.463   7.169  0.2052 -0.2375  0.1341
 1573BOLB   C3D37751  13.822  15.496   7.529  0.0804  0.0809 -0.1014
 1573BOLB   C4D37752  13.950  15.117   7.730  0.0168 -0.0168  0.1852
 1574BOLB   NC137753  21.172  20.609  11.737  0.1396  0.3403 -0.0223
 1574BOLB   PO137754  21.630  20.518  11.811 -0.2437  0.0141 -0.0828
 1574BOLB   GL137755  21.727  20.896  11.568 -0.2827  0.0171  0.2505
 1574BOLB   GL237756  21.427  20.995  11.497  0.0191  0.0099 -0.1253
 1574BOLB   C1A37757  22.047  21.089  11.348  0.0130  0.0842  0.1699
 1574BOLB   C2A37758  22.204  21.242  11.013 -0.0475 -0.2157 -0.0685
 1574BOLB   C3A37759  22.309  21.022  10.687 -0.1505 -0.0199 -0.0104
 1574BOLB   C4A37760  22.498  20.636  10.390 -0.2339 -0.1471 -0.2573
 1574BOLB   C1B37761  21.346  21.509  11.339 -0.4762 -0.1541 -0.0524
 1574BOLB   C2B37762  21.272  21.715  10.991 -0.0441 -0.2794 -0.2533
 1574BOLB   C3B37763  21.382  22.140  10.732 -0.3384 -0.0407  0.1464
 1574BOLB   C4B37764  21.241  22.218  10.345  0.2839 -0.2895  0.3661
 1574BOLB   NC237765  24.067  21.720   8.805  0.0961 -0.1508 -0.4842
 1574BOLB   PO237766  23.686  21.747   8.505 -0.0533 -0.2863  0.1654
 1574BOLB   GL337767  23.524  21.490   8.895  0.2510 -0.0625 -0.1692
 1574BOLB   GL437768  23.261  21.535   8.845 -0.0982 -0.0458 -0.1663
 1574BOLB   C1C37769  23.507  21.107   9.215 -0.0829  0.1690  0.2046
 1574BOLB   C2C37770  23.327  20.915   9.561 -0.3274  0.0060 -0.1013
 1574BOLB   C3C37771  23.071  20.889   9.941  0.2148  0.3351 -0.2578
 1574BOLB   C4C37772  22.869  20.616  10.162 -0.2880 -0.2639  0.1930
 1574BOLB   C1D37773  23.116  21.446   9.323 -0.0199 -0.0120 -0.0573
 1574BOLB   C2D37774  22.825  21.332   9.647 -0.1981 -0.6650 -0.0141
 1574BOLB   C3D37775  22.736  21.341  10.031 -0.1164 -0.1724 -0.4169
 1574BOLB   C4D37776  22.502  21.154  10.101 -0.0402  0.0417  0.0180
 1575BOLB   NC137777   9.314  16.500  11.749 -0.0410 -0.2448  0.1014
 1575BOLB   PO137778   9.712  16.353  11.525  0.0196  0.3709  0.4031
 1575BOLB   GL137779   9.404  16.552  11.184 -0.0213 -0.0117  0.3031
 1575BOLB   GL237780   9.096  16.373  11.279 -0.1091 -0.0687  0.1160
 1575BOLB   C1A37781   9.079  16.662  10.822 -0.0292 -0.0477  0.0506
 1575BOLB   C2A37782   8.824  16.584  10.542  0.1112 -0.1859  0.0803
 1575BOLB   C3A37783   8.760  16.268  10.160  0.0437  0.1543 -0.0827
 1575BOLB   C4A37784   8.675  16.192   9.759  0.0001 -0.1529 -0.1099
 1575BOLB   C1B37785   8.791  16.253  10.894 -0.0858  0.0653  0.0840
 1575BOLB   C2B37786   8.464  16.210  10.616 -0.1602  0.0474  0.1828
 1575BOLB   C3B37787   8.258  16.220  10.210 -0.2397 -0.1829 -0.1137
 1575BOLB   C4B37788   8.021  16.132   9.792 -0.1212 -0.0844  0.0878
 1575BOLB   NC237789   6.942  16.301   8.139  0.3974 -0.0777  0.0846
 1575BOLB   PO237790   7.195  16.252   7.805 -0.1136 -0.1924 -0.1699
 1575BOLB   GL337791   7.441  16.199   8.158 -0.1299 -0.0376  0.1514
 1575BOLB   GL437792   7.260  16.090   8.421 -0.2158  0.2540  0.1981
 1575BOLB   C1C37793   7.850  16.150   8.348  0.1022 -0.2073 -0.0710
 1575BOLB   C2C37794   8.079  16.182   8.758  0.2479 -0.2011 -0.2615
 1575BOLB   C3C37795   8.240  16.186   8.996  0.0102  0.2355 -0.0148
 1575BOLB   C4C37796   8.526  16.243   9.364 -0.2252 -0.0653  0.1901
 1575BOLB   C1D37797   7.528  16.171   8.755 -0.1463  0.0694 -0.0129
 1575BOLB   C2D37798   7.694  16.043   8.982  0.1294 -0.1754  0.3580
 1575BOLB   C3D37799   7.938  15.887   9.360 -0.1104  0.4123  0.1721
 1575BOLB   C4D37800   8.272  15.752   9.614 -0.0338  0.2165 -0.3653
 1576BOLB   NC137801  15.003  16.183  10.003 -0.0044 -0.2747 -0.0384
 1576BOLB   PO137802  15.217  16.537   9.894  0.2136 -0.1826 -0.0734
 1576BOLB   GL137803  15.356  16.689   9.467 -0.0546  0.1407 -0.4011
 1576BOLB   GL237804  15.787  16.669   9.420  0.0107 -0.1653  0.1263
 1576BOLB   C1A37805  15.319  16.471   9.044  0.2759  0.0589  0.0011
 1576BOLB   C2A37806  15.217  16.181   8.675  0.0117 -0.0319 -0.3161
 1576BOLB   C3A37807  15.251  16.229   8.259  0.1739 -0.0860  0.0732
 1576BOLB   C4A37808  15.364  16.609   8.018  0.1035 -0.0218 -0.2755
 1576BOLB   C1B37809  15.751  16.736   8.983  0.0726  0.1502 -0.1336
 1576BOLB   C2B37810  15.761  16.961   8.653  0.1273 -0.1991  0.0851
 1576BOLB   C3B37811  15.855  17.314   8.625  0.1137 -0.2306  0.2345
 1576BOLB   C4B37812  15.679  17.740   8.641 -0.2226 -0.1509  0.0064
 1576BOLB   NC237813  15.734  16.843   5.714  0.1619  0.0199 -0.1715
 1576BOLB   PO237814  15.400  17.060   5.594  0.3854 -0.0461 -0.2534
 1576BOLB   GL337815  15.225  16.862   5.974 -0.1501  0.2140  0.2431
 1576BOLB   GL437816  14.973  16.703   6.271  0.2604  0.1048  0.1401
 1576BOLB   C1C37817  15.493  16.886   6.374  0.0601  0.0718  0.1040
 1576BOLB   C2C37818  15.568  16.879   6.883  0.2905 -0.1128 -0.4595
 1576BOLB   C3C37819  15.549  16.791   7.306  0.1535 -0.1033 -0.1522
 1576BOLB   C4C37820  15.451  16.832   7.693 -0.2238  0.3132  0.1254
 1576BOLB   C1D37821  15.055  17.120   6.394  0.2845  0.2365  0.2771
 1576BOLB   C2D37822  15.345  17.425   6.702 -0.0254 -0.0890  0.0543
 1576BOLB   C3D37823  15.167  17.859   6.748 -0.2650 -0.0929  0.2851
 1576BOLB   C4D37824  15.127  18.150   7.112  0.1771 -0.1548  0.1726
 1577BOLB   NC137825  21.749  13.135  12.987  0.0378 -0.0998 -0.4687
 1577BOLB   PO137826  21.467  13.384  12.788  0.5348  0.0260  0.3719
 1577BOLB   GL137827  21.488  13.175  12.408 -0.1680 -0.0453 -0.3881
 1577BOLB   GL237828  21.807  13.051  12.508  0.2339 -0.0054 -0.4142
 1577BOLB   C1A37829  21.552  13.299  11.963 -0.0274 -0.2484  0.0914
 1577BOLB   C2A37830  21.728  13.247  11.695 -0.0790  0.1027  0.0746
 1577BOLB   C3A37831  21.890  13.030  11.336 -0.1000  0.0669  0.0964
 1577BOLB   C4A37832  22.258  12.871  11.048 -0.0742 -0.3211  0.1408
 1577BOLB   C1B37833  21.918  12.890  12.126  0.1096 -0.1297  0.1144
 1577BOLB   C2B37834  22.144  12.761  11.664 -0.1410  0.1993 -0.1197
 1577BOLB   C3B37835  22.243  12.412  11.352 -0.1006  0.1756  0.2691
 1577BOLB   C4B37836  22.336  12.056  11.171 -0.1405  0.0201 -0.0763
 1577BOLB   NC237837  22.393  10.866   9.593 -0.1935 -0.2625  0.1079
 1577BOLB   PO237838  22.791  10.776   9.758  0.1687 -0.1718  0.1307
 1577BOLB   GL337839  22.564  11.075  10.000 -0.2203  0.2502  0.2246
 1577BOLB   GL437840  22.255  11.046  10.081  0.0187 -0.0285 -0.0114
 1577BOLB   C1C37841  22.567  11.413  10.377  0.1359  0.2198 -0.0333
 1577BOLB   C2C37842  22.421  11.750  10.503  0.0127  0.1052 -0.1178
 1577BOLB   C3C37843  22.532  12.142  10.599  0.2014  0.1958 -0.0531
 1577BOLB   C4C37844  22.380  12.458  10.856 -0.1409 -0.2501  0.3464
 1577BOLB   C1D37845  22.122  11.512  10.074 -0.1376  0.1517 -0.0604
 1577BOLB   C2D37846  22.263  11.860   9.985  0.1619 -0.1593 -0.1719
 1577BOLB   C3D37847  22.120  12.265   9.961  0.1045 -0.1018 -0.2091
 1577BOLB   C4D37848  21.970  12.499  10.381  0.0182  0.0889 -0.4403
 1578BOLB   NC137849  10.518   9.488  12.442  0.0435  0.1448 -0.0345
 1578BOLB   PO137850  10.448   9.753  12.013  0.2272  0.0208 -0.0008
 1578BOLB   GL137851  10.395   9.607  11.662  0.2780 -0.3992 -0.0639
 1578BOLB   GL237852  10.161   9.346  11.598 -0.1330  0.2332  0.1852
 1578BOLB   C1A37853  10.469   9.759  11.294  0.0015  0.0057  0.0138
 1578BOLB   C2A37854  10.565   9.555  10.922 -0.1663 -0.2360  0.3023
 1578BOLB   C3A37855  10.594   9.326  10.637  0.1162 -0.1078 -0.1699
 1578BOLB   C4A37856  10.626   9.300  10.175  0.1574  0.4846 -0.1511
 1578BOLB   C1B37857  10.029   9.543  11.285  0.3387 -0.0441  0.2077
 1578BOLB   C2B37858  10.098   9.699  10.911  0.1823  0.0929  0.0169
 1578BOLB   C3B37859  10.180   9.826  10.593 -0.0928 -0.2294 -0.1091
 1578BOLB   C4B37860  10.336   9.757  10.186 -0.0921  0.2807 -0.0209
 1578BOLB   NC237861  11.354   9.021   7.680 -0.0744 -0.2962  0.0057
 1578BOLB   PO237862  10.977   8.594   7.779 -0.1929 -0.0872 -0.0070
 1578BOLB   GL337863  10.920   8.925   8.090 -0.2379 -0.1239 -0.0504
 1578BOLB   GL437864  11.277   8.955   8.145  0.1335 -0.1376 -0.1963
 1578BOLB   C1C37865  10.797   9.091   8.621 -0.0441 -0.0687 -0.2124
 1578BOLB   C2C37866  10.512   9.333   8.869  0.0525  0.1057  0.0077
 1578BOLB   C3C37867  10.391   9.299   9.356 -0.1893 -0.2610 -0.2112
 1578BOLB   C4C37868  10.467   9.425   9.795 -0.3198  0.1021  0.0990
 1578BOLB   C1D37869  11.331   8.883   8.598 -0.0400 -0.1977  0.0326
 1578BOLB   C2D37870  11.133   8.846   9.012 -0.0291 -0.2132 -0.1889
 1578BOLB   C3D37871  10.938   8.845   9.477 -0.2590  0.0112  0.2724
 1578BOLB   C4D37872  10.877   9.127   9.778 -0.0813 -0.3072 -0.0212
 1579BOLB   NC137873  14.965  15.547  10.740 -0.1211 -0.3705  0.1306
 1579BOLB   PO137874  14.856  15.567  10.269  0.0080 -0.3710  0.1256
 1579BOLB   GL137875  14.816  15.557   9.841  0.4577  0.0160  0.2808
 1579BOLB   GL237876  15.043  15.834   9.656 -0.0153  0.1720  0.0689
 1579BOLB   C1A37877  14.851  15.324   9.471  0.1920  0.2411  0.0334
 1579BOLB   C2A37878  14.696  15.391   8.990 -0.0600  0.2813 -0.0502
 1579BOLB   C3A37879  14.882  15.340   8.636  0.1786 -0.2183  0.1565
 1579BOLB   C4A37880  15.152  15.249   8.326  0.0804 -0.0248  0.1116
 1579BOLB   C1B37881  15.205  15.574   9.302 -0.0557  0.2929  0.2645
 1579BOLB   C2B37882  15.379  15.404   8.823 -0.2550  0.1503  0.3100
 1579BOLB   C3B37883  15.705  15.352   8.473 -0.1217 -0.1469  0.2317
 1579BOLB   C4B37884  16.103  15.089   8.305 -0.0138  0.0513  0.2208
 1579BOLB   NC237885  14.925  15.510   5.767  0.1623 -0.2236  0.0133
 1579BOLB   PO237886  14.665  15.716   6.091  0.2741 -0.2122  0.0138
 1579BOLB   GL337887  14.386  15.454   6.362  0.1423 -0.0499 -0.0702
 1579BOLB   GL437888  14.108  15.509   6.407 -0.0347  0.1015 -0.0722
 1579BOLB   C1C37889  14.732  15.259   6.630  0.3872  0.2540  0.1759
 1579BOLB   C2C37890  14.846  15.417   7.083  0.0783  0.3271  0.1093
 1579BOLB   C3C37891  15.232  15.352   7.328  0.1078  0.2382 -0.0764
 1579BOLB   C4C37892  15.155  15.256   7.750  0.3206  0.2336  0.0859
 1579BOLB   C1D37893  13.804  15.853   6.587 -0.1404  0.0457 -0.1689
 1579BOLB   C2D37894  13.882  16.000   7.045  0.0929 -0.0640  0.2974
 1579BOLB   C3D37895  13.711  15.998   7.464 -0.0645  0.2761  0.1599
 1579BOLB   C4D37896  14.160  15.870   7.655  0.1141 -0.1554 -0.2455
 1580BOLB   NC137897  15.693  10.847  12.068  0.6149  0.0618 -0.1856
 1580BOLB   PO137898  16.076  10.962  11.971  0.1651  0.3686  0.1450
 1580BOLB   GL137899  16.290  11.039  11.552 -0.1588 -0.1398  0.0347
 1580BOLB   GL237900  16.416  11.275  11.408  0.1069 -0.0162  0.1286
 1580BOLB   C1A37901  16.302  10.806  11.211  0.0377  0.1325  0.0098
 1580BOLB   C2A37902  16.274  10.400  11.047  0.1846 -0.1914  0.2400
 1580BOLB   C3A37903  16.330  10.039  10.805  0.1576 -0.0003  0.0371
 1580BOLB   C4A37904  16.653   9.933  10.534 -0.1288 -0.1359  0.1821
 1580BOLB   C1B37905  16.497  11.185  11.017  0.0616 -0.5117  0.1570
 1580BOLB   C2B37906  16.413  10.855  10.734 -0.0058  0.1290 -0.0008
 1580BOLB   C3B37907  16.516  10.815  10.306 -0.5851  0.2307  0.1401
 1580BOLB   C4B37908  16.509  10.611   9.931 -0.1631  0.2461  0.0581
 1580BOLB   NC237909  17.266   8.590   8.401 -0.3323 -0.1964 -0.1692
 1580BOLB   PO237910  17.344   8.385   8.828  0.2826 -0.3022  0.3062
 1580BOLB   GL337911  17.302   8.645   9.158  0.0667 -0.1882  0.0152
 1580BOLB   GL437912  17.321   8.455   9.491  0.1606  0.1333  0.0908
 1580BOLB   C1C37913  17.199   9.103   9.249  0.3650 -0.0155 -0.5399
 1580BOLB   C2C37914  17.088   9.248   9.617  0.0746  0.0182 -0.1887
 1580BOLB   C3C37915  17.020   9.457   9.976 -0.0962 -0.6164  0.1478
 1580BOLB   C4C37916  16.826   9.836  10.058 -0.1336 -0.2113  0.1885
 1580BOLB   C1D37917  17.013   8.708   9.548  0.1571  0.3684 -0.2380
 1580BOLB   C2D37918  16.665   8.857   9.740 -0.1949 -0.0799  0.0631
 1580BOLB   C3D37919  16.330   9.025   9.622  0.2720  0.2521  0.1019
 1580BOLB   C4D37920  16.281   9.341   9.376  0.0098  0.2784  0.0726
 1581BOLB   NC137921  16.102  17.126   9.752 -0.0712 -0.1468  0.0320
 1581BOLB   PO137922  16.450  17.271   9.955  0.2658 -0.0708  0.0956
 1581BOLB   GL137923  16.335  17.510   9.543  0.2837  0.0226 -0.2521
 1581BOLB   GL237924  16.442  17.231   9.349 -0.0864  0.1542 -0.4074
 1581BOLB   C1A37925  16.416  17.875   9.317 -0.0901 -0.0763 -0.1616
 1581BOLB   C2A37926  16.483  17.980   8.861  0.0700 -0.4666  0.0985
 1581BOLB   C3A37927  16.379  18.139   8.426  0.0574 -0.0083  0.1237
 1581BOLB   C4A37928  16.112  18.222   8.068 -0.1280 -0.2217  0.2543
 1581BOLB   C1B37929  16.533  17.499   9.014  0.0074  0.2786  0.2753
 1581BOLB   C2B37930  16.668  17.500   8.627 -0.0098 -0.0376 -0.3575
 1581BOLB   C3B37931  16.643  17.685   8.253 -0.0599 -0.3952  0.4264
 1581BOLB   C4B37932  16.680  18.097   7.954  0.1411 -0.0182 -0.2822
 1581BOLB   NC237933  14.983  19.094   5.902 -0.3620 -0.0640 -0.2402
 1581BOLB   PO237934  14.902  19.341   6.182  0.2695  0.0721  0.0246
 1581BOLB   GL337935  14.717  19.269   6.524  0.3689 -0.1979 -0.2855
 1581BOLB   GL437936  14.629  19.582   6.575  0.2193 -0.0339 -0.3763
 1581BOLB   C1C37937  14.851  18.959   6.883  0.1020  0.0524 -0.0296
 1581BOLB   C2C37938  15.197  18.859   7.195  0.1833 -0.0867  0.3004
 1581BOLB   C3C37939  15.501  18.665   7.432 -0.0010  0.1266  0.1248
 1581BOLB   C4C37940  15.754  18.341   7.740 -0.1582 -0.4170 -0.1872
 1581BOLB   C1D37941  14.659  19.407   7.016 -0.0460 -0.0067  0.3552
 1581BOLB   C2D37942  14.736  19.207   7.486  0.0554  0.0244  0.4332
 1581BOLB   C3D37943  14.860  19.213   7.909 -0.2600  0.0547 -0.2172
 1581BOLB   C4D37944  14.954  19.369   8.323 -0.3174  0.0121 -0.1691
 1582BOLB   NC137945  22.568  21.139  12.134  0.0574  0.1513 -0.0840
 1582BOLB   PO137946  22.403  20.682  12.087 -0.2194 -0.2877  0.1073
 1582BOLB   GL137947  22.368  20.893  11.718 -0.2994  0.1332  0.2831
 1582BOLB   GL237948  22.179  20.624  11.618  0.1836 -0.0801 -0.1931
 1582BOLB   C1A37949  22.599  21.270  11.485 -0.3559 -0.0295 -0.2770
 1582BOLB   C2A37950  22.687  21.483  11.133 -0.0297 -0.2698 -0.0230
 1582BOLB   C3A37951  22.487  21.542  10.680 -0.1734 -0.1076 -0.3417
 1582BOLB   C4A37952  22.220  21.463  10.341  0.2212 -0.1225 -0.1385
 1582BOLB   C1B37953  22.326  20.734  11.161  0.1497 -0.1132  0.0572
 1582BOLB   C2B37954  22.606  20.544  10.880  0.1161 -0.3224 -0.1207
 1582BOLB   C3B37955  22.982  20.608  10.687 -0.0131 -0.2764  0.0401
 1582BOLB   C4B37956  23.249  20.873  10.483 -0.0878  0.0928 -0.2116
 1582BOLB   NC237957  23.128  22.027   8.414  0.0671  0.3475 -0.1492
 1582BOLB   PO237958  22.943  21.715   8.133 -0.1174 -0.0424  0.2556
 1582BOLB   GL337959  22.835  21.660   8.571  0.3437  0.1147  0.1925
 1582BOLB   GL437960  22.727  21.773   8.692 -0.1353  0.0755  0.0081
 1582BOLB   C1C37961  22.775  21.370   9.009 -0.0329  0.2129 -0.1556
 1582BOLB   C2C37962  22.506  21.179   9.221 -0.0207 -0.1910  0.1285
 1582BOLB   C3C37963  22.293  21.066   9.583 -0.3461  0.0175 -0.0208
 1582BOLB   C4C37964  22.063  21.232   9.901  0.0894  0.1565  0.1737
 1582BOLB   C1D37965  22.383  21.599   8.965  0.4075 -0.0279 -0.1718
 1582BOLB   C2D37966  22.035  21.573   9.297  0.3448 -0.1628 -0.0805
 1582BOLB   C3D37967  21.863  21.292   9.416 -0.2411  0.1506  0.0508
 1582BOLB   C4D37968  21.607  21.005   9.540 -0.2359  0.0258 -0.0384
 1583BOLB   NC137969  18.490  15.599  10.525 -0.1612 -0.1041  0.3558
 1583BOLB   PO137970  18.697  15.937  10.422  0.0642 -0.1493  0.0914
 1583BOLB   GL137971  18.772  15.897  10.023  0.0275 -0.1025 -0.1581
 1583BOLB   GL237972  19.046  16.035   9.927  0.0007  0.0022 -0.0168
 1583BOLB   C1A37973  18.656  15.927   9.618  0.1125 -0.0983  0.1386
 1583BOLB   C2A37974  18.717  15.993   9.220 -0.1621  0.0678 -0.1379
 1583BOLB   C3A37975  18.720  15.946   8.768  0.2728 -0.1883 -0.0105
 1583BOLB   C4A37976  18.860  15.826   8.475  0.0388 -0.2094 -0.2140
 1583BOLB   C1B37977  19.228  16.026   9.495  0.0501  0.1570  0.0341
 1583BOLB   C2B37978  19.179  16.138   9.057 -0.0135  0.1614 -0.0591
 1583BOLB   C3B37979  19.143  16.215   8.664 -0.0184  0.1837  0.3581
 1583BOLB   C4B37980  19.181  16.425   8.271 -0.2337  0.2115  0.0169
 1583BOLB   NC237981  20.106  17.428   6.714  0.1093  0.1726 -0.0569
 1583BOLB   PO237982  20.042  16.967   6.650  0.1505  0.0946 -0.1249
 1583BOLB   GL337983  19.858  16.661   6.808  0.1313 -0.0688  0.0472
 1583BOLB   GL437984  20.029  16.374   6.813 -0.3183 -0.2650 -0.2093
 1583BOLB   C1C37985  19.671  16.539   7.160 -0.1688  0.1812 -0.0834
 1583BOLB   C2C37986  19.547  16.419   7.591  0.2171  0.0399 -0.1159
 1583BOLB   C3C37987  19.401  16.147   7.892  0.0009 -0.0352  0.1462
 1583BOLB   C4C37988  19.114  15.851   8.000 -0.1833  0.1113 -0.1039
 1583BOLB   C1D37989  19.930  16.118   7.160  0.1787  0.0721 -0.0751
 1583BOLB   C2D37990  19.904  16.083   7.639 -0.0499  0.3031  0.0832
 1583BOLB   C3D37991  20.259  16.054   7.888 -0.0721  0.0956 -0.0435
 1583BOLB   C4D37992  20.338  16.008   8.369 -0.1418 -0.2159 -0.2428
 1584BOLB   NC137993  19.570  14.924  10.573  0.3043  0.0778  0.0558
 1584BOLB   PO137994  19.108  15.019  10.539  0.1316 -0.0468 -0.0177
 1584BOLB   GL137995  19.250  15.071  10.130  0.0283 -0.0689 -0.0179
 1584BOLB   GL237996  19.054  14.836  10.080 -0.1766  0.1878 -0.3681
 1584BOLB   C1A37997  19.619  15.124   9.806  0.2377 -0.4523  0.2759
 1584BOLB   C2A37998  19.809  14.933   9.342  0.1692  0.0042  0.0782
 1584BOLB   C3A37999  19.937  14.903   8.906  0.1797 -0.0418 -0.2148
 1584BOLB   C4A38000  20.006  14.605   8.623 -0.1282  0.4203  0.2076
 1584BOLB   C1B38001  18.901  14.723   9.705 -0.1309  0.0902  0.0869
 1584BOLB   C2B38002  18.841  14.484   9.329 -0.0070 -0.3295  0.1518
 1584BOLB   C3B38003  19.143  14.210   9.031 -0.0377 -0.0203 -0.0763
 1584BOLB   C4B38004  19.138  14.374   8.592  0.0194 -0.0226 -0.3719
 1584BOLB   NC238005  21.351  13.520   7.027  0.1086  0.1696 -0.0277
 1584BOLB   PO238006  20.980  13.683   6.886  0.0681 -0.0113 -0.0206
 1584BOLB   GL338007  20.554  13.754   7.117 -0.0383  0.0401  0.0745
 1584BOLB   GL438008  20.621  13.921   7.407  0.0613  0.2203 -0.1074
 1584BOLB   C1C38009  20.131  14.045   7.179 -0.0441 -0.3310  0.0458
 1584BOLB   C2C38010  20.109  13.974   7.560  0.0607  0.5778 -0.1008
 1584BOLB   C3C38011  19.963  14.060   7.947 -0.0444  0.0365 -0.1556
 1584BOLB   C4C38012  20.088  14.298   8.262  0.0141 -0.0847  0.2092
 1584BOLB   C1D38013  20.486  13.968   7.902  0.1633 -0.1839 -0.2971
 1584BOLB   C2D38014  20.658  14.190   8.265 -0.0310  0.1065  0.0646
 1584BOLB   C3D38015  21.098  14.399   8.364 -0.0871  0.1954 -0.0199
 1584BOLB   C4D38016  21.496  14.481   8.135  0.3907  0.2077  0.1720
 1585BOLB   NC138017  15.519  13.311  10.958  0.4003 -0.1657  0.0687
 1585BOLB   PO138018  15.977  13.491  10.812 -0.3981  0.1441 -0.0420
 1585BOLB   GL138019  15.732  13.505  10.447 -0.2010 -0.0805 -0.0875
 1585BOLB   GL238020  16.019  13.615  10.296 -0.1826  0.1003  0.0421
 1585BOLB   C1A38021  15.795  13.385   9.932 -0.0569 -0.4867  0.0156
 1585BOLB   C2A38022  15.654  13.304   9.677  0.0787  0.0644  0.1438
 1585BOLB   C3A38023  15.741  13.226   9.172  0.1887 -0.3414  0.0435
 1585BOLB   C4A38024  15.858  13.005   8.889  0.4152  0.1792  0.2692
 1585BOLB   C1B38025  16.389  13.307  10.222  0.1700  0.1043  0.1855
 1585BOLB   C2B38026  16.555  13.167   9.782 -0.1056 -0.1226  0.2202
 1585BOLB   C3B38027  16.673  13.088   9.460  0.0017  0.1141  0.0356
 1585BOLB   C4B38028  16.922  12.818   9.106 -0.1352  0.0797  0.5316
 1585BOLB   NC238029  16.990  12.577   6.345 -0.1928 -0.3501  0.0422
 1585BOLB   PO238030  16.936  12.418   6.825 -0.3428  0.2074 -0.4625
 1585BOLB   GL338031  16.818  12.476   7.246  0.1978 -0.0855  0.0739
 1585BOLB   GL438032  16.682  12.790   7.334  0.0377 -0.3111 -0.1753
 1585BOLB   C1C38033  16.778  12.288   7.712 -0.1800 -0.2865  0.3213
 1585BOLB   C2C38034  16.478  12.227   8.066  0.1830  0.2396  0.0414
 1585BOLB   C3C38035  16.247  12.357   8.418 -0.0364 -0.2076  0.0262
 1585BOLB   C4C38036  15.985  12.665   8.686  0.1181 -0.2106 -0.0770
 1585BOLB   C1D38037  16.798  13.070   7.571 -0.2371 -0.4827  0.1376
 1585BOLB   C2D38038  16.726  13.311   8.050  0.0027  0.1013 -0.0556
 1585BOLB   C3D38039  16.886  13.227   8.430  0.3338 -0.3683 -0.2184
 1585BOLB   C4D38040  16.807  12.922   8.631  0.1157  0.3596 -0.2474
 1586BOLB   NC138041  21.531  17.496  11.321  0.0527  0.0015  0.2819
 1586BOLB   PO138042  21.241  17.453  10.962 -0.0641 -0.1364  0.2324
 1586BOLB   GL138043  21.548  17.524  10.707 -0.4017 -0.3391  0.0923
 1586BOLB   GL238044  21.827  17.624  10.870 -0.2308  0.0299  0.3407
 1586BOLB   C1A38045  21.815  17.572  10.382  0.0609  0.1670  0.3589
 1586BOLB   C2A38046  22.124  17.634  10.070 -0.1592  0.1706  0.2016
 1586BOLB   C3A38047  22.168  17.260   9.714  0.2234  0.0533 -0.0340
 1586BOLB   C4A38048  22.264  17.318   9.195 -0.2601 -0.0884  0.2362
 1586BOLB   C1B38049  21.912  17.939  10.628 -0.0295 -0.5403 -0.1001
 1586BOLB   C2B38050  21.858  18.063  10.196  0.1949  0.0581  0.2022
 1586BOLB   C3B38051  21.997  18.154   9.946  0.0291 -0.0997  0.0652
 1586BOLB   C4B38052  21.900  17.821   9.723  0.2009 -0.0630  0.1740
 1586BOLB   NC238053  22.361  15.740   7.469  0.0185  0.1646 -0.0099
 1586BOLB   PO238054  22.034  15.980   7.396 -0.0665 -0.2414  0.0224
 1586BOLB   GL338055  22.035  16.036   7.860 -0.0621 -0.1501  0.1175
 1586BOLB   GL438056  22.177  16.356   7.808 -0.3047 -0.0707  0.1260
 1586BOLB   C1C38057  21.851  16.329   8.228 -0.2595  0.0608  0.0502
 1586BOLB   C2C38058  21.705  16.744   8.306 -0.3955  0.0878  0.3338
 1586BOLB   C3C38059  21.797  17.166   8.484  0.2718 -0.1422  0.0914
 1586BOLB   C4C38060  21.954  17.233   8.904 -0.1426 -0.0277  0.2499
 1586BOLB   C1D38061  22.159  16.676   8.078  0.0508 -0.1575 -0.1419
 1586BOLB   C2D38062  22.258  17.078   8.274 -0.0542 -0.4218  0.0168
 1586BOLB   C3D38063  22.350  17.321   8.692 -0.2990  0.0071 -0.1212
 1586BOLB   C4D38064  22.297  17.757   8.919  0.1071 -0.0655  0.0945
 1587BOLB   NC138065  14.754  18.796   9.916  0.1788  0.1859  0.1848
 1587BOLB   PO138066  14.383  18.543   9.852 -0.1717 -0.3443  0.1504
 1587BOLB   GL138067  14.297  18.651   9.452  0.0013 -0.0807 -0.0195
 1587BOLB   GL238068  14.575  18.902   9.325 -0.0409  0.2792  0.0834
 1587BOLB   C1A38069  14.082  18.462   9.096  0.1660  0.0252 -0.0459
 1587BOLB   C2A38070  13.867  18.460   8.755  0.1156  0.1177  0.2655
 1587BOLB   C3A38071  13.758  18.585   8.297  0.2975  0.1155  0.1913
 1587BOLB   C4A38072  13.775  18.531   7.943 -0.0243  0.1432  0.2281
 1587BOLB   C1B38073  14.474  19.404   9.312 -0.0257  0.0249  0.0322
 1587BOLB   C2B38074  14.230  19.857   9.211  0.1769  0.2670 -0.0497
 1587BOLB   C3B38075  13.966  20.261   9.288  0.1061  0.1222  0.3055
 1587BOLB   C4B38076  13.733  20.328   8.953  0.1155 -0.0185 -0.0985
 1587BOLB   NC238077  12.340  19.515   6.388 -0.3198  0.1737 -0.2455
 1587BOLB   PO238078  12.097  19.156   6.359  0.0102  0.1645 -0.0216
 1587BOLB   GL338079  12.491  19.062   6.615 -0.1394  0.0512 -0.1906
 1587BOLB   GL438080  12.639  19.159   6.972  0.0157  0.2535 -0.2822
 1587BOLB   C1C38081  12.637  18.722   6.756  0.0466  0.1424  0.0755
 1587BOLB   C2C38082  12.905  18.635   7.056  0.0019  0.1039 -0.3450
 1587BOLB   C3C38083  13.285  18.423   7.153  0.1686  0.1565 -0.0810
 1587BOLB   C4C38084  13.557  18.342   7.553  0.0339 -0.1827  0.0978
 1587BOLB   C1D38085  12.671  19.538   7.007 -0.1052  0.0743 -0.2024
 1587BOLB   C2D38086  12.701  19.782   7.387 -0.2599 -0.0808  0.1317
 1587BOLB   C3D38087  12.817  19.761   7.876 -0.0632 -0.0615 -0.2819
 1587BOLB   C4D38088  12.852  19.938   8.266 -0.0528 -0.1154 -0.1739
 1588BOLB   NC138089  19.010  10.566  13.012 -0.0154  0.0263  0.1871
 1588BOLB   PO138090  18.644  10.360  13.072 -0.0937  0.1356 -0.2054
 1588BOLB   GL138091  18.904  10.184  12.668 -0.1431 -0.0963  0.0691
 1588BOLB   GL238092  18.819  10.312  12.308 -0.4358  0.2330  0.0223
 1588BOLB   C1A38093  18.938   9.841  12.316 -0.1640 -0.0078 -0.0952
 1588BOLB   C2A38094  19.201   9.593  12.152  0.2389 -0.3762 -0.0812
 1588BOLB   C3A38095  19.347   9.709  11.790  0.0920  0.1907 -0.0232
 1588BOLB   C4A38096  19.436   9.526  11.429 -0.0753  0.1798  0.0416
 1588BOLB   C1B38097  19.112  10.221  11.944  0.0130 -0.1496  0.0584
 1588BOLB   C2B38098  19.302  10.219  11.419  0.2402 -0.2945 -0.2031
 1588BOLB   C3B38099  19.436  10.150  11.120 -0.1839  0.0588  0.1873
 1588BOLB   C4B38100  19.802   9.911  11.032 -0.0648 -0.6822 -0.1799
 1588BOLB   NC238101  19.945   8.430  10.103  0.1124 -0.0338  0.2134
 1588BOLB   PO238102  20.000   8.589   9.694 -0.1458 -0.0335 -0.3085
 1588BOLB   GL338103  19.632   8.830   9.860 -0.1177  0.1302  0.1219
 1588BOLB   GL438104  19.391   8.632   9.858  0.3178 -0.1650  0.1384
 1588BOLB   C1C38105  19.258   9.034  10.048  0.0944  0.3871  0.0450
 1588BOLB   C2C38106  19.284   9.347  10.292  0.2653  0.3450  0.0826
 1588BOLB   C3C38107  19.529   9.543  10.604 -0.1407  0.0779  0.1339
 1588BOLB   C4C38108  19.464   9.543  11.040  0.0363  0.1053  0.1254
 1588BOLB   C1D38109  19.389   8.650  10.321 -0.0784 -0.1758 -0.1957
 1588BOLB   C2D38110  19.282   8.448  10.710 -0.0019 -0.1834 -0.1922
 1588BOLB   C3D38111  19.073   8.653  11.098  0.4395 -0.0288 -0.1572
 1588BOLB   C4D38112  18.703   8.857  11.161 -0.2863  0.0628 -0.1893
 1589BOLB   NC138113  11.967  14.771  10.046 -0.4220 -0.3187 -0.0424
 1589BOLB   PO138114  11.951  15.137   9.838 -0.1449 -0.0440  0.0683
 1589BOLB   GL138115  11.722  15.268   9.474  0.0954 -0.2338 -0.0647
 1589BOLB   GL238116  11.501  15.596   9.611  0.2247  0.1558 -0.1742
 1589BOLB   C1A38117  11.583  15.318   8.998  0.0638 -0.1253  0.1706
 1589BOLB   C2A38118  11.382  15.088   8.673 -0.1815  0.2188  0.0289
 1589BOLB   C3A38119  11.357  15.010   8.254  0.0285  0.0069  0.0182
 1589BOLB   C4A38120  11.658  14.791   8.020 -0.1501  0.0761 -0.0966
 1589BOLB   C1B38121  11.323  15.644   9.206  0.0642  0.0184 -0.0787
 1589BOLB   C2B38122  11.373  15.820   8.800  0.0284 -0.0364  0.2479
 1589BOLB   C3B38123  11.316  16.111   8.530 -0.2512  0.1921  0.0053
 1589BOLB   C4B38124  11.519  16.423   8.700 -0.1037 -0.0245  0.0781
 1589BOLB   NC238125  12.629  14.636   5.770  0.1716 -0.0757 -0.0619
 1589BOLB   PO238126  12.233  14.448   5.873  0.0462 -0.0250 -0.2226
 1589BOLB   GL338127  12.294  14.359   6.320  0.0691 -0.3245  0.2075
 1589BOLB   GL438128  12.213  14.625   6.458 -0.4463 -0.2869 -0.1651
 1589BOLB   C1C38129  12.363  14.307   6.802  0.2174 -0.1885  0.3099
 1589BOLB   C2C38130  12.563  14.417   7.160  0.1596 -0.1409  0.3758
 1589BOLB   C3C38131  12.421  14.595   7.556 -0.0598 -0.0757 -0.0956
 1589BOLB   C4C38132  12.075  14.728   7.840  0.2337 -0.1270  0.0687
 1589BOLB   C1D38133  12.170  15.148   6.704 -0.0036  0.0761 -0.0116
 1589BOLB   C2D38134  12.327  15.470   6.912 -0.1625  0.2060  0.1591
 1589BOLB   C3D38135  12.239  15.550   7.355 -0.1812 -0.0747  0.0414
 1589BOLB   C4D38136  11.853  15.556   7.470  0.1288 -0.0396 -0.0083
 1590BOLB   NC138137  18.311  13.420  11.108 -0.3234 -0.1544  0.2607
 1590BOLB   PO138138  18.230  13.170  11.510 -0.4487 -0.0974 -0.5167
 1590BOLB   GL138139  18.522  13.033  11.146 -0.2373  0.2058  0.0560
 1590BOLB   GL238140  18.817  13.240  11.141 -0.2822 -0.1590  0.0317
 1590BOLB   C1A38141  18.610  13.054  10.688  0.1217 -0.0517 -0.1087
 1590BOLB   C2A38142  18.572  13.010  10.279 -0.0681 -0.2331  0.4775
 1590BOLB   C3A38143  18.679  12.969   9.792  0.0973  0.2392 -0.2875
 1590BOLB   C4A38144  18.928  13.108   9.494 -0.2585 -0.1313 -0.1965
 1590BOLB   C1B38145  18.985  12.814  11.149 -0.1581 -0.0873 -0.1479
 1590BOLB   C2B38146  18.990  12.630  10.804 -0.1447  0.4811 -0.1793
 1590BOLB   C3B38147  18.960  12.582  10.428  0.2048  0.2810 -0.1447
 1590BOLB   C4B38148  19.151  12.382  10.314  0.0029  0.0977  0.0061
 1590BOLB   NC238149  19.547  11.840   7.509  0.1297  0.0187 -0.1657
 1590BOLB   PO238150  19.751  12.175   7.340 -0.2344 -0.0448  0.2758
 1590BOLB   GL338151  19.441  12.376   7.664 -0.2000  0.0136 -0.0756
 1590BOLB   GL438152  19.186  12.125   7.730  0.1649  0.0111  0.3343
 1590BOLB   C1C38153  19.465  12.560   8.092  0.1118 -0.1818 -0.0187
 1590BOLB   C2C38154  19.356  12.759   8.453  0.0351 -0.1309  0.0282
 1590BOLB   C3C38155  19.163  13.077   8.640  0.1513  0.0567 -0.0345
 1590BOLB   C4C38156  19.008  12.951   9.070 -0.1426 -0.1250 -0.2794
 1590BOLB   C1D38157  18.982  12.067   8.028  0.0587  0.1911  0.1422
 1590BOLB   C2D38158  18.860  12.017   8.558  0.0442 -0.1044  0.2257
 1590BOLB   C3D38159  18.954  11.996   8.978  0.1183 -0.1377  0.2944
 1590BOLB   C4D38160  18.771  11.997   9.329  0.3021  0.1003 -0.0862
 1591BOLB   NC138161  17.453   9.890  13.025  0.1509 -0.2210 -0.2598
 1591BOLB   PO138162  17.089   9.825  12.956 -0.0255 -0.0045 -0.0184
 1591BOLB   GL138163  17.220   9.600  12.568  0.1164 -0.4812  0.2199
 1591BOLB   GL238164  17.118   9.692  12.239 -0.0142 -0.0237  0.2709
 1591BOLB   C1A38165  17.597   9.423  12.270 -0.0365 -0.0771 -0.1862
 1591BOLB   C2A38166  17.629   9.067  11.924  0.0373 -0.0338 -0.1365
 1591BOLB   C3A38167  17.730   9.046  11.512  0.2906 -0.4531  0.3425
 1591BOLB   C4A38168  17.611   8.985  11.212  0.1957  0.1595 -0.2585
 1591BOLB   C1B38169  17.097   9.381  11.984 -0.1590 -0.3373  0.2336
 1591BOLB   C2B38170  17.287   9.340  11.580 -0.0286 -0.1220  0.0392
 1591BOLB   C3B38171  17.112   9.082  11.170  0.2277  0.0729 -0.1426
 1591BOLB   C4B38172  17.050   8.679  10.974 -0.3913 -0.0748  0.1487
 1591BOLB   NC238173  18.552   8.775   8.872  0.0433  0.0771 -0.0118
 1591BOLB   PO238174  18.211   9.008   8.838 -0.3138 -0.1411  0.3041
 1591BOLB   GL338175  18.086   9.101   9.243  0.1629  0.1250 -0.0215
 1591BOLB   GL438176  17.754   9.072   9.153 -0.1909  0.0480 -0.0677
 1591BOLB   C1C38177  17.950   9.158   9.675  0.1393  0.0583  0.2334
 1591BOLB   C2C38178  17.824   8.816   9.986 -0.2949 -0.0024 -0.1976
 1591BOLB   C3C38179  17.526   8.812  10.356  0.0912 -0.1214  0.1422
 1591BOLB   C4C38180  17.506   8.846  10.810  0.1906 -0.0859  0.6017
 1591BOLB   C1D38181  17.641   9.409   9.453 -0.3453  0.2023  0.1821
 1591BOLB   C2D38182  17.484   9.830   9.461 -0.1026  0.1308  0.1538
 1591BOLB   C3D38183  17.516  10.222   9.690 -0.0570  0.0639  0.0279
 1591BOLB   C4D38184  17.703  10.583   9.840  0.1551 -0.1332 -0.1640
 1592BOLB   NC138185  10.474  15.729  11.192  0.1123 -0.0656 -0.0113
 1592BOLB   PO138186  10.667  15.700  10.786  0.0299  0.1495 -0.2077
 1592BOLB   GL138187  10.456  15.852  10.378 -0.1459 -0.0885  0.0485
 1592BOLB   GL238188  10.342  16.245  10.458 -0.5007  0.2320  0.2323
 1592BOLB   C1A38189  10.121  15.887  10.077 -0.6643 -0.0695 -0.1843
 1592BOLB   C2A38190  10.028  15.508   9.895  0.1741  0.1315  0.0367
 1592BOLB   C3A38191   9.643  15.288   9.628  0.0910 -0.2236  0.0262
 1592BOLB   C4A38192   9.255  15.406   9.405 -0.0618 -0.0306  0.1524
 1592BOLB   C1B38193  10.217  16.461  10.073 -0.1334  0.2198  0.0546
 1592BOLB   C2B38194  10.091  16.756   9.737 -0.1338  0.1442  0.0424
 1592BOLB   C3B38195   9.980  17.020   9.527 -0.2723  0.0616  0.0893
 1592BOLB   C4B38196   9.616  17.179   9.471  0.2239 -0.0481 -0.1755
 1592BOLB   NC238197   9.009  16.168   6.808  0.2189  0.0154 -0.5033
 1592BOLB   PO238198   8.708  16.135   7.243  0.4625  0.1084 -0.0583
 1592BOLB   GL338199   8.806  16.112   7.645 -0.0219 -0.0609 -0.0734
 1592BOLB   GL438200   9.065  15.859   7.543  0.1092 -0.3069 -0.2725
 1592BOLB   C1C38201   9.067  16.348   7.911 -0.2725 -0.3517  0.1066
 1592BOLB   C2C38202   9.155  16.261   8.391 -0.1065 -0.1163 -0.0199
 1592BOLB   C3C38203   8.962  15.976   8.648 -0.0329  0.2536 -0.2429
 1592BOLB   C4C38204   9.026  15.668   8.992 -0.0399  0.0294 -0.3566
 1592BOLB   C1D38205   9.324  15.892   7.891 -0.1347 -0.0779  0.1821
 1592BOLB   C2D38206   9.501  15.942   8.295  0.2264  0.2132  0.0647
 1592BOLB   C3D38207   9.594  15.710   8.652 -0.0107  0.1397  0.1463
 1592BOLB   C4D38208   9.502  15.718   9.044 -0.0171  0.0138  0.1293
 1593BOLB   NC138209  18.804  21.497  12.338 -0.1897  0.2021  0.1311
 1593BOLB   PO138210  18.877  21.781  11.849 -0.2762 -0.3918 -0.0173
 1593BOLB   GL138211  18.929  22.020  11.400 -0.0791 -0.2830 -0.0182
 1593BOLB   GL238212  18.838  22.381  11.467  0.1199  0.0001 -0.3103
 1593BOLB   C1A38213  18.879  22.043  10.956 -0.2462 -0.1724  0.1943
 1593BOLB   C2A38214  18.601  22.043  10.617 -0.0308  0.5320  0.2554
 1593BOLB   C3A38215  18.401  21.978  10.224  0.1304 -0.1683 -0.3549
 1593BOLB   C4A38216  18.387  22.039   9.753 -0.0624 -0.0329 -0.1119
 1593BOLB   C1B38217  18.915  22.592  11.058 -0.0589  0.0662 -0.0208
 1593BOLB   C2B38218  18.996  22.746  10.707 -0.0079 -0.0297 -0.4304
 1593BOLB   C3B38219  18.833  22.994  10.303  0.3371  0.1865 -0.3748
 1593BOLB   C4B38220  18.730  23.417  10.204  0.2793 -0.1985 -0.1699
 1593BOLB   NC238221  19.022  21.893   7.470  0.1848 -0.0035  0.0746
 1593BOLB   PO238222  19.366  21.992   7.560 -0.1951  0.0362  0.3080
 1593BOLB   GL338223  19.551  21.820   8.032 -0.1903 -0.0004  0.2455
 1593BOLB   GL438224  19.496  21.510   7.903  0.0448 -0.0196  0.0478
 1593BOLB   C1C38225  19.489  21.707   8.447 -0.3786  0.1905  0.1832
 1593BOLB   C2C38226  19.173  21.751   8.757 -0.1941 -0.3148 -0.0969
 1593BOLB   C3C38227  18.896  21.725   9.148  0.0362  0.1038  0.1182
 1593BOLB   C4C38228  18.457  21.815   9.418  0.1805  0.1341 -0.4683
 1593BOLB   C1D38229  19.353  21.272   8.318 -0.0659 -0.0643 -0.0706
 1593BOLB   C2D38230  18.940  21.374   8.361  0.0967 -0.1501 -0.0993
 1593BOLB   C3D38231  18.662  21.602   8.691 -0.1989  0.4654 -0.0374
 1593BOLB   C4D38232  18.325  21.790   8.897 -0.2202  0.0165  0.1360
 1594BOLB   NC138233  15.590  23.486  13.680 -0.0623 -0.0565 -0.1469
 1594BOLB   PO138234  15.727  23.926  13.564 -0.1211  0.2244  0.0823
 1594BOLB   GL138235  15.922  24.182  13.155 -0.0330 -0.0732 -0.2256
 1594BOLB   GL238236  15.994  24.016  12.824 -0.1619  0.0321 -0.5756
 1594BOLB   C1A38237  16.026  24.635  13.076 -0.4662 -0.1117  0.0515
 1594BOLB   C2A38238  16.236  25.002  12.953 -0.2459 -0.2259  0.1782
 1594BOLB   C3A38239  16.210  25.336  12.694  0.5444 -0.2160 -0.2500
 1594BOLB   C4A38240  16.155  25.691  12.448 -0.0431 -0.1264  0.1146
 1594BOLB   C1B38241  15.974  24.315  12.465 -0.1364  0.0452  0.4429
 1594BOLB   C2B38242  16.006  24.561  12.101  0.0587 -0.3739  0.0891
 1594BOLB   C3B38243  16.165  24.840  11.759 -0.0295  0.2057 -0.1717
 1594BOLB   C4B38244  16.110  25.114  11.451  0.1677  0.2109  0.1483
 1594BOLB   NC238245  16.138  27.668  11.700  0.2943  0.3144 -0.0476
 1594BOLB   PO238246  15.854  28.046  11.841  0.1458 -0.1497  0.0574
 1594BOLB   GL338247  15.740  27.795  12.104  0.0920  0.2195  0.3048
 1594BOLB   GL438248  15.364  27.916  12.082  0.1869 -0.3183 -0.0256
 1594BOLB   C1C38249  15.646  27.409  12.350 -0.2295  0.2308 -0.0591
 1594BOLB   C2C38250  15.716  26.942  12.205 -0.0601 -0.0730  0.1336
 1594BOLB   C3C38251  16.026  26.588  12.136 -0.3433 -0.0457  0.0949
 1594BOLB   C4C38252  16.170  26.200  12.287  0.0895  0.1152  0.2992
 1594BOLB   C1D38253  15.423  27.787  12.518  0.1484 -0.0119  0.2726
 1594BOLB   C2D38254  15.049  27.756  12.763  0.0292  0.1726  0.0385
 1594BOLB   C3D38255  14.559  27.865  12.726  0.0330  0.0438  0.1207
 1594BOLB   C4D38256  14.242  27.710  12.971  0.0758  0.1062  0.2942
 1595BOLB   NC138257  22.637  24.238  14.034 -0.0837  0.1689  0.1906
 1595BOLB   PO138258  22.548  24.042  13.584 -0.0459 -0.2598  0.1461
 1595BOLB   GL138259  22.432  24.421  13.185  0.0763 -0.1162  0.0635
 1595BOLB   GL238260  22.754  24.445  13.174 -0.0239 -0.0454  0.0452
 1595BOLB   C1A38261  22.262  24.623  12.824 -0.0250  0.2249  0.0367
 1595BOLB   C2A38262  21.941  24.742  12.546  0.2212 -0.3212  0.0539
 1595BOLB   C3A38263  21.536  24.901  12.480  0.0035 -0.1674 -0.0329
 1595BOLB   C4A38264  21.269  24.972  12.252 -0.1925 -0.2484 -0.0227
 1595BOLB   C1B38265  23.013  24.724  13.026  0.1074  0.0012  0.2311
 1595BOLB   C2B38266  22.999  25.175  13.075  0.6156 -0.1954  0.2399
 1595BOLB   C3B38267  22.611  25.429  13.114 -0.1893  0.0250 -0.0745
 1595BOLB   C4B38268  22.281  25.704  13.043 -0.3126  0.0956 -0.2368
 1595BOLB   NC238269  21.400  26.848  10.643  0.0535  0.3422  0.1116
 1595BOLB   PO238270  21.365  26.448  10.504 -0.1134 -0.3912  0.0406
 1595BOLB   GL338271  21.329  26.028  10.726 -0.0728  0.1019 -0.2352
 1595BOLB   GL438272  20.915  26.025  10.769  0.2028 -0.0094 -0.3242
 1595BOLB   C1C38273  21.362  25.700  11.059  0.0570 -0.1194  0.1581
 1595BOLB   C2C38274  21.236  25.676  11.441  0.0490 -0.2502  0.0759
 1595BOLB   C3C38275  21.096  25.742  11.839  0.0359  0.0706 -0.0861
 1595BOLB   C4C38276  21.064  25.392  12.205 -0.2413  0.1321  0.1647
 1595BOLB   C1D38277  20.719  25.713  10.900 -0.0785  0.1801  0.2052
 1595BOLB   C2D38278  20.891  25.285  11.063  0.1893  0.1062 -0.0011
 1595BOLB   C3D38279  21.055  25.016  11.363  0.2140 -0.3467  0.0574
 1595BOLB   C4D38280  21.222  25.059  11.771  0.1019 -0.0435  0.1215
 1596BOLB   NC138281  14.610  24.907  14.067  0.1653 -0.0913 -0.0276
 1596BOLB   PO138282  15.026  24.899  13.989  0.1216 -0.3206 -0.0943
 1596BOLB   GL138283  15.135  25.100  13.756  0.0667 -0.0489 -0.3562
 1596BOLB   GL238284  15.208  24.793  13.488  0.1664 -0.5522 -0.0395
 1596BOLB   C1A38285  15.288  25.353  13.397  0.0497 -0.1133  0.0463
 1596BOLB   C2A38286  15.196  25.754  13.250  0.2218  0.0454 -0.1212
 1596BOLB   C3A38287  14.955  26.098  13.184  0.3035  0.0546 -0.0864
 1596BOLB   C4A38288  14.953  26.299  12.763  0.2704  0.1396 -0.1038
 1596BOLB   C1B38289  15.176  24.939  13.024 -0.0293  0.0868  0.2783
 1596BOLB   C2B38290  15.117  25.419  12.837 -0.0713 -0.1197 -0.2673
 1596BOLB   C3B38291  15.284  25.931  12.727  0.2549  0.3926  0.2418
 1596BOLB   C4B38292  15.390  26.185  13.115 -0.0895  0.0204 -0.2226
 1596BOLB   NC238293  15.233  28.101  11.366 -0.0342  0.2099  0.0455
 1596BOLB   PO238294  15.503  27.846  11.536 -0.3984  0.0418 -0.0689
 1596BOLB   GL338295  15.123  27.591  11.574 -0.1835 -0.1406  0.0815
 1596BOLB   GL438296  15.016  27.442  11.266 -0.0844 -0.3440 -0.1875
 1596BOLB   C1C38297  15.185  27.236  11.739 -0.2838  0.1407  0.0306
 1596BOLB   C2C38298  15.266  26.740  11.819 -0.2162 -0.0185  0.0368
 1596BOLB   C3C38299  15.088  26.331  12.037 -0.4807  0.0031 -0.1482
 1596BOLB   C4C38300  14.979  26.245  12.407  0.1157 -0.3210  0.0525
 1596BOLB   C1D38301  14.954  26.957  11.318  0.1627 -0.2139 -0.1833
 1596BOLB   C2D38302  14.856  26.505  11.455  0.2752 -0.0444 -0.2493
 1596BOLB   C3D38303  14.705  26.123  11.339  0.1339 -0.0555  0.1024
 1596BOLB   C4D38304  14.451  25.836  11.618  0.2387 -0.0093  0.1986
 1597BOLB   NC138305  20.116  14.484  11.607 -0.0687  0.0428  0.1282
 1597BOLB   PO138306  19.963  14.280  11.289  0.1145 -0.1861 -0.0186
 1597BOLB   GL138307  20.105  14.026  10.916 -0.6332 -0.2835  0.0526
 1597BOLB   GL238308  20.087  13.707  11.044 -0.3024 -0.1065 -0.2461
 1597BOLB   C1A38309  19.961  13.864  10.613 -0.2187  0.3227  0.0480
 1597BOLB   C2A38310  20.041  13.710  10.171 -0.1998 -0.0042 -0.2080
 1597BOLB   C3A38311  20.099  13.756   9.646  0.2481 -0.1448  0.0047
 1597BOLB   C4A38312  19.996  13.733   9.255  0.0225 -0.0361  0.0948
 1597BOLB   C1B38313  20.401  13.551  10.807  0.1231  0.1173  0.1857
 1597BOLB   C2B38314  20.310  13.391  10.473  0.0164  0.2368  0.2887
 1597BOLB   C3B38315  20.211  13.083  10.305 -0.2221 -0.1505 -0.1708
 1597BOLB   C4B38316  19.857  12.913  10.282 -0.1875 -0.1750 -0.0891
 1597BOLB   NC238317  20.949  12.535   7.295  0.0340  0.3053  0.0577
 1597BOLB   PO238318  20.850  12.870   7.438 -0.1159  0.2360  0.0343
 1597BOLB   GL338319  20.887  12.764   7.861  0.0438  0.3455  0.2548
 1597BOLB   GL438320  21.093  12.663   8.141 -0.1627  0.0849  0.0103
 1597BOLB   C1C38321  20.561  12.819   8.173  0.1743 -0.2850  0.3403
 1597BOLB   C2C38322  20.262  13.085   8.246 -0.2584 -0.0128 -0.1531
 1597BOLB   C3C38323  20.124  13.388   8.541  0.1082 -0.1033 -0.3573
 1597BOLB   C4C38324  19.879  13.657   8.781 -0.1161 -0.2986 -0.0003
 1597BOLB   C1D38325  21.010  12.803   8.610  0.1301  0.0974  0.2080
 1597BOLB   C2D38326  21.143  12.891   9.116  0.0006  0.4478  0.0598
 1597BOLB   C3D38327  20.960  13.079   9.482 -0.0295 -0.2927  0.1140
 1597BOLB   C4D38328  20.912  13.547   9.653 -0.3635  0.0097 -0.0711
 1598BOLB   NC138329  15.870  17.748  10.452 -0.0013 -0.2609 -0.0230
 1598BOLB   PO138330  15.876  18.003  10.008 -0.0132  0.2003  0.4516
 1598BOLB   GL138331  15.868  18.040   9.563  0.2103 -0.2078 -0.2024
 1598BOLB   GL238332  15.557  18.172   9.596 -0.1364 -0.1548 -0.0004
 1598BOLB   C1A38333  16.041  18.131   9.170 -0.0239 -0.1932  0.1943
 1598BOLB   C2A38334  15.942  18.211   8.627 -0.2121  0.0347  0.3077
 1598BOLB   C3A38335  15.697  18.097   8.291 -0.0210 -0.1849 -0.2454
 1598BOLB   C4A38336  15.690  17.845   7.913 -0.0794  0.1260  0.2057
 1598BOLB   C1B38337  15.539  18.140   9.145 -0.0614 -0.1497 -0.3142
 1598BOLB   C2B38338  15.467  18.256   8.812  0.0773  0.0641 -0.1840
 1598BOLB   C3B38339  15.210  18.441   8.332 -0.2057  0.2067 -0.1925
 1598BOLB   C4B38340  14.784  18.503   8.059  0.0274  0.1401 -0.0154
 1598BOLB   NC238341  15.883  18.131   5.600 -0.0384 -0.2070 -0.2856
 1598BOLB   PO238342  16.032  18.468   5.964  0.3108  0.3402  0.3868
 1598BOLB   GL338343  15.733  18.385   6.287  0.2276  0.0548 -0.3476
 1598BOLB   GL438344  15.753  18.687   6.480 -0.0403 -0.1071 -0.1435
 1598BOLB   C1C38345  15.596  18.230   6.722 -0.3366 -0.2590  0.0280
 1598BOLB   C2C38346  15.670  17.815   6.767 -0.1603 -0.0590 -0.3499
 1598BOLB   C3C38347  15.815  17.731   7.152 -0.2314 -0.0617 -0.1271
 1598BOLB   C4C38348  15.671  17.619   7.537  0.0171  0.1250 -0.0209
 1598BOLB   C1D38349  16.068  18.797   6.831 -0.2282  0.0369 -0.1499
 1598BOLB   C2D38350  16.503  19.048   7.031 -0.0335 -0.2368  0.2152
 1598BOLB   C3D38351  16.478  18.885   7.447  0.1091  0.0365 -0.1546
 1598BOLB   C4D38352  16.605  18.581   7.740  0.1234  0.0256  0.2019
 1599BOLB   NC138353  17.770   9.635  14.512  0.0931  0.0140  0.1823
 1599BOLB   PO138354  18.101   9.276  14.274  0.1004 -0.0622 -0.1218
 1599BOLB   GL138355  18.077   8.957  13.942  0.0464 -0.6228 -0.1646
 1599BOLB   GL238356  18.362   8.728  13.945 -0.2653  0.0887 -0.1715
 1599BOLB   C1A38357  18.040   8.756  13.549  0.0633 -0.3886  0.0734
 1599BOLB   C2A38358  18.104   8.447  13.226 -0.2380 -0.2405  0.0653
 1599BOLB   C3A38359  18.266   8.560  12.746  0.1250  0.0315  0.1580
 1599BOLB   C4A38360  18.534   8.313  12.448  0.0220  0.0836  0.2317
 1599BOLB   C1B38361  18.571   8.487  14.212 -0.1958 -0.1442 -0.2266
 1599BOLB   C2B38362  18.569   8.091  13.879  0.1495 -0.2411 -0.0397
 1599BOLB   C3B38363  18.500   7.844  13.494  0.0372  0.2799 -0.1060
 1599BOLB   C4B38364  18.529   7.694  13.188 -0.1422 -0.1335  0.0274
 1599BOLB   NC238365  19.967   6.802  10.821 -0.0901  0.0690 -0.0703
 1599BOLB   PO238366  19.821   6.688  11.294 -0.2629 -0.0827 -0.0895
 1599BOLB   GL338367  19.559   6.987  11.465  0.0757  0.0013  0.2343
 1599BOLB   GL438368  19.622   7.388  11.502 -0.2009 -0.0037 -0.2438
 1599BOLB   C1C38369  19.198   7.144  11.710  0.2819 -0.2353  0.0897
 1599BOLB   C2C38370  19.078   7.412  11.963 -0.0630 -0.0706 -0.3326
 1599BOLB   C3C38371  18.835   7.660  12.111  0.3265  0.1822 -0.0009
 1599BOLB   C4C38372  18.860   8.011  12.390 -0.1113  0.0801  0.1769
 1599BOLB   C1D38373  19.628   7.676  11.782 -0.4138 -0.2997 -0.2879
 1599BOLB   C2D38374  19.743   8.027  12.144 -0.1522 -0.1793  0.0797
 1599BOLB   C3D38375  20.067   8.367  12.302 -0.0408  0.3454  0.0332
 1599BOLB   C4D38376  20.098   8.815  12.450  0.1933 -0.4435  0.1132
 1600BOLB   NC138377  16.692  21.016  10.929  0.1226 -0.1970 -0.0580
 1600BOLB   PO138378  17.125  21.111  11.129  0.2235 -0.1611  0.0440
 1600BOLB   GL138379  17.152  21.144  10.773  0.0289 -0.0536 -0.0165
 1600BOLB   GL238380  17.049  21.097  10.557 -0.0604 -0.0314  0.0053
 1600BOLB   C1A38381  17.300  21.570  10.561  0.0340  0.1786 -0.3798
 1600BOLB   C2A38382  17.406  21.712  10.194 -0.0849 -0.3519 -0.1543
 1600BOLB   C3A38383  17.397  21.702   9.770 -0.1014  0.2581  0.3052
 1600BOLB   C4A38384  17.272  21.935   9.334  0.3227 -0.0918 -0.2031
 1600BOLB   C1B38385  16.775  21.500  10.467 -0.1023  0.0398 -0.0054
 1600BOLB   C2B38386  16.751  21.907  10.416 -0.2097  0.0937 -0.2182
 1600BOLB   C3B38387  16.837  22.321  10.149  0.1417 -0.0868  0.0553
 1600BOLB   C4B38388  16.736  22.718   9.969  0.1321 -0.1045 -0.0887
 1600BOLB   NC238389  16.670  21.510   6.917  0.2180  0.1665  0.0677
 1600BOLB   PO238390  16.363  21.807   7.132  0.3826 -0.0574 -0.2409
 1600BOLB   GL338391  16.419  21.746   7.482  0.1411 -0.0659  0.0513
 1600BOLB   GL438392  16.644  21.417   7.437  0.1665 -0.1267  0.1092
 1600BOLB   C1C38393  16.595  21.882   7.856  0.0366  0.0013  0.3656
 1600BOLB   C2C38394  16.880  21.745   8.189  0.3761 -0.1664 -0.1602
 1600BOLB   C3C38395  17.035  21.738   8.558 -0.2452 -0.1947 -0.0541
 1600BOLB   C4C38396  17.162  21.714   8.946 -0.0668 -0.0261  0.3892
 1600BOLB   C1D38397  16.790  21.408   7.830 -0.1127 -0.2294  0.1877
 1600BOLB   C2D38398  16.781  21.269   8.248 -0.0440 -0.0757 -0.2389
 1600BOLB   C3D38399  16.626  20.930   8.520  0.0424  0.1639  0.1370
 1600BOLB   C4D38400  16.529  20.752   8.906  0.2361  0.1332 -0.0568
 1601BOLB   NC138401  13.479  18.919  10.855  0.1340  0.2278  0.0894
 1601BOLB   PO138402  13.316  19.328  10.599 -0.3446  0.1350  0.1686
 1601BOLB   GL138403  13.367  19.404  10.103 -0.1035  0.0646  0.1411
 1601BOLB   GL238404  13.577  19.300   9.806 -0.0993  0.1812  0.2092
 1601BOLB   C1A38405  13.212  19.662   9.759 -0.1617 -0.0685  0.2958
 1601BOLB   C2A38406  13.240  19.947   9.419 -0.0934 -0.0067 -0.0271
 1601BOLB   C3A38407  13.303  20.116   8.946 -0.7848 -0.2616 -0.1293
 1601BOLB   C4A38408  13.503  20.098   8.560 -0.0902  0.3565  0.0114
 1601BOLB   C1B38409  13.516  19.360   9.399 -0.4003  0.2276  0.1365
 1601BOLB   C2B38410  13.419  19.325   8.971  0.1621 -0.0377  0.2511
 1601BOLB   C3B38411  13.498  19.583   8.659  0.0194 -0.0937 -0.0369
 1601BOLB   C4B38412  13.621  19.668   8.261 -0.0743 -0.1285  0.2005
 1601BOLB   NC238413  13.706  20.838   6.482  0.0196  0.1312  0.4010
 1601BOLB   PO238414  13.334  21.076   6.617  0.4251  0.0463  0.0107
 1601BOLB   GL338415  13.313  20.982   6.994  0.2257  0.2776  0.1236
 1601BOLB   GL438416  13.374  21.134   7.196  0.1346 -0.0363 -0.1040
 1601BOLB   C1C38417  13.146  20.718   7.236  0.0765 -0.0737 -0.0302
 1601BOLB   C2C38418  13.169  20.577   7.666 -0.1335  0.2841 -0.1390
 1601BOLB   C3C38419  13.081  20.355   8.059  0.1536 -0.1905 -0.0206
 1601BOLB   C4C38420  13.291  20.140   8.239 -0.1914 -0.0282  0.1357
 1601BOLB   C1D38421  13.093  21.266   7.537  0.3185  0.2105 -0.0382
 1601BOLB   C2D38422  13.006  21.384   7.960  0.1261 -0.2296 -0.0737
 1601BOLB   C3D38423  12.740  21.292   8.390 -0.0998 -0.2523 -0.0246
 1601BOLB   C4D38424  12.373  21.442   8.438  0.1425 -0.0108 -0.0756
 1602BOLB   NC138425  20.148  22.727  12.865  0.1581  0.0500  0.4940
 1602BOLB   PO138426  19.816  22.848  12.594  0.0116 -0.1144 -0.1177
 1602BOLB   GL138427  20.099  23.147  12.529  0.2450 -0.2865  0.0107
 1602BOLB   GL238428  20.046  23.443  12.282  0.1683  0.2862 -0.0119
 1602BOLB   C1A38429  20.518  23.221  12.305 -0.0299 -0.0534 -0.0975
 1602BOLB   C2A38430  20.680  23.480  12.021 -0.0033 -0.2577 -0.2431
 1602BOLB   C3A38431  20.797  23.633  11.737 -0.2345 -0.0309 -0.4704
 1602BOLB   C4A38432  20.480  23.950  11.516  0.0261 -0.1159  0.1272
 1602BOLB   C1B38433  19.886  23.540  11.912 -0.0828 -0.0949 -0.2011
 1602BOLB   C2B38434  19.481  23.730  11.670  0.3017  0.2197 -0.1652
 1602BOLB   C3B38435  19.459  23.835  11.331  0.0615 -0.1831 -0.3241
 1602BOLB   C4B38436  19.022  23.787  11.103 -0.3522  0.1792  0.1721
 1602BOLB   NC238437  19.877  25.606   9.489  0.2685  0.2682 -0.3022
 1602BOLB   PO238438  20.100  25.255   9.398 -0.1592 -0.1168  0.1394
 1602BOLB   GL338439  20.004  24.862   9.540 -0.3367  0.1296  0.1711
 1602BOLB   GL438440  19.739  24.599   9.531 -0.0474  0.0999 -0.2780
 1602BOLB   C1C38441  20.119  24.669  10.005 -0.0422 -0.0248  0.0849
 1602BOLB   C2C38442  20.227  24.508  10.400  0.0677  0.2099  0.2052
 1602BOLB   C3C38443  20.388  24.371  10.773  0.1560 -0.0935 -0.0890
 1602BOLB   C4C38444  20.265  24.194  11.199 -0.3780 -0.0077  0.1525
 1602BOLB   C1D38445  19.760  24.382   9.854 -0.0325  0.0669 -0.0357
 1602BOLB   C2D38446  19.942  24.066  10.109 -0.0040  0.0480 -0.4011
 1602BOLB   C3D38447  20.115  24.026  10.653  0.0458  0.2286 -0.0317
 1602BOLB   C4D38448  19.887  23.916  11.063 -0.1385  0.0366 -0.2303
 1603BOLB   NC138449  13.648  17.530  10.279 -0.0274  0.1668 -0.0278
 1603BOLB   PO138450  13.750  17.723   9.906 -0.0025  0.1407  0.1845
 1603BOLB   GL138451  13.933  17.653   9.510 -0.0099  0.2667  0.0142
 1603BOLB   GL238452  13.813  17.944   9.450 -0.0020 -0.3201  0.2706
 1603BOLB   C1A38453  13.972  17.393   9.096  0.0107 -0.2921  0.0512
 1603BOLB   C2A38454  13.952  17.645   8.741  0.0760  0.3306 -0.0603
 1603BOLB   C3A38455  13.750  17.550   8.302  0.2191  0.2183 -0.1666
 1603BOLB   C4A38456  13.610  17.266   8.050  0.1348  0.2665  0.1077
 1603BOLB   C1B38457  13.682  18.010   9.060 -0.2635  0.1935 -0.2801
 1603BOLB   C2B38458  13.462  17.812   8.700 -0.2543 -0.0645  0.3565
 1603BOLB   C3B38459  13.273  17.431   8.490 -0.3293 -0.0829  0.1317
 1603BOLB   C4B38460  12.929  17.141   8.655 -0.3701 -0.1170  0.1432
 1603BOLB   NC238461  13.450  16.180   5.881  0.1874 -0.2418 -0.1431
 1603BOLB   PO238462  13.875  16.274   5.951 -0.1117  0.1778 -0.2429
 1603BOLB   GL338463  13.918  16.278   6.376 -0.4229  0.0245 -0.2491
 1603BOLB   GL438464  14.261  16.062   6.366 -0.0395  0.1514  0.1322
 1603BOLB   C1C38465  13.804  16.378   6.680  0.3001 -0.2575 -0.0983
 1603BOLB   C2C38466  13.520  16.775   6.917 -0.0717  0.3539 -0.0636
 1603BOLB   C3C38467  13.530  17.021   7.378  0.1212  0.3137 -0.0998
 1603BOLB   C4C38468  13.612  17.219   7.684  0.1306 -0.1068 -0.2490
 1603BOLB   C1D38469  14.266  16.215   6.863  0.1662 -0.3187  0.1631
 1603BOLB   C2D38470  14.392  16.497   7.118 -0.0462 -0.0512  0.0916
 1603BOLB   C3D38471  14.487  16.833   7.157 -0.2353  0.0005 -0.0472
 1603BOLB   C4D38472  14.368  17.160   6.976  0.1828 -0.0591  0.2457
 1604BOLB   NC138473  13.055  21.360  11.720 -0.2104 -0.1398  0.0479
 1604BOLB   PO138474  12.879  21.489  11.270  0.0262  0.2897 -0.1704
 1604BOLB   GL138475  13.031  21.660  10.765  0.3948 -0.1737 -0.0344
 1604BOLB   GL238476  13.035  21.408  10.451 -0.0706  0.0398 -0.0786
 1604BOLB   C1A38477  12.864  22.077  10.496  0.0572 -0.0725 -0.1371
 1604BOLB   C2A38478  13.032  22.141  10.128  0.0804 -0.1352 -0.0424
 1604BOLB   C3A38479  13.185  22.138   9.744 -0.1758 -0.1535 -0.0932
 1604BOLB   C4A38480  13.536  22.371   9.543 -0.3070 -0.1423  0.0378
 1604BOLB   C1B38481  13.185  21.641  10.092  0.0869  0.0408 -0.2437
 1604BOLB   C2B38482  13.275  21.680   9.592  0.2729  0.1581 -0.1077
 1604BOLB   C3B38483  13.354  21.647   9.132  0.1352  0.2732  0.0436
 1604BOLB   C4B38484  13.381  22.027   8.872 -0.0402  0.1158 -0.3447
 1604BOLB   NC238485  13.480  23.735   7.696 -0.4453 -0.0094 -0.0250
 1604BOLB   PO238486  13.987  23.511   7.482  0.2162 -0.1484  0.0679
 1604BOLB   GL338487  13.820  23.502   7.930 -0.2034  0.0881  0.0506
 1604BOLB   GL438488  13.697  23.232   8.046 -0.2965 -0.1307  0.1217
 1604BOLB   C1C38489  13.792  23.546   8.374 -0.0507 -0.2022  0.2213
 1604BOLB   C2C38490  13.866  23.127   8.593  0.0216  0.2058 -0.2807
 1604BOLB   C3C38491  13.766  22.749   8.975  0.0693 -0.0111  0.2331
 1604BOLB   C4C38492  13.653  22.748   9.363 -0.0297  0.0200 -0.0490
 1604BOLB   C1D38493  13.278  23.365   8.259  0.1647 -0.2012 -0.2616
 1604BOLB   C2D38494  13.144  23.140   8.560 -0.3965 -0.1628  0.5281
 1604BOLB   C3D38495  12.821  23.051   8.816 -0.0232 -0.0783 -0.2046
 1604BOLB   C4D38496  12.605  23.254   9.195  0.3637  0.1359 -0.4613
 1605BOLB   NC138497  17.549  16.997  10.047 -0.4978  0.2152 -0.2407
 1605BOLB   PO138498  17.794  17.433   9.855  0.2844 -0.3208  0.2914
 1605BOLB   GL138499  17.829  17.696   9.473 -0.2354  0.0169 -0.0176
 1605BOLB   GL238500  18.079  17.988   9.444  0.1945  0.2295  0.1255
 1605BOLB   C1A38501  17.666  17.524   9.021  0.0206  0.3855  0.0541
 1605BOLB   C2A38502  17.357  17.594   8.648  0.3881 -0.2778 -0.1391
 1605BOLB   C3A38503  17.177  17.640   8.287  0.0144 -0.0669 -0.1287
 1605BOLB   C4A38504  16.975  17.543   7.855  0.0384  0.2127  0.0650
 1605BOLB   C1B38505  17.903  18.045   9.116  0.2350  0.0009  0.0994
 1605BOLB   C2B38506  17.847  18.073   8.705 -0.0667  0.4955 -0.1664
 1605BOLB   C3B38507  17.615  18.123   8.322 -0.3058 -0.1800 -0.1747
 1605BOLB   C4B38508  17.511  17.900   7.967 -0.0014 -0.3371 -0.0960
 1605BOLB   NC238509  17.665  16.635   5.577  0.0804  0.0703  0.1735
 1605BOLB   PO238510  17.771  16.985   5.866  0.1053 -0.1822 -0.2493
 1605BOLB   GL338511  17.805  16.753   6.291  0.2565 -0.2607  0.2130
 1605BOLB   GL438512  18.121  16.552   6.156 -0.0255 -0.0445 -0.0567
 1605BOLB   C1C38513  17.515  16.912   6.614  0.0405  0.0830  0.2213
 1605BOLB   C2C38514  17.206  16.862   6.890  0.0613 -0.1528 -0.0671
 1605BOLB   C3C38515  17.061  17.043   7.131 -0.0465 -0.3277 -0.1822
 1605BOLB   C4C38516  17.034  17.159   7.579  0.1672  0.2602  0.2390
 1605BOLB   C1D38517  18.156  16.374   6.625 -0.0289 -0.1508 -0.0727
 1605BOLB   C2D38518  18.072  16.164   7.019 -0.1084 -0.3973 -0.0005
 1605BOLB   C3D38519  18.019  16.454   7.406  0.2595 -0.0280  0.0169
 1605BOLB   C4D38520  18.291  16.774   7.581 -0.3537 -0.1253 -0.0856
 1606BOLB   NC138521  10.746  22.746  11.875  0.1080 -0.1093  0.0762
 1606BOLB   PO138522  10.316  22.815  12.007  0.2589  0.2491 -0.0021
 1606BOLB   GL138523  10.285  22.630  11.593  0.2564  0.3517  0.4718
 1606BOLB   GL238524   9.969  22.577  11.476  0.4909  0.1117  0.0245
 1606BOLB   C1A38525  10.420  22.720  11.218  0.0168  0.1124  0.0958
 1606BOLB   C2A38526  10.508  22.940  10.849  0.2885 -0.2312  0.1363
 1606BOLB   C3A38527  10.344  22.997  10.442 -0.1989  0.1670 -0.0151
 1606BOLB   C4A38528  10.134  23.129  10.033  0.2063  0.0443 -0.1429
 1606BOLB   C1B38529  10.000  22.776  11.028  0.1294  0.2808 -0.0171
 1606BOLB   C2B38530   9.966  22.610  10.606  0.2052 -0.3428 -0.1801
 1606BOLB   C3B38531   9.987  22.650  10.092 -0.0882  0.3694  0.0528
 1606BOLB   C4B38532   9.972  22.698   9.639 -0.0308 -0.2190  0.0659
 1606BOLB   NC238533  10.371  24.196   7.692 -0.0613  0.1440 -0.0405
 1606BOLB   PO238534  10.140  24.481   7.925 -0.0520 -0.0302 -0.0148
 1606BOLB   GL338535  10.326  24.152   8.221  0.3172 -0.4677 -0.3423
 1606BOLB   GL438536  10.353  24.170   8.616  0.1844  0.2120 -0.0615
 1606BOLB   C1C38537  10.138  23.753   8.443 -0.1284  0.1734 -0.3174
 1606BOLB   C2C38538   9.998  23.444   8.749 -0.4264  0.0525  0.1682
 1606BOLB   C3C38539  10.098  23.277   9.151 -0.1986 -0.0604 -0.3213
 1606BOLB   C4C38540  10.144  23.391   9.597  0.0715 -0.1366 -0.2096
 1606BOLB   C1D38541  10.506  24.021   8.920  0.0524 -0.0129  0.1810
 1606BOLB   C2D38542  10.738  23.997   9.310 -0.1138 -0.2846  0.1234
 1606BOLB   C3D38543  10.900  24.018   9.739 -0.0982  0.4119 -0.0462
 1606BOLB   C4D38544  11.203  24.210  10.044  0.0941 -0.4977 -0.0061
 1607BOLB   NC138545   9.335  15.241  11.659  0.1448 -0.1902  0.1664
 1607BOLB   PO138546   9.399  15.529  11.484 -0.0558 -0.1887  0.3203
 1607BOLB   GL138547   9.070  15.506  11.126 -0.2360 -0.0888 -0.1988
 1607BOLB   GL238548   9.094  15.204  11.117 -0.1115 -0.0642  0.1270
 1607BOLB   C1A38549   8.878  15.808  10.910  0.0377  0.3270  0.2223
 1607BOLB   C2A38550   8.805  15.828  10.510 -0.1257 -0.2984 -0.2041
 1607BOLB   C3A38551   8.696  15.644  10.270  0.0395 -0.2533 -0.1852
 1607BOLB   C4A38552   8.671  15.719   9.952  0.0536 -0.0560 -0.1859
 1607BOLB   C1B38553   8.776  15.191  10.854  0.0524 -0.2042  0.1397
 1607BOLB   C2B38554   8.591  15.210  10.485  0.0116 -0.0854  0.1733
 1607BOLB   C3B38555   8.498  15.242  10.028 -0.0891 -0.1508 -0.2583
 1607BOLB   C4B38556   8.430  15.273   9.587  0.1882  0.3035  0.0589
 1607BOLB   NC238557   8.031  15.634   7.526  0.4051  0.0406 -0.0702
 1607BOLB   PO238558   8.192  16.005   7.525 -0.2753 -0.2284 -0.0584
 1607BOLB   GL338559   8.348  16.047   7.948  0.0297 -0.1954  0.2871
 1607BOLB   GL438560   8.164  16.311   8.016  0.0223  0.0597  0.2300
 1607BOLB   C1C38561   8.312  15.913   8.379  0.2177 -0.1583  0.0569
 1607BOLB   C2C38562   8.542  15.780   8.729  0.1278 -0.0732  0.0014
 1607BOLB   C3C38563   8.530  15.778   9.138 -0.2659  0.0607 -0.2063
 1607BOLB   C4C38564   8.744  15.605   9.528  0.0531 -0.5006  0.0694
 1607BOLB   C1D38565   8.305  16.418   8.345 -0.2150  0.2008  0.0987
 1607BOLB   C2D38566   8.604  16.348   8.647  0.1300  0.1172 -0.0271
 1607BOLB   C3D38567   9.013  16.553   8.752  0.1168  0.1721 -0.1382
 1607BOLB   C4D38568   9.373  16.650   9.026  0.0500  0.1769  0.3921
 1608BOLB   NC138569  22.186  16.118  12.009  0.1319  0.3640  0.2375
 1608BOLB   PO138570  22.080  15.724  11.809  0.0348 -0.0159 -0.3670
 1608BOLB   GL138571  22.058  15.572  11.398  0.0767 -0.1510 -0.3643
 1608BOLB   GL238572  21.951  15.347  11.290  0.2003  0.1161  0.0360
 1608BOLB   C1A38573  22.225  15.571  10.952 -0.0938 -0.0937 -0.1637
 1608BOLB   C2A38574  22.332  15.594  10.565 -0.4916 -0.1350  0.0844
 1608BOLB   C3A38575  22.383  15.848  10.240 -0.1471 -0.3401  0.1050
 1608BOLB   C4A38576  22.232  15.924   9.731  0.2396  0.0091 -0.1096
 1608BOLB   C1B38577  22.290  15.122  11.182 -0.1330 -0.4170  0.1522
 1608BOLB   C2B38578  22.416  14.882  10.869 -0.0428  0.0953 -0.1057
 1608BOLB   C3B38579  22.691  14.400  10.774 -0.0099 -0.1006  0.0646
 1608BOLB   C4B38580  22.742  14.108  10.521 -0.1068 -0.0435  0.0196
 1608BOLB   NC238581  22.914  15.674   7.643 -0.0306  0.1812  0.1313
 1608BOLB   PO238582  23.287  15.653   7.897 -0.0171 -0.1513 -0.2938
 1608BOLB   GL338583  23.087  15.801   8.216  0.0776  0.0381  0.1525
 1608BOLB   GL438584  22.947  15.561   8.276 -0.0007  0.1575  0.1267
 1608BOLB   C1C38585  23.266  15.897   8.578  0.0029 -0.2441  0.1911
 1608BOLB   C2C38586  23.090  16.258   8.880 -0.1095 -0.0561 -0.2012
 1608BOLB   C3C38587  22.718  16.275   9.198 -0.1676 -0.0655 -0.1488
 1608BOLB   C4C38588  22.441  16.182   9.498 -0.0784  0.2631 -0.2408
 1608BOLB   C1D38589  22.700  15.795   8.525  0.0560  0.4763 -0.0788
 1608BOLB   C2D38590  22.536  15.890   8.973 -0.1448 -0.2251 -0.0828
 1608BOLB   C3D38591  22.561  15.708   9.344 -0.0875 -0.1502  0.1271
 1608BOLB   C4D38592  22.753  15.794   9.796  0.5588 -0.1572  0.0678
 1609BOLB   NC138593  10.721  23.802  12.764 -0.1769 -0.1590  0.1187
 1609BOLB   PO138594  10.757  23.982  12.329  0.3308 -0.1759 -0.2506
 1609BOLB   GL138595  10.648  24.432  12.179  0.1080  0.0430  0.1010
 1609BOLB   GL238596  10.833  24.676  12.290  0.0536 -0.0872  0.0085
 1609BOLB   C1A38597  10.739  24.617  11.785 -0.0287  0.2647  0.0329
 1609BOLB   C2A38598  10.876  24.532  11.366 -0.1915 -0.0568 -0.4749
 1609BOLB   C3A38599  11.187  24.603  11.166 -0.0735  0.1798  0.0046
 1609BOLB   C4A38600  11.498  24.852  10.842  0.1434  0.1158  0.0636
 1609BOLB   C1B38601  10.910  25.112  12.242  0.2502 -0.0878  0.0558
 1609BOLB   C2B38602  10.974  25.540  12.088 -0.2179  0.3340  0.0042
 1609BOLB   C3B38603  11.251  25.705  11.796  0.2748  0.2508 -0.2558
 1609BOLB   C4B38604  11.115  25.483  11.469  0.2261 -0.2210 -0.2902
 1609BOLB   NC238605  10.899  26.813   9.243 -0.0869  0.0340  0.2954
 1609BOLB   PO238606  11.018  26.535   9.655 -0.1740 -0.1529  0.1888
 1609BOLB   GL338607  11.332  26.302   9.739  0.0369  0.0303  0.0503
 1609BOLB   GL438608  11.193  26.171   9.977  0.1974 -0.2098 -0.0203
 1609BOLB   C1C38609  11.647  26.056   9.903  0.1070  0.2433  0.0966
 1609BOLB   C2C38610  11.905  25.769  10.145  0.1132  0.0562 -0.0701
 1609BOLB   C3C38611  11.966  25.348  10.298  0.0285  0.1182 -0.0178
 1609BOLB   C4C38612  11.728  25.185  10.622  0.0925  0.0022  0.1309
 1609BOLB   C1D38613  11.402  25.952  10.336 -0.0436  0.1801  0.1663
 1609BOLB   C2D38614  11.755  25.707  10.590  0.0244  0.2658 -0.0567
 1609BOLB   C3D38615  12.140  25.399  10.758 -0.0355  0.1674 -0.1060
 1609BOLB   C4D38616  12.307  24.939  11.086 -0.0282  0.0666 -0.0034
 1610BOLB   NC138617  14.584  11.816  11.434 -0.0730 -0.0309 -0.0793
 1610BOLB   PO138618  14.377  12.112  11.081 -0.0842  0.0463  0.1176
 1610BOLB   GL138619  14.453  12.134  10.673 -0.0930 -0.4511  0.1804
 1610BOLB   GL238620  14.618  12.371  10.506  0.2160  0.2261  0.2993
 1610BOLB   C1A38621  14.387  11.951  10.298  0.0586 -0.0812 -0.0701
 1610BOLB   C2A38622  14.447  11.933   9.905  0.0654 -0.3637 -0.0246
 1610BOLB   C3A38623  14.348  11.627   9.517  0.1568 -0.0741  0.0420
 1610BOLB   C4A38624  14.509  11.593   9.077 -0.1205 -0.2998  0.1514
 1610BOLB   C1B38625  14.345  12.435  10.134 -0.2900  0.1556  0.0668
 1610BOLB   C2B38626  14.036  12.204   9.927 -0.5266 -0.0662  0.1292
 1610BOLB   C3B38627  13.969  12.017   9.623  0.0360 -0.0214 -0.1354
 1610BOLB   C4B38628  14.123  11.931   9.245  0.1694 -0.0406  0.2620
 1610BOLB   NC238629  14.024  11.066   6.516  0.3358 -0.1629  0.1156
 1610BOLB   PO238630  14.184  10.883   6.805  0.0110  0.1710  0.0964
 1610BOLB   GL338631  13.836  11.107   7.046  0.1486  0.0297 -0.3997
 1610BOLB   GL438632  13.784  11.326   6.940 -0.0244 -0.3053  0.2467
 1610BOLB   C1C38633  13.729  11.203   7.539 -0.0911  0.1056 -0.0253
 1610BOLB   C2C38634  13.837  11.531   7.992 -0.0447 -0.1717 -0.0201
 1610BOLB   C3C38635  13.926  11.493   8.444 -0.1338 -0.2122 -0.1906
 1610BOLB   C4C38636  14.338  11.608   8.648  0.3598 -0.2720 -0.1310
 1610BOLB   C1D38637  13.691  11.658   7.254  0.4339  0.2245 -0.0591
 1610BOLB   C2D38638  13.457  11.871   7.504  0.1517  0.1314 -0.2964
 1610BOLB   C3D38639  13.456  12.008   7.931  0.2007 -0.3939 -0.1609
 1610BOLB   C4D38640  13.588  12.206   8.305 -0.3338 -0.1807  0.0850
 1611BOLB   NC138641  19.170  13.314  11.563 -0.1824  0.1106 -0.1484
 1611BOLB   PO138642  19.246  13.543  11.210  0.2087  0.1292  0.0078
 1611BOLB   GL138643  19.561  13.460  10.933 -0.2619 -0.1408  0.1024
 1611BOLB   GL238644  19.867  13.249  11.019  0.1103 -0.2351 -0.2373
 1611BOLB   C1A38645  19.816  13.397  10.527  0.1842 -0.1210  0.1482
 1611BOLB   C2A38646  19.860  13.300  10.017 -0.2139  0.0194 -0.2842
 1611BOLB   C3A38647  19.899  13.260   9.550  0.1122 -0.0352  0.1308
 1611BOLB   C4A38648  19.985  13.273   9.095 -0.2204 -0.1974  0.0584
 1611BOLB   C1B38649  19.947  12.811  10.862 -0.0301  0.0753  0.0685
 1611BOLB   C2B38650  20.115  12.552  10.532 -0.3631  0.1941 -0.2651
 1611BOLB   C3B38651  20.225  12.512  10.083 -0.0886  0.1207  0.0507
 1611BOLB   C4B38652  19.997  12.264   9.684 -0.2393 -0.3233  0.2264
 1611BOLB   NC238653  21.561  12.742   8.007 -0.0261  0.0043  0.1264
 1611BOLB   PO238654  21.921  12.922   8.218 -0.2523 -0.0484  0.0250
 1611BOLB   GL338655  21.636  13.221   8.298 -0.1217 -0.2597 -0.1195
 1611BOLB   GL438656  21.378  13.420   8.070  0.4933 -0.0903  0.1255
 1611BOLB   C1C38657  21.445  13.506   8.589  0.2592 -0.0142 -0.0208
 1611BOLB   C2C38658  21.106  13.316   8.787  0.2954 -0.1811 -0.4109
 1611BOLB   C3C38659  20.717  13.083   8.980  0.0882 -0.6825  0.0252
 1611BOLB   C4C38660  20.318  13.157   8.930 -0.0118 -0.2688  0.1384
 1611BOLB   C1D38661  21.028  13.179   8.229 -0.2784 -0.0036  0.1789
 1611BOLB   C2D38662  20.607  13.323   8.529  0.1002 -0.2348  0.0954
 1611BOLB   C3D38663  20.475  13.614   8.874 -0.0755  0.0760  0.1355
 1611BOLB   C4D38664  20.449  13.500   9.304  0.1207 -0.3537  0.1932
 1612BOLB   NC138665  12.034  19.608  10.604 -0.1273 -0.1697 -0.1068
 1612BOLB   PO138666  11.939  19.290  10.376  0.0590  0.0660 -0.1029
 1612BOLB   GL138667  11.709  19.279  10.057 -0.1260  0.3705 -0.0302
 1612BOLB   GL238668  11.648  18.956  10.041  0.1195  0.2770 -0.0649
 1612BOLB   C1A38669  11.673  19.483   9.736  0.1125  0.6962  0.0512
 1612BOLB   C2A38670  11.469  19.461   9.403  0.0519  0.3297 -0.0975
 1612BOLB   C3A38671  11.355  19.557   9.039  0.0800  0.5977 -0.2260
 1612BOLB   C4A38672  11.086  19.565   8.709 -0.0824  0.3345  0.2311
 1612BOLB   C1B38673  11.584  19.018   9.631  0.0148 -0.0294  0.0216
 1612BOLB   C2B38674  11.436  18.984   9.206 -0.1452 -0.3741 -0.1900
 1612BOLB   C3B38675  11.190  18.941   8.829 -0.1769  0.1729  0.0577
 1612BOLB   C4B38676  10.883  19.041   8.532 -0.0334 -0.0493 -0.0234
 1612BOLB   NC238677   9.737  20.668   7.002  0.0262 -0.0838 -0.2120
 1612BOLB   PO238678   9.921  20.987   7.208  0.0442  0.0843 -0.0795
 1612BOLB   GL338679   9.773  20.764   7.546  0.0972  0.0917  0.1025
 1612BOLB   GL438680   9.575  20.899   7.852  0.2397  0.1990  0.1878
 1612BOLB   C1C38681   9.905  20.433   7.974  0.0495 -0.0571  0.2159
 1612BOLB   C2C38682  10.050  20.113   8.316 -0.0389  0.2775  0.0171
 1612BOLB   C3C38683  10.258  19.791   8.527 -0.2702 -0.0568  0.2618
 1612BOLB   C4C38684  10.751  19.820   8.601 -0.2892 -0.1469 -0.0492
 1612BOLB   C1D38685   9.664  20.808   8.252  0.0366 -0.3523 -0.1705
 1612BOLB   C2D38686   9.904  20.537   8.587  0.0685 -0.0440  0.1354
 1612BOLB   C3D38687  10.075  20.407   9.000  0.0980  0.1206  0.0570
 1612BOLB   C4D38688  10.071  20.339   9.482 -0.0737 -0.1277 -0.0219
 1613BOLB   NC138689  20.470  20.107  11.922  0.2787  0.1766  0.1432
 1613BOLB   PO138690  20.663  20.535  11.778 -0.2820  0.1408  0.1865
 1613BOLB   GL138691  20.709  20.794  11.433  0.0726  0.2791  0.0352
 1613BOLB   GL238692  20.472  20.839  11.147  0.1023 -0.0864 -0.3060
 1613BOLB   C1A38693  20.974  21.005  11.168  0.2385 -0.3325 -0.0179
 1613BOLB   C2A38694  21.340  21.266  10.915 -0.2235  0.2863 -0.1018
 1613BOLB   C3A38695  21.272  21.523  10.571 -0.3742 -0.3171 -0.0304
 1613BOLB   C4A38696  21.119  21.532  10.146  0.2686  0.0846  0.0635
 1613BOLB   C1B38697  20.621  21.017  10.760 -0.0711  0.1059  0.1464
 1613BOLB   C2B38698  20.924  21.079  10.416 -0.2083 -0.1733  0.1873
 1613BOLB   C3B38699  21.325  21.020  10.321 -0.1219 -0.1397  0.1307
 1613BOLB   C4B38700  21.637  20.941  10.083  0.0772  0.0166  0.1970
 1613BOLB   NC238701  20.458  22.014   7.607 -0.2125  0.0588 -0.1379
 1613BOLB   PO238702  20.890  21.975   7.816 -0.2379 -0.0895 -0.0729
 1613BOLB   GL338703  20.813  21.944   8.191  0.2217 -0.3892 -0.1388
 1613BOLB   GL438704  20.759  22.275   8.282  0.1793  0.3430 -0.3630
 1613BOLB   C1C38705  21.004  22.046   8.637  0.0895  0.1355 -0.0289
 1613BOLB   C2C38706  21.084  21.923   9.009 -0.0241  0.0209 -0.2591
 1613BOLB   C3C38707  21.199  21.649   9.431  0.2143  0.0051  0.0559
 1613BOLB   C4C38708  21.118  21.678   9.809  0.5304 -0.6119  0.2614
 1613BOLB   C1D38709  20.650  22.394   8.627 -0.1044 -0.1463 -0.1605
 1613BOLB   C2D38710  20.455  22.528   8.931 -0.1334 -0.3364 -0.3792
 1613BOLB   C3D38711  20.402  22.695   9.364 -0.0758  0.1845  0.3504
 1613BOLB   C4D38712  20.482  22.741   9.752  0.1104 -0.0622 -0.3005
 1614BOLB   NC138713  11.558  24.343  12.842  0.2100  0.3591 -0.0427
 1614BOLB   PO138714  11.744  24.085  12.538 -0.3727  0.1221  0.0748
 1614BOLB   GL138715  11.621  24.002  12.222 -0.2412 -0.1291  0.0695
 1614BOLB   GL238716  11.689  24.315  12.066  0.0079 -0.1299  0.1771
 1614BOLB   C1A38717  11.532  24.050  11.686  0.2107  0.0254  0.0157
 1614BOLB   C2A38718  11.595  24.310  11.347  0.0337 -0.0730 -0.1237
 1614BOLB   C3A38719  11.864  24.634  11.106  0.2092  0.2382 -0.2166
 1614BOLB   C4A38720  11.914  24.688  10.662  0.1642  0.0331 -0.0890
 1614BOLB   C1B38721  11.737  24.615  11.687 -0.1550 -0.0583  0.0397
 1614BOLB   C2B38722  11.946  25.006  11.621 -0.0448  0.0757 -0.2222
 1614BOLB   C3B38723  12.181  25.277  11.469  0.0239 -0.3050 -0.2525
 1614BOLB   C4B38724  12.332  25.599  11.206 -0.4221  0.0396  0.1067
 1614BOLB   NC238725  12.003  24.777   8.131  0.0916  0.2893  0.2015
 1614BOLB   PO238726  12.366  24.874   8.362  0.2994  0.1845 -0.0391
 1614BOLB   GL338727  12.069  25.015   8.734 -0.1461 -0.2383  0.0279
 1614BOLB   GL438728  11.804  24.861   8.834 -0.2994 -0.1167 -0.2573
 1614BOLB   C1C38729  12.251  24.907   9.071 -0.0830 -0.2581  0.1041
 1614BOLB   C2C38730  12.146  24.787   9.486 -0.2722  0.1122 -0.0503
 1614BOLB   C3C38731  11.988  24.664   9.845 -0.0608  0.1648  0.1063
 1614BOLB   C4C38732  12.040  24.652  10.280  0.1287  0.5873 -0.0711
 1614BOLB   C1D38733  11.306  25.034   8.994 -0.0609  0.2302 -0.2022
 1614BOLB   C2D38734  11.122  25.008   9.315 -0.0293 -0.1475  0.2252
 1614BOLB   C3D38735  10.940  24.767   9.443  0.0002 -0.0062  0.0483
 1614BOLB   C4D38736  10.666  24.452   9.669 -0.0588 -0.0332  0.0401
 1615BOLB   NC138737  15.616  23.141  12.801  0.0603  0.0831  0.2601
 1615BOLB   PO138738  15.992  23.429  12.947  0.2276  0.0251 -0.0367
 1615BOLB   GL138739  15.927  23.550  12.568 -0.4335  0.2015  0.2896
 1615BOLB   GL238740  16.159  23.447  12.362 -0.1186 -0.0790 -0.0822
 1615BOLB   C1A38741  15.876  23.862  12.176  0.2519 -0.0271  0.1506
 1615BOLB   C2A38742  15.791  24.135  11.841  0.2392  0.2294  0.3497
 1615BOLB   C3A38743  15.914  24.467  11.470  0.0195 -0.1211  0.5247
 1615BOLB   C4A38744  16.107  24.736  11.179 -0.1044  0.0652 -0.2997
 1615BOLB   C1B38745  16.345  23.858  12.335  0.1506 -0.0987 -0.1016
 1615BOLB   C2B38746  16.321  24.066  11.994  0.1637 -0.2557 -0.1142
 1615BOLB   C3B38747  16.366  24.405  11.684 -0.3793 -0.2120 -0.1649
 1615BOLB   C4B38748  16.600  24.641  11.395 -0.1595  0.2006  0.1006
 1615BOLB   NC238749  16.317  25.123   8.657  0.1411  0.1585 -0.0517
 1615BOLB   PO238750  16.308  24.762   8.673 -0.0104  0.2121 -0.1878
 1615BOLB   GL338751  16.299  24.894   9.143 -0.1376  0.2899 -0.1893
 1615BOLB   GL438752  16.113  24.935   9.371 -0.1292  0.0027 -0.1567
 1615BOLB   C1C38753  16.520  24.886   9.622 -0.0131  0.4043 -0.0478
 1615BOLB   C2C38754  16.596  24.697  10.075  0.0929  0.4387 -0.1805
 1615BOLB   C3C38755  16.665  24.673  10.500  0.1117 -0.2560  0.1419
 1615BOLB   C4C38756  16.495  24.785  10.899  0.2663  0.1386  0.1009
 1615BOLB   C1D38757  15.833  24.657   9.621  0.0060  0.0699 -0.1425
 1615BOLB   C2D38758  15.413  24.431   9.719  0.0991 -0.2224 -0.0485
 1615BOLB   C3D38759  15.071  24.153   9.980  0.1178 -0.1836 -0.2113
 1615BOLB   C4D38760  14.746  23.879  10.040  0.1194  0.2458  0.1324
 1616BOLB   NC138761  18.216  23.450  13.117  0.4152  0.2265  0.0568
 1616BOLB   PO138762  18.614  23.512  13.157 -0.2420  0.1841 -0.1530
 1616BOLB   GL138763  18.887  23.705  12.969  0.1648  0.0452  0.0848
 1616BOLB   GL238764  19.009  23.821  13.233  0.0635  0.1812 -0.1240
 1616BOLB   C1A38765  18.745  24.143  12.856  0.0610  0.2006  0.4131
 1616BOLB   C2A38766  18.580  24.510  12.698 -0.3726  0.2600 -0.2288
 1616BOLB   C3A38767  18.593  24.863  12.610  0.1157  0.2421 -0.1167
 1616BOLB   C4A38768  18.370  25.268  12.550  0.0416  0.3506 -0.2669
 1616BOLB   C1B38769  19.221  24.136  12.940  0.0734  0.0169 -0.0427
 1616BOLB   C2B38770  19.061  24.493  12.798  0.2506 -0.2416  0.0374
 1616BOLB   C3B38771  19.048  24.753  12.373  0.0543  0.1759 -0.0868
 1616BOLB   C4B38772  18.992  25.118  12.054  0.1041  0.0153  0.0579
 1616BOLB   NC238773  19.316  26.875  10.670 -0.3293  0.0478 -0.2941
 1616BOLB   PO238774  19.027  27.018  10.951  0.0134  0.1225  0.3451
 1616BOLB   GL338775  18.853  26.668  11.331 -0.2083 -0.2373 -0.1192
 1616BOLB   GL438776  18.532  26.523  11.247  0.1248  0.2439 -0.2829
 1616BOLB   C1C38777  18.802  26.481  11.742  0.0275  0.0353 -0.1527
 1616BOLB   C2C38778  18.586  26.405  12.163 -0.0375  0.0646 -0.0203
 1616BOLB   C3C38779  18.494  26.049  12.371 -0.0110  0.2440  0.2907
 1616BOLB   C4C38780  18.560  25.637  12.424 -0.2578  0.2241 -0.3462
 1616BOLB   C1D38781  18.403  26.155  11.509 -0.2907  0.2459  0.1788
 1616BOLB   C2D38782  18.629  26.039  11.842 -0.2514  0.0041  0.0697
 1616BOLB   C3D38783  18.918  25.937  12.168  0.1548 -0.1580  0.3363
 1616BOLB   C4D38784  19.106  26.387  12.257  0.2163 -0.2144 -0.0216
 1617BOLB   NC138785  19.706  17.521  10.705  0.0828 -0.0317  0.2630
 1617BOLB   PO138786  19.499  17.484  10.254 -0.1177 -0.2189 -0.1004
 1617BOLB   GL138787  19.767  17.373   9.909 -0.0736  0.4654 -0.2898
 1617BOLB   GL238788  19.585  17.412   9.632 -0.3557  0.0226  0.2104
 1617BOLB   C1A38789  20.050  17.265   9.637  0.2287  0.3743 -0.1414
 1617BOLB   C2A38790  20.483  17.089   9.440  0.0090 -0.3652 -0.0205
 1617BOLB   C3A38791  20.417  17.199   9.124  0.0966  0.2395  0.2634
 1617BOLB   C4A38792  20.657  17.479   8.775 -0.1606  0.0742 -0.1220
 1617BOLB   C1B38793  19.819  17.420   9.174 -0.4048 -0.0834 -0.0635
 1617BOLB   C2B38794  20.026  17.371   8.843  0.1233 -0.2180  0.2386
 1617BOLB   C3B38795  20.383  17.180   8.531  0.2395 -0.0527  0.1633
 1617BOLB   C4B38796  20.811  17.212   8.235  0.2233 -0.1403  0.2345
 1617BOLB   NC238797  22.126  18.227   6.879 -0.3811 -0.0341 -0.0097
 1617BOLB   PO238798  22.037  18.215   7.340 -0.0226 -0.1047  0.2809
 1617BOLB   GL338799  21.810  18.228   7.749 -0.1750 -0.0684  0.1547
 1617BOLB   GL438800  21.446  18.243   7.810 -0.1430 -0.0177  0.2801
 1617BOLB   C1C38801  21.691  18.599   8.007  0.0321  0.1541 -0.0516
 1617BOLB   C2C38802  21.452  18.382   8.403  0.2430  0.1468 -0.2499
 1617BOLB   C3C38803  21.194  18.033   8.535 -0.0569 -0.1780  0.0508
 1617BOLB   C4C38804  21.023  17.652   8.663 -0.1836  0.0002 -0.3139
 1617BOLB   C1D38805  21.440  17.894   8.085 -0.2245  0.0760 -0.0344
 1617BOLB   C2D38806  21.400  17.426   8.205  0.2191  0.0785 -0.1242
 1617BOLB   C3D38807  21.288  16.991   8.155 -0.0128 -0.1245 -0.4055
 1617BOLB   C4D38808  21.262  16.451   8.110 -0.0119  0.1726 -0.3800
 1618BOLB   NC138809  18.558  22.194  11.804 -0.0374  0.2343  0.2365
 1618BOLB   PO138810  18.254  22.130  11.514  0.0320 -0.0391 -0.1001
 1618BOLB   GL138811  18.284  22.269  11.200 -0.1085  0.0585  0.0583
 1618BOLB   GL238812  18.277  22.627  11.346 -0.0593 -0.1970  0.0677
 1618BOLB   C1A38813  18.417  22.514  10.870 -0.1841  0.0342 -0.0574
 1618BOLB   C2A38814  18.355  22.919  10.724  0.1358 -0.4471 -0.1424
 1618BOLB   C3A38815  18.573  23.239  10.628  0.0294 -0.1998  0.0268
 1618BOLB   C4A38816  18.930  23.631  10.570  0.0753 -0.2559 -0.0567
 1618BOLB   C1B38817  18.031  22.750  11.081 -0.0849 -0.0904  0.1548
 1618BOLB   C2B38818  17.935  22.748  10.606 -0.0491 -0.0876 -0.1851
 1618BOLB   C3B38819  18.040  22.822  10.172 -0.1018 -0.0264  0.0585
 1618BOLB   C4B38820  18.320  22.893   9.938 -0.0678 -0.1793 -0.1073
 1618BOLB   NC238821  19.671  26.034   9.253 -0.0038 -0.0423  0.1762
 1618BOLB   PO238822  19.341  25.864   9.545  0.1426  0.2383  0.0543
 1618BOLB   GL338823  19.382  25.503   9.853  0.1869 -0.3451 -0.5309
 1618BOLB   GL438824  19.653  25.183   9.751  0.0191 -0.1241  0.0521
 1618BOLB   C1C38825  19.214  25.158  10.121 -0.0495 -0.3445  0.0389
 1618BOLB   C2C38826  19.180  24.809  10.318  0.0080  0.0551  0.2248
 1618BOLB   C3C38827  19.236  24.412  10.492 -0.1188 -0.1506 -0.0570
 1618BOLB   C4C38828  18.986  24.047  10.520 -0.1201 -0.1951  0.3514
 1618BOLB   C1D38829  19.644  24.877  10.015 -0.1962  0.0904  0.0191
 1618BOLB   C2D38830  19.716  24.552  10.291 -0.4241 -0.0786 -0.3410
 1618BOLB   C3D38831  19.652  24.188  10.525 -0.1563 -0.3316 -0.0950
 1618BOLB   C4D38832  19.437  23.771  10.770 -0.0079 -0.2659  0.2503
 1619BOLB   NC138833  13.756  20.274  11.052  0.2936  0.0233  0.2651
 1619BOLB   PO138834  13.936  20.691  10.947 -0.0684  0.1894 -0.1890
 1619BOLB   GL138835  13.742  20.865  10.598 -0.3903  0.0561  0.2562
 1619BOLB   GL238836  13.899  20.977  10.375  0.2230  0.4358  0.0812
 1619BOLB   C1A38837  13.409  21.092  10.398  0.4875 -0.2645 -0.1084
 1619BOLB   C2A38838  13.245  21.162   9.954  0.2522 -0.0124  0.0558
 1619BOLB   C3A38839  13.042  21.255   9.615  0.1867  0.0701 -0.1853
 1619BOLB   C4A38840  12.821  21.457   9.276 -0.1601  0.2436  0.1356
 1619BOLB   C1B38841  13.729  20.954  10.008 -0.1494  0.0351  0.4370
 1619BOLB   C2B38842  14.063  21.122   9.697 -0.1812  0.1844 -0.1322
 1619BOLB   C3B38843  14.408  21.406   9.545 -0.1286 -0.0199  0.0518
 1619BOLB   C4B38844  14.803  21.337   9.237  0.0966 -0.0175  0.0925
 1619BOLB   NC238845  13.179  22.662   7.364 -0.0226 -0.0305 -0.2090
 1619BOLB   PO238846  12.670  22.543   7.414 -0.0036 -0.0180 -0.2086
 1619BOLB   GL338847  12.875  22.496   7.793  0.1946 -0.3167  0.1947
 1619BOLB   GL438848  12.852  22.153   7.789  0.0292  0.0865  0.0060
 1619BOLB   C1C38849  13.148  22.443   8.040  0.2232  0.1507 -0.1583
 1619BOLB   C2C38850  13.153  22.176   8.395  0.2577 -0.0481 -0.3298
 1619BOLB   C3C38851  12.859  21.826   8.630  0.0712  0.1506 -0.2695
 1619BOLB   C4C38852  12.840  21.803   8.917 -0.1663 -0.3052  0.1514
 1619BOLB   C1D38853  12.772  21.843   8.075  0.0629 -0.3050 -0.0517
 1619BOLB   C2D38854  12.504  21.612   8.006 -0.3069 -0.2009  0.0233
 1619BOLB   C3D38855  12.140  21.651   7.560 -0.2479 -0.0550  0.2225
 1619BOLB   C4D38856  11.756  21.808   7.451 -0.0183  0.0775  0.1163
 1620BOLB   NC138857  20.787  22.075  13.035 -0.3491 -0.2291 -0.0528
 1620BOLB   PO138858  20.961  22.280  12.719  0.0641 -0.0011 -0.0947
 1620BOLB   GL138859  21.045  22.713  12.705  0.0247 -0.1417  0.1838
 1620BOLB   GL238860  21.335  22.706  12.663  0.1423 -0.0130 -0.0390
 1620BOLB   C1A38861  21.008  23.243  12.606  0.3686 -0.0427  0.1423
 1620BOLB   C2A38862  20.954  23.663  12.468  0.1682 -0.0351  0.4455
 1620BOLB   C3A38863  20.891  23.918  12.121  0.2901 -0.4588 -0.0222
 1620BOLB   C4A38864  21.210  24.295  11.876  0.2025  0.0777 -0.0803
 1620BOLB   C1B38865  21.498  22.978  12.374 -0.4313 -0.1826  0.1346
 1620BOLB   C2B38866  21.557  23.159  11.852  0.0900  0.0881  0.1635
 1620BOLB   C3B38867  21.406  23.358  11.413 -0.1033  0.0706  0.0184
 1620BOLB   C4B38868  21.195  23.606  11.115 -0.1902  0.4363 -0.1187
 1620BOLB   NC238869  21.632  25.402   9.824  0.2541  0.3122 -0.1468
 1620BOLB   PO238870  22.069  25.133   9.744 -0.2700 -0.1192  0.0162
 1620BOLB   GL338871  22.118  25.046  10.242  0.0766 -0.2907  0.1402
 1620BOLB   GL438872  22.142  25.361  10.411  0.0415 -0.0036 -0.3313
 1620BOLB   C1C38873  21.913  24.849  10.480 -0.2280 -0.0341 -0.1979
 1620BOLB   C2C38874  21.541  24.849  10.779  0.3727  0.1348 -0.3589
 1620BOLB   C3C38875  21.317  24.681  11.021  0.1347  0.1213 -0.2840
 1620BOLB   C4C38876  21.203  24.596  11.479  0.0546  0.2998 -0.0536
 1620BOLB   C1D38877  22.103  25.175  10.834 -0.1041  0.1024  0.1425
 1620BOLB   C2D38878  22.049  24.764  10.990 -0.0383 -0.0115 -0.2448
 1620BOLB   C3D38879  21.720  24.513  11.218  0.4009  0.1577 -0.2697
 1620BOLB   C4D38880  21.666  24.235  11.507 -0.0661 -0.1190 -0.1882
 1621BOLB   NC138881  14.953   6.929  15.465  0.0223 -0.1914  0.0974
 1621BOLB   PO138882  14.924   6.609  15.239  0.3129 -0.0320  0.0659
 1621BOLB   GL138883  15.093   6.223  15.265 -0.0541 -0.0228  0.2241
 1621BOLB   GL238884  15.409   6.110  15.178  0.1166  0.0545  0.0827
 1621BOLB   C1A38885  14.883   5.849  15.049 -0.2335  0.0605 -0.0737
 1621BOLB   C2A38886  15.007   5.689  14.684  0.0781  0.1606  0.0195
 1621BOLB   C3A38887  15.356   5.624  14.355 -0.0700 -0.2560  0.0039
 1621BOLB   C4A38888  15.671   5.434  14.087  0.3018 -0.1046  0.0701
 1621BOLB   C1B38889  15.701   6.434  15.275 -0.5072  0.1491 -0.2902
 1621BOLB   C2B38890  16.082   6.692  15.066 -0.1367 -0.0428  0.0357
 1621BOLB   C3B38891  16.488   6.867  14.990  0.2290  0.3572 -0.3896
 1621BOLB   C4B38892  16.785   7.126  15.225  0.0735  0.0598 -0.0204
 1621BOLB   NC238893  17.257   3.847  12.426 -0.0194 -0.1239  0.3892
 1621BOLB   PO238894  17.467   4.216  12.655 -0.1863 -0.1317  0.0968
 1621BOLB   GL338895  17.222   4.403  12.991  0.0596 -0.1950 -0.0963
 1621BOLB   GL438896  17.429   4.390  13.206  0.1708 -0.1289  0.3729
 1621BOLB   C1C38897  16.993   4.717  13.176  0.4896  0.2419 -0.1364
 1621BOLB   C2C38898  16.696   5.030  13.402 -0.2146  0.3892 -0.4114
 1621BOLB   C3C38899  16.360   5.206  13.620  0.0127  0.0216 -0.1956
 1621BOLB   C4C38900  15.977   5.484  13.820  0.1272  0.0560  0.1260
 1621BOLB   C1D38901  17.490   4.800  12.953 -0.2303 -0.3249 -0.0071
 1621BOLB   C2D38902  17.614   5.234  13.003  0.3191 -0.2730  0.1573
 1621BOLB   C3D38903  17.542   5.450  13.356  0.2026 -0.0898  0.4011
 1621BOLB   C4D38904  17.321   5.756  13.465 -0.2236  0.1872 -0.0135
 1622BOLB   NC138905  12.974   7.637  13.579 -0.1944  0.0921  0.0173
 1622BOLB   PO138906  13.242   7.666  13.226  0.2388 -0.3582  0.1514
 1622BOLB   GL138907  13.520   7.619  12.982  0.1954  0.0849  0.4795
 1622BOLB   GL238908  13.416   7.793  12.673  0.1937 -0.2307 -0.0098
 1622BOLB   C1A38909  13.822   7.412  12.734 -0.1371  0.0032 -0.0362
 1622BOLB   C2A38910  14.036   7.180  12.413 -0.1291  0.0304  0.1412
 1622BOLB   C3A38911  14.195   7.047  12.106  0.2439 -0.3169 -0.2019
 1622BOLB   C4A38912  14.497   6.766  11.825 -0.0381 -0.4610 -0.4496
 1622BOLB   C1B38913  13.552   7.654  12.325 -0.1878  0.1236  0.3524
 1622BOLB   C2B38914  13.703   7.317  11.997 -0.2999  0.4276  0.1848
 1622BOLB   C3B38915  13.882   7.097  11.719 -0.1505 -0.1137 -0.2473
 1622BOLB   C4B38916  13.769   6.693  11.372  0.2920 -0.1887 -0.0270
 1622BOLB   NC238917  15.210   5.479  10.389  0.2049 -0.3227  0.2231
 1622BOLB   PO238918  15.522   5.122  10.547 -0.1464 -0.3030 -0.1888
 1622BOLB   GL338919  15.224   5.151  10.900  0.0610 -0.1119  0.0480
 1622BOLB   GL438920  15.064   4.918  11.022 -0.0395  0.1424 -0.1412
 1622BOLB   C1C38921  15.204   5.483  11.304  0.3032  0.1098  0.2893
 1622BOLB   C2C38922  15.124   5.873  11.363  0.2759 -0.1238  0.5247
 1622BOLB   C3C38923  15.105   6.238  11.598  0.1323 -0.0746 -0.4936
 1622BOLB   C4C38924  14.856   6.612  11.772 -0.1403  0.2499 -0.2064
 1622BOLB   C1D38925  14.878   5.076  11.403  0.1882 -0.2108  0.1367
 1622BOLB   C2D38926  15.025   5.277  11.785  0.1473 -0.3247  0.3007
 1622BOLB   C3D38927  15.106   5.451  12.163  0.2327  0.2410  0.0726
 1622BOLB   C4D38928  15.057   5.817  12.365  0.3005  0.2328 -0.0228
 1623BOLB   NC138929  13.334   4.180  14.954  0.1594 -0.1210  0.1658
 1623BOLB   PO138930  13.205   4.132  14.528  0.1289  0.1738  0.2059
 1623BOLB   GL138931  13.434   4.386  14.345  0.0133 -0.1830 -0.0649
 1623BOLB   GL238932  13.343   4.681  14.374 -0.1080 -0.3096  0.0509
 1623BOLB   C1A38933  13.863   4.500  14.304 -0.1757 -0.1982 -0.1433
 1623BOLB   C2A38934  14.359   4.615  14.281  0.1536  0.1658 -0.0678
 1623BOLB   C3A38935  14.814   4.469  14.086  0.1806  0.0159 -0.2522
 1623BOLB   C4A38936  15.176   4.613  13.881 -0.1116 -0.0703  0.0780
 1623BOLB   C1B38937  13.651   4.884  14.022 -0.0810 -0.1822  0.1209
 1623BOLB   C2B38938  14.146   4.849  13.918  0.2287  0.0058  0.0328
 1623BOLB   C3B38939  14.684   4.954  13.744  0.2073  0.0901  0.4085
 1623BOLB   C4B38940  14.844   4.639  13.547  0.0986 -0.1377  0.2410
 1623BOLB   NC238941  15.503   3.885  11.776 -0.2268  0.0307  0.0845
 1623BOLB   PO238942  16.006   3.953  11.796 -0.1594 -0.2583 -0.1158
 1623BOLB   GL338943  15.709   4.160  12.192  0.1097 -0.0280  0.2957
 1623BOLB   GL438944  15.766   4.141  12.525 -0.0338 -0.0157  0.1538
 1623BOLB   C1C38945  15.477   4.533  12.363 -0.0640  0.0101  0.1064
 1623BOLB   C2C38946  15.499   4.865  12.691 -0.0911  0.0885 -0.2147
 1623BOLB   C3C38947  15.344   5.052  13.085 -0.3710 -0.1354 -0.1077
 1623BOLB   C4C38948  15.344   4.877  13.561 -0.1369  0.1502  0.0567
 1623BOLB   C1D38949  15.900   4.549  12.638  0.1170  0.0558 -0.1253
 1623BOLB   C2D38950  15.921   4.939  12.907 -0.1271 -0.0065 -0.0585
 1623BOLB   C3D38951  16.031   5.358  12.937 -0.1776  0.0996  0.2655
 1623BOLB   C4D38952  16.159   5.644  13.212  0.2753  0.0888 -0.0022
 1624BOLB   NC138953  15.920   7.353  15.696 -0.0299 -0.0139  0.0393
 1624BOLB   PO138954  16.185   7.179  15.856 -0.2130  0.2350 -0.0714
 1624BOLB   GL138955  16.336   6.843  15.598 -0.0747 -0.2159 -0.1651
 1624BOLB   GL238956  16.218   6.478  15.697  0.0417 -0.1312  0.1818
 1624BOLB   C1A38957  16.705   6.575  15.441  0.5328 -0.2268  0.0647
 1624BOLB   C2A38958  17.110   6.412  15.580 -0.0016  0.1794  0.2083
 1624BOLB   C3A38959  17.610   6.224  15.634  0.4193  0.0044  0.1357
 1624BOLB   C4A38960  17.784   5.947  15.520 -0.1745  0.0767  0.1026
 1624BOLB   C1B38961  16.296   6.309  15.351 -0.3608  0.1561 -0.1056
 1624BOLB   C2B38962  16.505   6.306  14.976 -0.1650  0.0058  0.1793
 1624BOLB   C3B38963  16.920   6.235  15.087  0.3482 -0.2427  0.0434
 1624BOLB   C4B38964  17.101   5.813  15.023 -0.1594  0.3033  0.1134
 1624BOLB   NC238965  18.213   3.624  14.658  0.4310 -0.1674 -0.0199
 1624BOLB   PO238966  18.433   3.946  14.670  0.1262 -0.3041 -0.0383
 1624BOLB   GL338967  18.424   4.311  14.955  0.1210  0.2348  0.1716
 1624BOLB   GL438968  18.346   4.452  15.296 -0.2348 -0.2073  0.2456
 1624BOLB   C1C38969  18.563   4.782  14.903  0.0910 -0.3892  0.1027
 1624BOLB   C2C38970  18.263   4.990  14.860 -0.1107 -0.0980 -0.0176
 1624BOLB   C3C38971  18.113   5.267  15.058  0.1267  0.1705 -0.0815
 1624BOLB   C4C38972  17.981   5.616  15.245 -0.0431 -0.0199  0.0050
 1624BOLB   C1D38973  18.323   4.880  15.474  0.1591  0.0434 -0.0453
 1624BOLB   C2D38974  18.039   5.250  15.587 -0.1227  0.2344 -0.0244
 1624BOLB   C3D38975  17.641   5.327  15.886  0.0658  0.2090  0.0637
 1624BOLB   C4D38976  17.238   5.578  16.120 -0.0560 -0.0700  0.0039
 1625BOLB   NC138977  14.641   6.733  14.842  0.3596 -0.1199  0.1316
 1625BOLB   PO138978  14.397   6.797  14.502  0.0697 -0.0955 -0.0421
 1625BOLB   GL138979  14.657   6.563  14.304  0.2919 -0.1339 -0.0193
 1625BOLB   GL238980  14.927   6.714  14.396 -0.0790  0.0915  0.0627
 1625BOLB   C1A38981  14.955   6.460  13.876 -0.3893 -0.0321 -0.0976
 1625BOLB   C2A38982  15.252   6.096  13.720  0.0688  0.1005  0.3985
 1625BOLB   C3A38983  15.542   5.840  13.609 -0.0963 -0.2530  0.0929
 1625BOLB   C4A38984  15.603   5.570  13.214 -0.0561  0.2020 -0.4020
 1625BOLB   C1B38985  15.278   6.462  14.198  0.1584  0.1013 -0.1781
 1625BOLB   C2B38986  15.557   6.094  14.176  0.0611  0.1044  0.1687
 1625BOLB   C3B38987  15.824   5.936  14.063  0.1662 -0.0757 -0.0610
 1625BOLB   C4B38988  16.098   5.965  13.753 -0.0446  0.2461 -0.2561
 1625BOLB   NC238989  16.025   4.300  11.404 -0.0072 -0.0188 -0.1668
 1625BOLB   PO238990  15.774   4.033  11.323 -0.1349  0.1755 -0.0205
 1625BOLB   GL338991  15.475   4.363  11.649  0.0057 -0.3967 -0.0536
 1625BOLB   GL438992  15.138   4.649  11.535 -0.1279  0.1822  0.1767
 1625BOLB   C1C38993  15.514   4.686  11.891 -0.1262  0.0706 -0.0737
 1625BOLB   C2C38994  15.529   5.048  12.093 -0.2455  0.1059 -0.3089
 1625BOLB   C3C38995  15.557   5.472  12.380 -0.1619 -0.1014  0.0276
 1625BOLB   C4C38996  15.531   5.436  12.833 -0.1881 -0.4073 -0.0136
 1625BOLB   C1D38997  15.488   4.996  11.417 -0.0844  0.2191  0.0363
 1625BOLB   C2D38998  15.786   5.354  11.445 -0.2375  0.0645  0.0385
 1625BOLB   C3D38999  15.905   5.860  11.466  0.2612 -0.0066 -0.0931
 1625BOLB   C4D39000  15.603   6.149  11.604  0.0083  0.0758 -0.1290
 1626BOLB   NC139001  14.452   4.923  15.730  0.1893 -0.0382 -0.1192
 1626BOLB   PO139002  14.401   4.442  15.834 -0.0609 -0.0274 -0.0273
 1626BOLB   GL139003  14.843   4.534  15.751 -0.1837 -0.4742 -0.2177
 1626BOLB   GL239004  14.894   4.320  15.342 -0.1979 -0.0142  0.1716
 1626BOLB   C1A39005  15.276   4.602  15.627  0.2156  0.4279  0.1308
 1626BOLB   C2A39006  15.585   4.788  15.308  0.2601 -0.0378 -0.0827
 1626BOLB   C3A39007  15.987   4.828  15.390  0.0118  0.1519 -0.3140
 1626BOLB   C4A39008  16.229   4.976  15.175  0.1000 -0.0454 -0.1064
 1626BOLB   C1B39009  15.241   4.474  15.080  0.1072  0.0460  0.1231
 1626BOLB   C2B39010  15.302   4.838  14.904 -0.0728 -0.2090  0.0971
 1626BOLB   C3B39011  15.260   5.157  14.548 -0.1027 -0.0223  0.3876
 1626BOLB   C4B39012  15.278   5.054  14.102 -0.0129  0.2865 -0.0559
 1626BOLB   NC239013  17.081   3.334  13.832  0.1757 -0.0220  0.3783
 1626BOLB   PO239014  16.770   3.395  13.545  0.0796 -0.1033 -0.1060
 1626BOLB   GL339015  16.857   3.821  13.613  0.0942 -0.2640 -0.1483
 1626BOLB   GL439016  17.094   3.994  13.428  0.0023 -0.0717 -0.0627
 1626BOLB   C1C39017  16.702   4.164  13.804 -0.0332  0.2016 -0.3724
 1626BOLB   C2C39018  16.442   4.450  14.233 -0.0742  0.0810  0.1513
 1626BOLB   C3C39019  16.353   4.769  14.452  0.3691 -0.2048  0.0491
 1626BOLB   C4C39020  16.278   4.844  14.820 -0.0899 -0.1680 -0.0308
 1626BOLB   C1D39021  17.065   4.386  13.578 -0.1551 -0.0879  0.3051
 1626BOLB   C2D39022  17.043   4.747  13.701 -0.1996 -0.2245  0.1865
 1626BOLB   C3D39023  17.331   5.026  13.881  0.3318  0.0515  0.2294
 1626BOLB   C4D39024  17.741   5.039  14.014  0.0326 -0.3180 -0.2641
 1627BOLB   NC139025  20.730   9.990  15.981  0.5768  0.0556  0.1226
 1627BOLB   PO139026  20.794   9.978  15.470  0.2203  0.0006 -0.2574
 1627BOLB   GL139027  21.005   9.578  15.305  0.0348 -0.0840 -0.2504
 1627BOLB   GL239028  20.837   9.413  15.046 -0.3037 -0.0481  0.1628
 1627BOLB   C1A39029  21.074   9.185  15.435  0.0016 -0.2166 -0.2139
 1627BOLB   C2A39030  21.290   8.795  15.424  0.0543  0.4119 -0.0405
 1627BOLB   C3A39031  21.316   8.405  15.219 -0.2940  0.2130  0.2539
 1627BOLB   C4A39032  21.441   8.016  15.028  0.1056  0.3108 -0.2611
 1627BOLB   C1B39033  20.865   8.935  15.035 -0.1322 -0.1053  0.0813
 1627BOLB   C2B39034  21.218   8.760  14.814  0.1837 -0.0023 -0.2317
 1627BOLB   C3B39035  21.460   8.413  14.750 -0.0680 -0.2058  0.1819
 1627BOLB   C4B39036  21.552   8.130  14.424 -0.2146  0.0805  0.2424
 1627BOLB   NC239037  22.749   6.655  13.753 -0.2745 -0.0601 -0.0383
 1627BOLB   PO239038  22.404   6.513  13.482 -0.2208  0.2674 -0.0802
 1627BOLB   GL339039  22.130   6.837  13.557  0.0814  0.3806  0.1970
 1627BOLB   GL439040  21.829   6.799  13.515 -0.0121 -0.0887  0.0304
 1627BOLB   C1C39041  21.884   7.174  13.827 -0.3234  0.2252 -0.1275
 1627BOLB   C2C39042  21.690   7.223  14.268  0.2109 -0.2343  0.3283
 1627BOLB   C3C39043  21.798   7.517  14.652 -0.0099 -0.4623 -0.0603
 1627BOLB   C4C39044  21.765   7.789  14.794 -0.1192  0.1648 -0.1535
 1627BOLB   C1D39045  21.710   7.156  13.184  0.1732  0.0069 -0.3529
 1627BOLB   C2D39046  21.851   7.530  13.058  0.0613  0.0458  0.3909
 1627BOLB   C3D39047  21.756   7.914  13.195 -0.3043 -0.2141 -0.2061
 1627BOLB   C4D39048  21.636   8.335  13.378  0.0343 -0.1703  0.2720
 1628BOLB   NC139049  15.514   3.307  18.467 -0.0956 -0.3365 -0.2209
 1628BOLB   PO139050  15.594   3.477  18.828  0.2625 -0.1283  0.1378
 1628BOLB   GL139051  15.987   3.717  18.845  0.0096 -0.0172  0.0601
 1628BOLB   GL239052  16.226   3.816  18.705  0.1380  0.2029 -0.0897
 1628BOLB   C1A39053  16.271   3.730  19.220  0.1384  0.2014  0.0771
 1628BOLB   C2A39054  16.771   3.752  19.042 -0.0357  0.0220  0.2134
 1628BOLB   C3A39055  16.909   3.616  18.693 -0.0066  0.2681  0.2259
 1628BOLB   C4A39056  16.509   3.415  18.588 -0.2956  0.0527  0.0454
 1628BOLB   C1B39057  16.370   4.113  18.824  0.4398  0.4058 -0.4177
 1628BOLB   C2B39058  16.535   4.483  18.480 -0.1421 -0.2167  0.0142
 1628BOLB   C3B39059  16.466   4.881  18.217 -0.1612 -0.1950 -0.2737
 1628BOLB   C4B39060  16.191   5.150  17.974  0.0782 -0.1824  0.0883
 1628BOLB   NC239061  16.962   2.695  16.801  0.0247  0.0298 -0.0665
 1628BOLB   PO239062  16.631   2.533  16.827  0.1433  0.2384 -0.6232
 1628BOLB   GL339063  16.641   2.976  16.948  0.0580 -0.1377  0.0526
 1628BOLB   GL439064  16.629   3.127  17.264 -0.0440  0.1169 -0.0956
 1628BOLB   C1C39065  16.275   3.259  16.959  0.0349 -0.1523 -0.3205
 1628BOLB   C2C39066  16.075   3.332  17.455 -0.1892  0.3022  0.0397
 1628BOLB   C3C39067  15.997   3.348  17.949  0.0453 -0.1053  0.0246
 1628BOLB   C4C39068  16.158   3.470  18.359  0.4689 -0.0248 -0.3824
 1628BOLB   C1D39069  16.708   3.464  17.168 -0.2457 -0.2259  0.2198
 1628BOLB   C2D39070  16.490   3.778  17.001 -0.2508 -0.0970 -0.2390
 1628BOLB   C3D39071  16.271   4.174  17.007  0.1613 -0.0319  0.1583
 1628BOLB   C4D39072  16.108   4.659  17.200 -0.3163  0.0833 -0.0400
 1629BOLB   NC139073  14.710   9.524  12.417 -0.0637  0.3213  0.1544
 1629BOLB   PO139074  14.527   9.301  12.659  0.0731  0.0391 -0.0502
 1629BOLB   GL139075  14.781   8.992  12.463  0.0818  0.1714  0.1537
 1629BOLB   GL239076  15.035   9.128  12.407  0.1813 -0.1783 -0.4140
 1629BOLB   C1A39077  14.615   8.633  12.182 -0.2517  0.4704 -0.0108
 1629BOLB   C2A39078  14.863   8.208  12.033 -0.0111 -0.0926  0.0269
 1629BOLB   C3A39079  15.088   8.055  11.725  0.2216 -0.2652 -0.0966
 1629BOLB   C4A39080  15.070   7.828  11.262 -0.0620  0.3870 -0.0673
 1629BOLB   C1B39081  15.105   8.855  12.061  0.1050  0.1793 -0.0288
 1629BOLB   C2B39082  15.220   8.732  11.651 -0.0780  0.3884  0.0076
 1629BOLB   C3B39083  15.379   8.317  11.452 -0.0647  0.1046  0.0304
 1629BOLB   C4B39084  15.747   8.132  11.300  0.0503 -0.1524 -0.0634
 1629BOLB   NC239085  16.577   6.470   9.247  0.1018  0.0161  0.0352
 1629BOLB   PO239086  16.336   6.657   9.683 -0.1371 -0.0195  0.0652
 1629BOLB   GL339087  16.137   6.894   9.988  0.0644  0.0909  0.1357
 1629BOLB   GL439088  16.331   7.115  10.068  0.2877 -0.0943 -0.1847
 1629BOLB   C1C39089  15.938   7.048  10.416 -0.0155  0.2649 -0.2363
 1629BOLB   C2C39090  15.659   7.197  10.664  0.0209  0.0583 -0.2607
 1629BOLB   C3C39091  15.244   7.166  10.969  0.0689 -0.0200  0.0297
 1629BOLB   C4C39092  15.145   7.393  11.264  0.0807 -0.1256 -0.1387
 1629BOLB   C1D39093  16.432   7.525  10.222  0.1743  0.1341  0.1335
 1629BOLB   C2D39094  16.078   7.563  10.484  0.3279 -0.2446 -0.0989
 1629BOLB   C3D39095  15.776   7.655  10.835 -0.3920 -0.0652  0.2642
 1629BOLB   C4D39096  15.424   7.716  10.952  0.3241 -0.0800  0.1257
 1630BOLB   NC139097  11.860   6.189  13.370 -0.1293  0.5835 -0.0550
 1630BOLB   PO139098  12.264   5.975  13.382 -0.0658  0.2661  0.2695
 1630BOLB   GL139099  12.231   5.594  12.993  0.2711 -0.1071 -0.0790
 1630BOLB   GL239100  12.111   5.621  12.733 -0.2573  0.0694 -0.0228
 1630BOLB   C1A39101  12.549   5.431  12.729  0.0234 -0.2073 -0.1602
 1630BOLB   C2A39102  12.955   5.441  12.402  0.1221  0.0693 -0.3115
 1630BOLB   C3A39103  13.286   5.487  12.094 -0.0545 -0.0652 -0.1201
 1630BOLB   C4A39104  13.515   5.644  11.794  0.1905 -0.0190  0.0559
 1630BOLB   C1B39105  12.125   5.821  12.380 -0.0830  0.0290  0.1162
 1630BOLB   C2B39106  12.219   6.138  12.124  0.2673 -0.0386  0.2541
 1630BOLB   C3B39107  11.817   6.388  12.001 -0.0006  0.1157  0.0878
 1630BOLB   C4B39108  11.420   6.298  11.778  0.0593 -0.2820  0.1315
 1630BOLB   NC239109  14.071   3.158  11.824  0.0505  0.1291 -0.4677
 1630BOLB   PO239110  14.145   3.534  12.074  0.0284  0.2975 -0.2772
 1630BOLB   GL339111  13.886   3.883  12.071  0.1275  0.1442  0.2230
 1630BOLB   GL439112  13.889   3.975  12.386  0.2050  0.1251 -0.0158
 1630BOLB   C1C39113  13.653   4.262  12.007  0.2515 -0.0925  0.1984
 1630BOLB   C2C39114  13.562   4.631  11.759  0.2532 -0.1487  0.0561
 1630BOLB   C3C39115  13.783   5.014  11.504 -0.2413  0.2087 -0.0461
 1630BOLB   C4C39116  13.786   5.415  11.505 -0.0272 -0.2643 -0.0221
 1630BOLB   C1D39117  13.880   4.300  12.801 -0.0494  0.0580  0.0467
 1630BOLB   C2D39118  13.919   4.634  13.150 -0.1007  0.2332  0.2281
 1630BOLB   C3D39119  13.828   4.920  13.466  0.0485  0.1144  0.1410
 1630BOLB   C4D39120  13.408   4.946  13.544 -0.0660  0.1149  0.3192
 1631BOLB   NC139121  13.346   7.291  13.791  0.0003 -0.5555 -0.2132
 1631BOLB   PO139122  13.618   7.648  13.842 -0.0215  0.3433 -0.0507
 1631BOLB   GL139123  13.677   7.430  13.402 -0.2521  0.1381  0.1276
 1631BOLB   GL239124  13.978   7.265  13.313  0.0779 -0.1218 -0.3068
 1631BOLB   C1A39125  13.534   7.115  13.042 -0.0420 -0.0913  0.1546
 1631BOLB   C2A39126  13.660   6.903  12.655 -0.3813 -0.2115  0.1310
 1631BOLB   C3A39127  13.852   6.750  12.234 -0.0375  0.2016  0.3084
 1631BOLB   C4A39128  14.035   6.553  11.860  0.2025  0.0282 -0.1290
 1631BOLB   C1B39129  14.014   6.967  13.083  0.2967 -0.2234  0.0520
 1631BOLB   C2B39130  14.181   6.888  12.774 -0.1005  0.2493  0.0735
 1631BOLB   C3B39131  14.420   6.673  12.447 -0.1813 -0.0598 -0.0296
 1631BOLB   C4B39132  14.421   6.321  12.094 -0.1497 -0.3374 -0.2055
 1631BOLB   NC239133  14.991   5.567   9.733  0.1026  0.3321 -0.5129
 1631BOLB   PO239134  15.333   5.740   9.948  0.0778  0.4739  0.3909
 1631BOLB   GL339135  15.270   6.035  10.414 -0.3199 -0.0272  0.1478
 1631BOLB   GL439136  15.523   6.364  10.499  0.3793 -0.1720  0.1513
 1631BOLB   C1C39137  15.019   6.369  10.633  0.0180 -0.0871 -0.0623
 1631BOLB   C2C39138  14.922   6.402  11.033 -0.1960 -0.1251 -0.0346
 1631BOLB   C3C39139  14.664   6.215  11.375  0.1030 -0.0417  0.0371
 1631BOLB   C4C39140  14.301   6.392  11.519  0.0107  0.0814  0.0481
 1631BOLB   C1D39141  15.638   6.718  10.866 -0.1171  0.0290 -0.2721
 1631BOLB   C2D39142  15.666   6.988  11.250  0.0091  0.0825  0.0851
 1631BOLB   C3D39143  15.666   7.388  11.272 -0.0045  0.0358 -0.1446
 1631BOLB   C4D39144  15.487   7.694  11.554  0.2771 -0.1804  0.3025
 1632BOLB   NC139145  12.635   3.866  13.534 -0.0681  0.3072 -0.1260
 1632BOLB   PO139146  12.585   4.287  13.361  0.1852 -0.1334  0.4018
 1632BOLB   GL139147  12.909   4.252  13.103  0.1908  0.1952  0.0212
 1632BOLB   GL239148  12.929   4.640  12.957  0.2847  0.1936 -0.1382
 1632BOLB   C1A39149  13.350   4.196  13.117  0.2471 -0.1452 -0.0068
 1632BOLB   C2A39150  13.544   4.459  13.366 -0.1411  0.2351  0.0027
 1632BOLB   C3A39151  13.949   4.421  13.716 -0.3624  0.1408  0.0990
 1632BOLB   C4A39152  14.404   4.425  13.815  0.1508 -0.1375  0.1646
 1632BOLB   C1B39153  12.828   4.965  12.782  0.2690  0.1087  0.0532
 1632BOLB   C2B39154  13.140   5.253  12.851  0.0454  0.2307  0.2191
 1632BOLB   C3B39155  12.968   5.685  12.855  0.3140 -0.0078 -0.0209
 1632BOLB   C4B39156  12.623   5.861  12.536  0.0363  0.0717  0.3176
 1632BOLB   NC239157  15.451   2.282  14.274 -0.2056  0.5104  0.0407
 1632BOLB   PO239158  15.285   2.541  14.486  0.3260  0.0238  0.0447
 1632BOLB   GL339159  15.516   2.930  14.373  0.0151 -0.1211 -0.0234
 1632BOLB   GL439160  15.535   3.012  14.689 -0.1214 -0.1856  0.0825
 1632BOLB   C1C39161  15.359   3.270  14.292  0.3251 -0.2549 -0.2609
 1632BOLB   C2C39162  15.233   3.631  14.430  0.1628  0.1562 -0.2217
 1632BOLB   C3C39163  14.854   3.836  14.128 -0.1429 -0.3302 -0.1167
 1632BOLB   C4C39164  14.535   4.094  14.151  0.5071  0.1254  0.2985
 1632BOLB   C1D39165  15.495   3.480  14.839 -0.2645 -0.2847 -0.1897
 1632BOLB   C2D39166  15.587   3.623  15.220 -0.0014 -0.1008 -0.1175
 1632BOLB   C3D39167  15.961   3.453  15.472  0.0582  0.0066 -0.1137
 1632BOLB   C4D39168  16.126   3.353  15.856  0.0181  0.2044 -0.1630
 1633BOLB   NC139169  16.509   6.893  16.511 -0.0054 -0.0488 -0.0995
 1633BOLB   PO139170  16.926   6.967  16.450 -0.4056  0.1280 -0.3549
 1633BOLB   GL139171  16.832   6.492  16.277 -0.0563  0.1850  0.3529
 1633BOLB   GL239172  16.908   6.235  16.500 -0.4425  0.0307 -0.0800
 1633BOLB   C1A39173  16.754   6.365  15.877 -0.3329  0.0994 -0.0943
 1633BOLB   C2A39174  16.727   6.089  15.519  0.0415 -0.1883 -0.0769
 1633BOLB   C3A39175  16.854   5.586  15.347  0.1628 -0.2782  0.1879
 1633BOLB   C4A39176  16.768   5.266  14.979 -0.1670 -0.0634 -0.2566
 1633BOLB   C1B39177  17.259   5.864  16.525  0.1311  0.0741  0.0695
 1633BOLB   C2B39178  17.255   5.487  16.829 -0.0211 -0.2629  0.0002
 1633BOLB   C3B39179  17.468   5.208  17.071  0.1921 -0.0698  0.0343
 1633BOLB   C4B39180  17.825   5.246  17.226 -0.2213  0.2167 -0.2472
 1633BOLB   NC239181  18.314   3.997  13.686 -0.0272 -0.1739 -0.1100
 1633BOLB   PO239182  17.994   4.216  13.888  0.1758 -0.2095 -0.3455
 1633BOLB   GL339183  17.890   4.446  14.133  0.0166 -0.1868 -0.3102
 1633BOLB   GL439184  18.042   4.701  14.218  0.0325  0.0707 -0.0864
 1633BOLB   C1C39185  17.716   4.472  14.510  0.1199  0.1669 -0.2438
 1633BOLB   C2C39186  17.382   4.494  14.667 -0.0313 -0.1128  0.0462
 1633BOLB   C3C39187  16.975   4.517  14.674  0.1478  0.1364  0.0575
 1633BOLB   C4C39188  16.755   4.779  14.838 -0.1083 -0.0447  0.1009
 1633BOLB   C1D39189  17.903   4.909  14.556 -0.4626  0.1746  0.1123
 1633BOLB   C2D39190  17.512   5.072  14.469 -0.0355  0.3762 -0.0959
 1633BOLB   C3D39191  17.103   5.065  14.298  0.0041 -0.3324 -0.1093
 1633BOLB   C4D39192  16.702   5.118  14.463 -0.0916  0.1046 -0.0204
 1634BOLB   NC139193  19.308   9.088  15.612  0.2020  0.0471 -0.0525
 1634BOLB   PO139194  18.892   9.121  15.293 -0.2231  0.1603  0.0967
 1634BOLB   GL139195  19.125   8.801  15.197  0.0733 -0.4908  0.2553
 1634BOLB   GL239196  19.477   8.805  15.248 -0.1229  0.3510  0.0761
 1634BOLB   C1A39197  19.319   8.478  14.838  0.1734  0.1030  0.3156
 1634BOLB   C2A39198  19.509   8.136  14.753 -0.4329  0.0107  0.1211
 1634BOLB   C3A39199  19.727   7.841  14.647  0.2032  0.3155 -0.1412
 1634BOLB   C4A39200  20.117   7.599  14.572 -0.1129 -0.2856 -0.2079
 1634BOLB   C1B39201  19.657   8.422  15.229  0.1790 -0.0614  0.2190
 1634BOLB   C2B39202  19.820   8.049  15.313 -0.4212 -0.0398  0.2265
 1634BOLB   C3B39203  19.878   7.673  15.100  0.2229  0.1845 -0.3786
 1634BOLB   C4B39204  19.665   7.234  14.812  0.0525  0.0526 -0.1004
 1634BOLB   NC239205  20.633   5.564  14.747  0.0834 -0.3037  0.1062
 1634BOLB   PO239206  20.941   5.586  14.984 -0.2597 -0.4347 -0.1696
 1634BOLB   GL339207  20.795   5.999  15.004  0.1734  0.0171  0.0221
 1634BOLB   GL439208  20.470   5.944  15.053 -0.0419  0.0526 -0.0114
 1634BOLB   C1C39209  20.852   6.446  14.988  0.1726 -0.1296 -0.0736
 1634BOLB   C2C39210  20.870   6.734  14.657 -0.0938 -0.2254  0.1303
 1634BOLB   C3C39211  20.760   7.035  14.368  0.0540 -0.0018 -0.0119
 1634BOLB   C4C39212  20.464   7.369  14.310 -0.0962 -0.1280 -0.2503
 1634BOLB   C1D39213  20.021   5.863  14.974  0.1356 -0.0948  0.0175
 1634BOLB   C2D39214  19.747   5.420  15.088 -0.1197 -0.3836  0.1853
 1634BOLB   C3D39215  19.611   5.269  15.513 -0.0152  0.1740  0.2176
 1634BOLB   C4D39216  19.552   5.510  15.835 -0.3321  0.0356 -0.2988
 1635BOLB   NC139217  15.038   4.086  16.812  0.1451 -0.2305  0.0615
 1635BOLB   PO139218  14.861   3.924  16.407  0.2094 -0.0061  0.0742
 1635BOLB   GL139219  15.293   4.082  16.374 -0.1807  0.2288  0.5417
 1635BOLB   GL239220  15.152   4.249  16.050  0.1337  0.0917 -0.1326
 1635BOLB   C1A39221  15.784   4.009  16.337 -0.0631  0.0064  0.0576
 1635BOLB   C2A39222  16.031   4.150  16.005  0.0781 -0.2804 -0.0947
 1635BOLB   C3A39223  15.908   4.438  15.724  0.4402 -0.1630 -0.0751
 1635BOLB   C4A39224  15.786   4.380  15.331  0.2579  0.4286  0.2865
 1635BOLB   C1B39225  15.614   4.557  16.186  0.0564  0.0737 -0.1156
 1635BOLB   C2B39226  16.082   4.609  16.176  0.1668  0.3287 -0.1119
 1635BOLB   C3B39227  16.377   4.603  15.854 -0.3108  0.1758 -0.0599
 1635BOLB   C4B39228  16.653   4.467  15.562  0.2929  0.1652 -0.0740
 1635BOLB   NC239229  15.133   2.909  13.061 -0.3476  0.0450  0.1301
 1635BOLB   PO239230  15.128   3.005  13.418  0.1384 -0.0513  0.2257
 1635BOLB   GL339231  15.343   3.164  13.716  0.1330 -0.0849  0.0663
 1635BOLB   GL439232  15.639   3.135  13.853 -0.0904  0.0194 -0.3461
 1635BOLB   C1C39233  15.470   3.566  13.798 -0.2220 -0.1558 -0.0039
 1635BOLB   C2C39234  15.556   3.787  14.161  0.1677  0.0029 -0.0953
 1635BOLB   C3C39235  15.596   4.030  14.562  0.2769 -0.1142 -0.1301
 1635BOLB   C4C39236  15.613   4.154  14.905 -0.3098  0.1618 -0.0461
 1635BOLB   C1D39237  15.838   3.331  14.128  0.0241 -0.0829  0.0116
 1635BOLB   C2D39238  15.874   3.591  14.458  0.0253  0.4069 -0.1592
 1635BOLB   C3D39239  16.001   3.856  14.830 -0.1318 -0.1070  0.3755
 1635BOLB   C4D39240  15.980   3.914  15.250  0.4544 -0.2919  0.0805
 1636BOLB   NC139241  17.834   8.284  15.537  0.0210  0.2333  0.0781
 1636BOLB   PO139242  17.440   7.961  15.712 -0.0620 -0.0192 -0.0637
 1636BOLB   GL139243  17.795   7.575  15.635  0.1725 -0.2487  0.0786
 1636BOLB   GL239244  17.935   7.500  15.961  0.0233 -0.2136 -0.3190
 1636BOLB   C1A39245  17.859   7.255  15.362 -0.0043  0.1370 -0.3012
 1636BOLB   C2A39246  18.182   6.850  15.242 -0.0414  0.0648 -0.3760
 1636BOLB   C3A39247  18.369   6.597  14.945  0.2405  0.1715 -0.4170
 1636BOLB   C4A39248  18.756   6.554  14.725  0.1598  0.0878 -0.2583
 1636BOLB   C1B39249  18.161   7.176  15.822 -0.1361  0.3628  0.1481
 1636BOLB   C2B39250  18.334   6.780  15.774  0.0203 -0.3200  0.0193
 1636BOLB   C3B39251  18.620   6.431  15.804  0.3888  0.1581 -0.0880
 1636BOLB   C4B39252  18.939   6.148  15.621  0.0626 -0.1916  0.0107
 1636BOLB   NC239253  20.799   5.382  13.783  0.0381 -0.1068  0.1879
 1636BOLB   PO239254  20.844   5.682  14.165  0.1692  0.0129  0.2532
 1636BOLB   GL339255  20.664   6.020  14.226 -0.0175  0.1182  0.3027
 1636BOLB   GL439256  20.845   6.267  14.432  0.0419 -0.0323 -0.2670
 1636BOLB   C1C39257  20.262   6.013  14.335  0.0548  0.0129 -0.0989
 1636BOLB   C2C39258  19.855   6.073  14.578  0.0702  0.0153  0.1339
 1636BOLB   C3C39259  19.483   6.107  14.350  0.2868 -0.0706 -0.0034
 1636BOLB   C4C39260  19.040   6.419  14.434 -0.2184 -0.0305 -0.2762
 1636BOLB   C1D39261  20.511   6.332  14.679 -0.1316 -0.2650  0.2317
 1636BOLB   C2D39262  20.102   6.502  14.766  0.0024  0.1675  0.6350
 1636BOLB   C3D39263  19.696   6.471  14.893 -0.1036 -0.0976 -0.0766
 1636BOLB   C4D39264  19.248   6.596  14.859  0.1231 -0.1928  0.0293
 1637BOLB   NC139265  20.265  10.085  16.678  0.1763  0.2312 -0.1415
 1637BOLB   PO139266  20.636   9.953  16.451 -0.2054  0.1950  0.1125
 1637BOLB   GL139267  20.803   9.613  16.311 -0.3882 -0.0415 -0.1699
 1637BOLB   GL239268  21.188   9.786  16.227  0.0754  0.1050 -0.0481
 1637BOLB   C1A39269  21.008   9.182  16.342 -0.1004  0.1171 -0.1702
 1637BOLB   C2A39270  21.223   8.836  16.370  0.0696 -0.2608 -0.0632
 1637BOLB   C3A39271  21.425   8.387  16.327  0.0177  0.0074  0.0089
 1637BOLB   C4A39272  21.655   8.088  16.381 -0.0765 -0.0620 -0.1892
 1637BOLB   C1B39273  21.441   9.352  16.395 -0.2785 -0.2098  0.0880
 1637BOLB   C2B39274  21.697   9.007  16.331 -0.1838  0.2160  0.2120
 1637BOLB   C3B39275  21.890   8.555  16.443 -0.2467  0.0795  0.4519
 1637BOLB   C4B39276  22.139   8.186  16.407  0.2968 -0.0795 -0.2017
 1637BOLB   NC239277  22.399   5.951  16.886  0.1943  0.0816  0.0045
 1637BOLB   PO239278  22.431   6.172  16.516  0.0111  0.1385 -0.0117
 1637BOLB   GL339279  22.388   6.503  16.286 -0.1145  0.0238  0.1246
 1637BOLB   GL439280  22.260   6.481  15.961  0.0208  0.3392 -0.4418
 1637BOLB   C1C39281  22.513   6.946  16.254 -0.1051  0.1933  0.0657
 1637BOLB   C2C39282  22.473   7.277  16.037 -0.0814 -0.2446 -0.3720
 1637BOLB   C3C39283  22.410   7.642  16.247  0.0477  0.0377  0.0811
 1637BOLB   C4C39284  21.987   7.731  16.292 -0.0255 -0.0178  0.1453
 1637BOLB   C1D39285  21.948   6.581  16.145  0.3738  0.1758 -0.2218
 1637BOLB   C2D39286  21.964   6.915  16.367  0.1418  0.4519 -0.3652
 1637BOLB   C3D39287  22.060   7.311  16.571  0.0994  0.4192  0.3503
 1637BOLB   C4D39288  22.261   7.146  16.990  0.0904 -0.1151  0.1298
 1638BOLB   NC139289  15.775   7.640  15.243 -0.0420 -0.2372 -0.1341
 1638BOLB   PO139290  15.744   7.287  15.211 -0.0166  0.0413 -0.3136
 1638BOLB   GL139291  15.765   7.101  14.764  0.1990  0.2136 -0.3894
 1638BOLB   GL239292  16.129   7.184  14.845  0.1041  0.1583  0.3662
 1638BOLB   C1A39293  15.569   6.735  14.488 -0.2243  0.0340  0.1614
 1638BOLB   C2A39294  15.817   6.469  14.289 -0.2803  0.0893  0.1674
 1638BOLB   C3A39295  16.256   6.319  14.078 -0.1470 -0.1351 -0.1435
 1638BOLB   C4A39296  16.446   5.918  14.079 -0.3117  0.2223  0.3363
 1638BOLB   C1B39297  16.186   6.858  14.543 -0.0218 -0.1277  0.0314
 1638BOLB   C2B39298  16.543   6.656  14.465 -0.1737 -0.0304  0.1271
 1638BOLB   C3B39299  16.929   6.553  14.688 -0.3339 -0.0491  0.0225
 1638BOLB   C4B39300  17.129   6.713  15.082  0.3129  0.2718  0.2785
 1638BOLB   NC239301  17.557   3.960  13.935 -0.1645  0.0367  0.0361
 1638BOLB   PO239302  17.589   4.027  13.506 -0.2396 -0.1206 -0.1418
 1638BOLB   GL339303  17.552   4.445  13.721 -0.5048  0.1825  0.1139
 1638BOLB   GL439304  17.822   4.665  13.593 -0.0740 -0.2339  0.0119
 1638BOLB   C1C39305  17.323   4.630  14.168  0.1760  0.1604 -0.2078
 1638BOLB   C2C39306  16.819   4.714  14.144 -0.1330  0.2037 -0.3114
 1638BOLB   C3C39307  16.759   5.134  13.967 -0.1159  0.1871 -0.0799
 1638BOLB   C4C39308  16.596   5.498  14.046 -0.0851 -0.2193 -0.2400
 1638BOLB   C1D39309  17.461   4.885  13.461 -0.1397 -0.1488 -0.0381
 1638BOLB   C2D39310  17.142   5.173  13.467 -0.0557  0.0721  0.0866
 1638BOLB   C3D39311  16.974   5.446  13.676 -0.0536  0.0250 -0.4163
 1638BOLB   C4D39312  16.906   5.864  13.794  0.2628  0.1537 -0.2293
 1639BOLB   NC139313  14.158   7.016  14.128 -0.0087 -0.0324  0.0993
 1639BOLB   PO139314  14.121   7.207  13.772  0.0537  0.3803  0.1453
 1639BOLB   GL139315  14.215   6.869  13.533 -0.1415 -0.2382 -0.1213
 1639BOLB   GL239316  14.393   6.715  13.876  0.0558  0.2299  0.1048
 1639BOLB   C1A39317  14.402   6.649  13.376  0.0184 -0.0369 -0.0245
 1639BOLB   C2A39318  14.703   6.472  13.444  0.0592 -0.0549 -0.1641
 1639BOLB   C3A39319  14.949   6.385  13.178 -0.1324  0.2179  0.2048
 1639BOLB   C4A39320  15.356   6.249  13.255  0.2505 -0.3325  0.1142
 1639BOLB   C1B39321  14.438   6.292  13.922  0.0595  0.0867  0.0431
 1639BOLB   C2B39322  14.771   5.998  13.680  0.1277 -0.0350  0.0827
 1639BOLB   C3B39323  15.076   5.826  13.320 -0.2276  0.0663  0.1941
 1639BOLB   C4B39324  15.232   5.868  12.870  0.1085 -0.1308 -0.0464
 1639BOLB   NC239325  16.966   4.577  11.363  0.1331  0.1275  0.1556
 1639BOLB   PO239326  17.047   4.957  11.655  0.0373  0.2652  0.0200
 1639BOLB   GL339327  16.688   5.107  11.916 -0.0519 -0.2340  0.0773
 1639BOLB   GL439328  16.387   4.988  11.978  0.0719 -0.1079 -0.3258
 1639BOLB   C1C39329  16.486   5.404  12.301  0.0693  0.0668 -0.0097
 1639BOLB   C2C39330  16.324   5.761  12.710  0.1458  0.3154  0.0970
 1639BOLB   C3C39331  15.998   5.998  12.830 -0.1519  0.3694  0.2690
 1639BOLB   C4C39332  15.739   6.059  13.041 -0.1358 -0.0042 -0.0887
 1639BOLB   C1D39333  16.054   5.154  11.911 -0.1412  0.4215  0.3303
 1639BOLB   C2D39334  15.746   5.551  11.904  0.1455 -0.1337 -0.1245
 1639BOLB   C3D39335  15.524   5.851  12.063  0.1591 -0.1616  0.3071
 1639BOLB   C4D39336  15.149   5.802  11.834  0.1780 -0.1320  0.2597
 1640BOLB   NC139337  14.719   5.133  16.565 -0.0031 -0.0121  0.1644
 1640BOLB   PO139338  14.976   5.606  16.612  0.2133 -0.0854  0.1095
 1640BOLB   GL139339  15.269   5.394  16.874  0.0614 -0.0816 -0.1585
 1640BOLB   GL239340  15.491   5.588  17.004  0.0053 -0.2041 -0.1539
 1640BOLB   C1A39341  15.647   5.118  17.124  0.1221  0.1757 -0.4769
 1640BOLB   C2A39342  16.058   5.162  17.405 -0.0048  0.2926  0.2128
 1640BOLB   C3A39343  16.531   5.117  17.426  0.1082  0.0089 -0.2179
 1640BOLB   C4A39344  17.026   5.130  17.477  0.3139  0.2837  0.1917
 1640BOLB   C1B39345  15.816   5.412  16.787  0.2226  0.0251 -0.2122
 1640BOLB   C2B39346  16.036   5.097  16.850 -0.1006 -0.0832 -0.3932
 1640BOLB   C3B39347  16.473   4.955  16.908  0.0900  0.2236 -0.1177
 1640BOLB   C4B39348  16.947   4.992  16.985 -0.1144 -0.0602  0.0867
 1640BOLB   NC239349  18.383   3.119  17.943 -0.0467  0.2142  0.1588
 1640BOLB   PO239350  18.484   3.425  17.621 -0.0506 -0.1461 -0.0614
 1640BOLB   GL339351  18.315   3.845  17.601 -0.0390  0.1435 -0.0072
 1640BOLB   GL439352  18.546   4.116  17.497  0.2005 -0.2811 -0.2536
 1640BOLB   C1C39353  18.067   4.160  17.383  0.1752 -0.2611 -0.2935
 1640BOLB   C2C39354  18.094   4.555  17.184  0.0652  0.2403 -0.0145
 1640BOLB   C3C39355  17.698   4.770  17.055  0.0682  0.0857 -0.1123
 1640BOLB   C4C39356  17.292   4.819  17.326 -0.2823 -0.3029  0.1642
 1640BOLB   C1D39357  18.796   4.475  17.310 -0.2079 -0.0852 -0.0297
 1640BOLB   C2D39358  18.676   4.828  17.101 -0.2205  0.3784 -0.4543
 1640BOLB   C3D39359  18.617   4.910  16.676  0.0052  0.1519 -0.0905
 1640BOLB   C4D39360  18.602   5.101  16.341 -0.3814 -0.0932 -0.0927
 1641BOLB   NC139361  15.295   3.722  19.556 -0.2959 -0.3854  0.0204
 1641BOLB   PO139362  15.606   3.556  19.848 -0.0554 -0.3903 -0.1672
 1641BOLB   GL139363  15.775   3.903  19.753 -0.2867 -0.3244 -0.0901
 1641BOLB   GL239364  15.701   4.099  19.462  0.0895 -0.0792  0.0760
 1641BOLB   C1A39365  16.244   3.893  19.741  0.0163  0.4104  0.1166
 1641BOLB   C2A39366  16.642   4.082  19.832 -0.0048 -0.1238 -0.0471
 1641BOLB   C3A39367  17.061   4.075  19.588 -0.0542  0.0855 -0.0958
 1641BOLB   C4A39368  17.132   4.107  19.120  0.1539 -0.2241  0.1080
 1641BOLB   C1B39369  16.083   4.269  19.280 -0.0611  0.1852 -0.2716
 1641BOLB   C2B39370  16.474   4.316  19.375 -0.0139  0.1963 -0.1956
 1641BOLB   C3B39371  16.851   4.466  19.286  0.1482  0.3630 -0.2229
 1641BOLB   C4B39372  17.137   4.699  18.979  0.1869 -0.0375 -0.0833
 1641BOLB   NC239373  16.450   2.163  18.314 -0.0099 -0.2483  0.0267
 1641BOLB   PO239374  16.471   2.380  18.009  0.0435 -0.1127 -0.0875
 1641BOLB   GL339375  16.449   2.790  18.037  0.2545 -0.0388  0.0098
 1641BOLB   GL439376  16.445   2.996  17.710  0.3357 -0.1306 -0.1476
 1641BOLB   C1C39377  16.768   3.228  18.124  0.2016  0.2506 -0.3143
 1641BOLB   C2C39378  16.803   3.719  18.213 -0.0300  0.1757 -0.0635
 1641BOLB   C3C39379  16.829   4.104  18.317  0.3389 -0.0048  0.0721
 1641BOLB   C4C39380  16.902   4.228  18.792 -0.2769  0.0785  0.0949
 1641BOLB   C1D39381  16.542   3.429  17.742  0.1962  0.0891 -0.1141
 1641BOLB   C2D39382  16.274   3.736  17.738  0.4649  0.1154 -0.2206
 1641BOLB   C3D39383  15.952   3.883  18.051  0.2278 -0.0109  0.2471
 1641BOLB   C4D39384  15.701   4.092  18.193 -0.1677 -0.2510 -0.1968
 1642BOLB   NC139385  14.512   7.996  14.180  0.0880  0.0976 -0.1604
 1642BOLB   PO139386  14.895   7.970  13.970  0.1944 -0.1083 -0.0045
 1642BOLB   GL139387  15.108   7.672  13.841 -0.2578  0.0698  0.0337
 1642BOLB   GL239388  14.850   7.377  13.778 -0.1328 -0.3556  0.0022
 1642BOLB   C1A39389  15.334   7.364  13.727 -0.0203 -0.0209  0.0650
 1642BOLB   C2A39390  15.541   6.996  13.498  0.0092  0.1911 -0.0709
 1642BOLB   C3A39391  15.825   6.704  13.294  0.1416 -0.1612 -0.0766
 1642BOLB   C4A39392  16.109   6.555  12.957 -0.0476  0.1689 -0.3896
 1642BOLB   C1B39393  14.932   7.308  13.333  0.3237  0.0753 -0.3063
 1642BOLB   C2B39394  15.061   7.184  12.916 -0.1461  0.3479  0.4078
 1642BOLB   C3B39395  15.090   7.246  12.460 -0.0284 -0.4925 -0.3482
 1642BOLB   C4B39396  15.401   7.031  12.283  0.0727 -0.0113  0.1627
 1642BOLB   NC239397  18.138   5.092  11.284 -0.0230  0.0533  0.0135
 1642BOLB   PO239398  17.931   5.407  11.568  0.3431  0.0167  0.1523
 1642BOLB   GL339399  17.676   5.499  11.871  0.1745  0.2201 -0.1760
 1642BOLB   GL439400  17.427   5.334  11.893  0.0252  0.0265 -0.2350
 1642BOLB   C1C39401  17.383   5.701  12.190 -0.1534 -0.1401  0.1720
 1642BOLB   C2C39402  17.050   5.969  12.270  0.2905  0.2444  0.0199
 1642BOLB   C3C39403  16.791   6.193  12.564 -0.1051  0.0428  0.1499
 1642BOLB   C4C39404  16.453   6.252  12.839  0.0865  0.2696 -0.1702
 1642BOLB   C1D39405  17.016   5.361  12.222 -0.2437  0.2274 -0.1786
 1642BOLB   C2D39406  16.744   4.965  12.454 -0.1846 -0.0247  0.0932
 1642BOLB   C3D39407  16.239   4.934  12.547  0.1720  0.1996 -0.5343
 1642BOLB   C4D39408  15.963   5.231  12.425 -0.0421 -0.1525 -0.0998
 1643BOLB   NC139409  17.613   8.966  15.732  0.0866  0.0769  0.1368
 1643BOLB   PO139410  18.076   8.895  15.629 -0.0458  0.1379 -0.0396
 1643BOLB   GL139411  18.303   8.563  15.437  0.2193 -0.0209  0.2063
 1643BOLB   GL239412  18.566   8.688  15.327  0.0211  0.0214 -0.1930
 1643BOLB   C1A39413  18.338   8.160  15.155 -0.0288  0.2542 -0.1493
 1643BOLB   C2A39414  18.481   7.783  14.866 -0.1970 -0.0456  0.0564
 1643BOLB   C3A39415  18.521   7.559  14.573  0.0839  0.1664  0.1206
 1643BOLB   C4A39416  18.656   7.261  14.333  0.0825  0.3521  0.2034
 1643BOLB   C1B39417  18.796   8.368  15.351 -0.2369  0.3484 -0.4303
 1643BOLB   C2B39418  18.765   7.915  15.263 -0.0216  0.1787 -0.1115
 1643BOLB   C3B39419  18.796   7.433  15.107  0.2266 -0.2854 -0.3784
 1643BOLB   C4B39420  18.651   7.051  15.024 -0.1336 -0.1252 -0.0655
 1643BOLB   NC239421  19.913   5.557  13.644  0.2254  0.1569 -0.1305
 1643BOLB   PO239422  20.399   5.593  13.482  0.1715  0.0184  0.0072
 1643BOLB   GL339423  20.234   6.073  13.511  0.0054 -0.1977 -0.3082
 1643BOLB   GL439424  20.433   6.232  13.846  0.0658  0.1539 -0.1501
 1643BOLB   C1C39425  19.942   6.256  13.530 -0.2784  0.1117 -0.0890
 1643BOLB   C2C39426  19.657   6.393  13.874  0.3433 -0.2996  0.1982
 1643BOLB   C3C39427  19.352   6.679  14.081 -0.1916 -0.0572 -0.2132
 1643BOLB   C4C39428  18.888   6.901  14.104 -0.0107  0.1115  0.0582
 1643BOLB   C1D39429  20.546   6.587  14.195  0.1914  0.1013 -0.1456
 1643BOLB   C2D39430  20.269   6.807  14.364  0.4096  0.0570 -0.1191
 1643BOLB   C3D39431  20.090   7.072  14.576 -0.1442  0.1500 -0.1950
 1643BOLB   C4D39432  20.182   7.277  14.967 -0.1415 -0.0965 -0.3598
 1644BOLB   NC139433  13.605   4.985  15.953 -0.1267 -0.3168  0.2244
 1644BOLB   PO139434  13.452   5.014  15.571 -0.0433 -0.0143  0.1131
 1644BOLB   GL139435  13.797   4.905  15.170 -0.1598  0.0553 -0.1493
 1644BOLB   GL239436  14.029   4.625  15.177  0.0978 -0.0413  0.2925
 1644BOLB   C1A39437  14.172   5.142  15.085 -0.1412  0.2460  0.2653
 1644BOLB   C2A39438  14.565   5.012  14.898 -0.2981 -0.1619  0.0015
 1644BOLB   C3A39439  14.843   4.746  14.740  0.1209  0.1459 -0.0283
 1644BOLB   C4A39440  15.136   4.662  14.472 -0.0425  0.0795  0.0574
 1644BOLB   C1B39441  14.099   4.810  14.743  0.1967  0.2701 -0.0387
 1644BOLB   C2B39442  14.061   5.032  14.367  0.3401 -0.2368  0.1051
 1644BOLB   C3B39443  14.366   5.235  14.041  0.1436 -0.1583  0.2609
 1644BOLB   C4B39444  14.558   5.509  13.784 -0.1667 -0.1080  0.0582
 1644BOLB   NC239445  15.939   2.749  13.153 -0.0211  0.3491  0.0429
 1644BOLB   PO239446  16.051   3.022  13.292  0.0477 -0.0069 -0.0948
 1644BOLB   GL339447  16.106   3.304  13.609  0.2995 -0.1192  0.0021
 1644BOLB   GL439448  16.340   3.555  13.544 -0.0017  0.1702 -0.2935
 1644BOLB   C1C39449  15.929   3.687  13.785 -0.0178  0.1039 -0.1868
 1644BOLB   C2C39450  16.132   4.192  13.861 -0.0066  0.0158 -0.0705
 1644BOLB   C3C39451  15.968   4.544  14.196  0.2734  0.3043  0.4609
 1644BOLB   C4C39452  15.587   4.541  14.384 -0.2351 -0.0001 -0.1445
 1644BOLB   C1D39453  16.322   3.956  13.504 -0.1756 -0.1391  0.3711
 1644BOLB   C2D39454  16.068   4.303  13.400 -0.2198  0.1770 -0.2765
 1644BOLB   C3D39455  15.952   4.658  13.624  0.3764 -0.0375 -0.0729
 1644BOLB   C4D39456  15.752   4.947  13.892  0.3613  0.0260  0.1106
 1645BOLB   NC139457  15.673   6.860  16.701  0.0774  0.1277  0.2451
 1645BOLB   PO139458  16.021   6.854  16.372  0.0715  0.0502 -0.1304
 1645BOLB   GL139459  16.065   6.353  16.234 -0.1495 -0.0243 -0.1687
 1645BOLB   GL239460  16.303   6.396  16.466 -0.0158  0.0223 -0.0539
 1645BOLB   C1A39461  16.085   5.966  16.040 -0.0690  0.2445  0.0011
 1645BOLB   C2A39462  16.406   5.810  15.784 -0.2856  0.1212  0.2032
 1645BOLB   C3A39463  16.405   5.766  15.310  0.0523 -0.2297  0.1028
 1645BOLB   C4A39464  16.599   5.797  14.972 -0.2335  0.0365 -0.0884
 1645BOLB   C1B39465  16.402   6.019  16.387  0.5350 -0.0231  0.0144
 1645BOLB   C2B39466  16.773   5.866  16.105  0.2378  0.2519  0.0154
 1645BOLB   C3B39467  17.122   5.902  15.746  0.1903 -0.1489 -0.2220
 1645BOLB   C4B39468  17.392   5.635  15.452 -0.0329  0.0591 -0.1084
 1645BOLB   NC239469  18.507   4.883  12.796 -0.3523 -0.2505  0.2268
 1645BOLB   PO239470  18.526   5.179  13.033 -0.1891  0.1525 -0.1794
 1645BOLB   GL339471  18.164   5.203  13.470 -0.2964 -0.4058  0.1993
 1645BOLB   GL439472  18.176   4.998  13.789 -0.1479  0.0639  0.2745
 1645BOLB   C1C39473  17.822   5.444  13.735  0.0284  0.3423  0.0643
 1645BOLB   C2C39474  17.389   5.526  13.952 -0.1566  0.3053 -0.1599
 1645BOLB   C3C39475  17.062   5.565  14.183  0.1012 -0.3151 -0.0584
 1645BOLB   C4C39476  16.716   5.620  14.536 -0.1604  0.2595 -0.0800
 1645BOLB   C1D39477  18.250   5.398  13.955  0.0916 -0.0246 -0.1760
 1645BOLB   C2D39478  18.314   5.833  13.819 -0.2032 -0.0774  0.3158
 1645BOLB   C3D39479  18.666   6.169  13.660  0.0957  0.1425  0.0063
 1645BOLB   C4D39480  19.099   6.095  13.432 -0.1177  0.2616  0.6174
 1646BOLB   NC139481  19.691   9.252  15.080  0.2176 -0.0444  0.0550
 1646BOLB   PO139482  20.056   9.373  15.173  0.3837  0.5064  0.0010
 1646BOLB   GL139483  20.149   9.018  15.010  0.0532 -0.0322 -0.1528
 1646BOLB   GL239484  20.057   8.886  15.261  0.2681  0.3995 -0.2231
 1646BOLB   C1A39485  20.378   8.733  14.791 -0.0444  0.0007  0.0939
 1646BOLB   C2A39486  20.398   8.595  14.478  0.2865 -0.0267  0.0828
 1646BOLB   C3A39487  20.602   8.204  14.267  0.0231  0.3251 -0.2220
 1646BOLB   C4A39488  20.657   7.907  13.955  0.2989  0.1096  0.0679
 1646BOLB   C1B39489  20.188   8.503  15.283 -0.2563 -0.2801 -0.3414
 1646BOLB   C2B39490  20.357   8.071  15.364 -0.0203  0.2549 -0.1814
 1646BOLB   C3B39491  20.575   7.765  15.681  0.0213 -0.0440 -0.1537
 1646BOLB   C4B39492  21.030   7.608  15.765  0.2685  0.1499 -0.2215
 1646BOLB   NC239493  20.401   5.723  13.034 -0.1291 -0.0843  0.2682
 1646BOLB   PO239494  20.545   6.016  12.798 -0.1917 -0.2801  0.0118
 1646BOLB   GL339495  20.476   6.312  13.051  0.2090 -0.1582 -0.0803
 1646BOLB   GL439496  20.689   6.229  13.233  0.0400 -0.1089  0.1194
 1646BOLB   C1C39497  20.330   6.578  13.466  0.0016  0.3162 -0.0823
 1646BOLB   C2C39498  20.225   6.744  13.811 -0.2456 -0.0150  0.0035
 1646BOLB   C3C39499  20.484   7.030  13.975 -0.0752  0.4003 -0.1648
 1646BOLB   C4C39500  20.643   7.500  13.789  0.2668  0.0199 -0.1584
 1646BOLB   C1D39501  20.843   6.732  13.141 -0.0634 -0.1752 -0.3650
 1646BOLB   C2D39502  21.107   7.088  13.304  0.0309 -0.2057 -0.0294
 1646BOLB   C3D39503  21.037   7.495  13.424 -0.0944  0.0721  0.1228
 1646BOLB   C4D39504  21.307   7.754  13.283  0.0802 -0.0185  0.0075
 1647BOLB   NC139505  10.948   5.007  12.235  0.0122  0.0450  0.2363
 1647BOLB   PO139506  11.084   4.965  11.835  0.1142  0.0371 -0.1294
 1647BOLB   GL139507  11.257   5.321  11.797 -0.0030  0.0687  0.0292
 1647BOLB   GL239508  11.450   5.399  12.096 -0.1773  0.1176 -0.1160
 1647BOLB   C1A39509  11.197   5.817  11.765 -0.2408 -0.0043  0.1307
 1647BOLB   C2A39510  10.995   6.187  11.452 -0.0685  0.1341  0.0683
 1647BOLB   C3A39511  10.914   6.579  11.392  0.1948 -0.0760  0.0259
 1647BOLB   C4A39512  10.548   6.873  11.285 -0.0412 -0.0626 -0.0503
 1647BOLB   C1B39513  11.803   5.512  12.006  0.3412  0.2522  0.0720
 1647BOLB   C2B39514  12.222   5.744  11.850  0.3776 -0.1249  0.2178
 1647BOLB   C3B39515  12.337   5.971  11.589 -0.3792  0.1255  0.0916
 1647BOLB   C4B39516  12.775   5.971  11.525  0.2382 -0.6256 -0.0734
 1647BOLB   NC239517   9.926   6.285   9.314 -0.1278 -0.0993 -0.1118
 1647BOLB   PO239518   9.605   6.346   9.600  0.0964 -0.1634 -0.0209
 1647BOLB   GL339519   9.748   6.788   9.735 -0.0215 -0.2008  0.2619
 1647BOLB   GL439520   9.576   7.072   9.867  0.3174  0.0524  0.2450
 1647BOLB   C1C39521   9.980   6.916  10.215 -0.0436 -0.2992  0.1529
 1647BOLB   C2C39522  10.337   7.161  10.272 -0.0743  0.0856 -0.0961
 1647BOLB   C3C39523  10.402   7.328  10.728 -0.2817 -0.1165 -0.1634
 1647BOLB   C4C39524  10.333   7.090  11.112  0.0854  0.0612 -0.0450
 1647BOLB   C1D39525   9.596   7.322  10.150  0.2939  0.0368 -0.0270
 1647BOLB   C2D39526   9.725   7.305  10.500 -0.0369 -0.1062 -0.3661
 1647BOLB   C3D39527   9.508   7.493  10.928  0.1605  0.1072 -0.2381
 1647BOLB   C4D39528   9.355   7.949  10.990 -0.1328 -0.2676  0.0315
 1648BOLB   NC139529  14.942   5.802  16.091 -0.2765  0.0184  0.1407
 1648BOLB   PO139530  15.278   6.118  16.344  0.0621 -0.3149  0.0250
 1648BOLB   GL139531  15.534   5.836  16.465 -0.1144 -0.2409 -0.3287
 1648BOLB   GL239532  15.466   5.515  16.416  0.0131  0.1519 -0.0270
 1648BOLB   C1A39533  15.943   5.925  16.643  0.1801  0.0885 -0.1322
 1648BOLB   C2A39534  16.266   5.513  16.584  0.0943  0.3351  0.0555
 1648BOLB   C3A39535  16.633   5.457  16.299 -0.2162  0.3276 -0.3467
 1648BOLB   C4A39536  16.797   5.395  15.915  0.0510  0.2696  0.0375
 1648BOLB   C1B39537  15.878   5.549  16.217  0.1127 -0.0106  0.0650
 1648BOLB   C2B39538  15.931   5.540  15.766  0.3019 -0.0923 -0.3074
 1648BOLB   C3B39539  16.119   5.374  15.484  0.1977 -0.1124  0.1774
 1648BOLB   C4B39540  16.562   5.163  15.462 -0.0257 -0.2796  0.2461
 1648BOLB   NC239541  18.705   3.696  16.133  0.4038 -0.0640  0.2097
 1648BOLB   PO239542  18.650   3.729  15.629  0.1168  0.1336 -0.0854
 1648BOLB   GL339543  18.242   3.971  15.631 -0.0583  0.1910  0.1005
 1648BOLB   GL439544  18.378   4.129  15.853 -0.0315  0.1386 -0.1290
 1648BOLB   C1C39545  17.860   4.269  15.546 -0.2095 -0.0393 -0.0151
 1648BOLB   C2C39546  17.751   4.735  15.695 -0.0743  0.0940 -0.0672
 1648BOLB   C3C39547  17.442   5.062  15.523 -0.2131  0.0344  0.1304
 1648BOLB   C4C39548  17.060   5.289  15.638  0.1908  0.0832 -0.0414
 1648BOLB   C1D39549  18.237   4.487  15.816  0.0638  0.1785 -0.0836
 1648BOLB   C2D39550  18.214   4.846  16.088 -0.3140  0.3300  0.3752
 1648BOLB   C3D39551  17.774   4.911  16.317  0.2839  0.0383  0.1019
 1648BOLB   C4D39552  17.588   5.323  16.472  0.1190 -0.0823 -0.3192
 1649BOLB   NC139553  19.886   9.716  15.999  0.0007  0.5105  0.1206
 1649BOLB   PO139554  20.309   9.776  16.148  0.1890  0.0262 -0.2112
 1649BOLB   GL139555  20.413   9.373  16.022 -0.1972 -0.2418  0.0738
 1649BOLB   GL239556  20.510   9.193  16.254 -0.2192  0.3717 -0.1654
 1649BOLB   C1A39557  20.720   9.028  15.831  0.1161 -0.1324  0.1720
 1649BOLB   C2A39558  20.948   8.666  15.961 -0.0223 -0.1008 -0.1528
 1649BOLB   C3A39559  21.266   8.352  15.832  0.0614  0.2922  0.4804
 1649BOLB   C4A39560  21.084   7.998  15.509 -0.2056 -0.2024  0.1010
 1649BOLB   C1B39561  20.536   8.743  16.225  0.1420  0.1973  0.0645
 1649BOLB   C2B39562  20.745   8.376  16.335  0.2117  0.2506  0.2767
 1649BOLB   C3B39563  20.962   7.933  16.534  0.0084 -0.1774  0.1297
 1649BOLB   C4B39564  21.050   7.533  16.271 -0.1660  0.0774  0.2521
 1649BOLB   NC239565  22.603   6.648  14.761  0.1379 -0.1581  0.2164
 1649BOLB   PO239566  22.503   6.393  15.097 -0.1942  0.2254 -0.2613
 1649BOLB   GL339567  22.120   6.651  15.166  0.0247  0.0177  0.2075
 1649BOLB   GL439568  22.079   6.634  15.509  0.1177 -0.1494 -0.0337
 1649BOLB   C1C39569  21.719   6.784  15.207 -0.0944 -0.2776  0.0368
 1649BOLB   C2C39570  21.353   6.976  15.335  0.1165 -0.2746 -0.0080
 1649BOLB   C3C39571  21.105   7.229  15.473  0.0081 -0.2787 -0.2792
 1649BOLB   C4C39572  21.048   7.536  15.284  0.2539  0.0452  0.2857
 1649BOLB   C1D39573  22.154   6.953  15.891 -0.1789 -0.0429 -0.2647
 1649BOLB   C2D39574  21.941   7.270  16.057  0.1697 -0.4863 -0.1104
 1649BOLB   C3D39575  21.412   7.163  16.155  0.0969 -0.0436  0.3983
 1649BOLB   C4D39576  21.064   7.097  15.957  0.1882  0.0421 -0.1672
 1650BOLB   NC139577  16.613   7.203  16.109  0.0694 -0.0238  0.2524
 1650BOLB   PO139578  16.614   7.485  15.770  0.0777 -0.0628  0.0724
 1650BOLB   GL139579  16.899   7.133  15.707 -0.3896 -0.1960 -0.2488
 1650BOLB   GL239580  16.916   6.855  15.951  0.0215 -0.3561 -0.2563
 1650BOLB   C1A39581  17.179   6.921  15.531  0.0970  0.2236 -0.0648
 1650BOLB   C2A39582  17.504   6.659  15.410  0.0643  0.2094 -0.0461
 1650BOLB   C3A39583  17.765   6.470  15.177  0.2347 -0.1835 -0.2309
 1650BOLB   C4A39584  18.117   6.172  14.987  0.0067  0.4490 -0.3437
 1650BOLB   C1B39585  17.224   6.601  16.014  0.0284  0.1971  0.0970
 1650BOLB   C2B39586  17.393   6.180  16.120  0.0051  0.1319  0.2212
 1650BOLB   C3B39587  17.617   5.855  16.014  0.2339 -0.3317 -0.0178
 1650BOLB   C4B39588  18.041   5.695  15.829  0.1089 -0.0628 -0.0824
 1650BOLB   NC239589  19.826   4.336  15.074 -0.0964  0.3307  0.0376
 1650BOLB   PO239590  19.605   4.036  15.325  0.0085  0.1074  0.2603
 1650BOLB   GL339591  19.238   4.358  15.460  0.0007 -0.0241  0.1779
 1650BOLB   GL439592  19.265   4.513  15.748 -0.1032 -0.2137 -0.1942
 1650BOLB   C1C39593  18.819   4.601  15.363  0.0108 -0.0892 -0.4280
 1650BOLB   C2C39594  18.806   5.054  15.266 -0.0815 -0.3262  0.1251
 1650BOLB   C3C39595  18.503   5.437  15.382 -0.0908 -0.3993 -0.1697
 1650BOLB   C4C39596  18.401   5.860  15.240 -0.2496 -0.3110  0.2007
 1650BOLB   C1D39597  19.251   4.901  15.579  0.1843  0.1472  0.0562
 1650BOLB   C2D39598  19.138   5.347  15.545  0.2740 -0.1697  0.2560
 1650BOLB   C3D39599  19.328   5.702  15.453 -0.1560  0.0526  0.2840
 1650BOLB   C4D39600  19.736   5.830  15.341 -0.1439 -0.1802  0.2946
 1651BOLB   NC139601  14.867   4.891  17.454  0.2589  0.0055 -0.0191
 1651BOLB   PO139602  14.883   4.501  17.160  0.0426 -0.3070  0.2463
 1651BOLB   GL139603  15.358   4.460  16.811  0.1189 -0.2190 -0.3051
 1651BOLB   GL239604  15.621   4.167  16.823  0.4407 -0.1206 -0.0433
 1651BOLB   C1A39605  15.777   4.668  16.698  0.1198 -0.1055  0.0836
 1651BOLB   C2A39606  16.130   4.442  16.625 -0.1138  0.2158 -0.1350
 1651BOLB   C3A39607  16.482   4.533  16.479  0.0535 -0.0599  0.3343
 1651BOLB   C4A39608  16.775   4.545  16.141 -0.1352  0.0809 -0.2763
 1651BOLB   C1B39609  15.653   4.390  17.189 -0.1990  0.0691 -0.1790
 1651BOLB   C2B39610  15.696   4.719  17.473  0.1850  0.4618 -0.1925
 1651BOLB   C3B39611  15.643   5.178  17.788 -0.0039 -0.0537 -0.0281
 1651BOLB   C4B39612  15.309   5.027  18.153 -0.0649  0.1327  0.1441
 1651BOLB   NC239613  18.156   3.098  16.232 -0.2279 -0.1360  0.0509
 1651BOLB   PO239614  18.382   3.119  16.576 -0.0710  0.2662  0.1836
 1651BOLB   GL339615  18.278   3.567  16.419  0.1762  0.1312  0.4469
 1651BOLB   GL439616  18.386   3.904  16.494  0.1215  0.0585 -0.0474
 1651BOLB   C1C39617  18.054   3.891  16.099  0.2417  0.1520 -0.0159
 1651BOLB   C2C39618  17.948   4.316  16.151  0.0272 -0.0422 -0.0859
 1651BOLB   C3C39619  17.595   4.490  16.078 -0.2449  0.0222 -0.2042
 1651BOLB   C4C39620  17.195   4.546  16.227 -0.2767  0.0523  0.0445
 1651BOLB   C1D39621  18.065   4.043  16.562 -0.5139  0.3465 -0.1473
 1651BOLB   C2D39622  17.833   4.099  16.938 -0.0819 -0.2586 -0.0881
 1651BOLB   C3D39623  17.635   4.271  17.190 -0.3401  0.0515 -0.0797
 1651BOLB   C4D39624  17.657   4.484  17.558 -0.1158 -0.1000  0.3092
 1652BOLB   NC139625  16.505   8.111  15.436 -0.3047 -0.1881  0.3770
 1652BOLB   PO139626  16.643   7.745  15.167 -0.2595  0.5544  0.1730
 1652BOLB   GL139627  16.962   7.490  14.911  0.0452 -0.3440  0.0188
 1652BOLB   GL239628  17.332   7.613  14.843  0.1665 -0.0702 -0.2753
 1652BOLB   C1A39629  17.112   7.108  14.727 -0.2043 -0.3036 -0.2211
 1652BOLB   C2A39630  17.443   6.709  14.694  0.1782 -0.1694  0.1905
 1652BOLB   C3A39631  17.444   6.249  14.812  0.1565 -0.0391  0.0713
 1652BOLB   C4A39632  17.578   5.970  15.052 -0.0852  0.0867 -0.0319
 1652BOLB   C1B39633  17.779   7.451  14.887 -0.2818 -0.2325  0.3155
 1652BOLB   C2B39634  18.178   7.358  14.986  0.0588 -0.1475  0.2030
 1652BOLB   C3B39635  18.342   7.023  14.655  0.2934  0.0450  0.2776
 1652BOLB   C4B39636  18.486   6.790  14.332  0.2480 -0.0058  0.0487
 1652BOLB   NC239637  17.605   3.255  14.545  0.1755  0.0184  0.1365
 1652BOLB   PO239638  17.747   3.636  14.571 -0.0445  0.0179 -0.0665
 1652BOLB   GL339639  17.814   3.999  14.848 -0.0671 -0.0281  0.1339
 1652BOLB   GL439640  18.022   4.102  15.083 -0.5178  0.1809  0.2006
 1652BOLB   C1C39641  17.986   4.553  14.887 -0.1953 -0.4236 -0.1752
 1652BOLB   C2C39642  17.794   4.818  15.158 -0.0783 -0.2528  0.1671
 1652BOLB   C3C39643  17.627   5.141  14.978  0.1327  0.0495 -0.1347
 1652BOLB   C4C39644  17.566   5.567  14.953 -0.0007  0.0152 -0.0935
 1652BOLB   C1D39645  17.654   4.361  15.121  0.2530 -0.3047 -0.2041
 1652BOLB   C2D39646  17.305   4.609  15.110 -0.1678 -0.1778 -0.1152
 1652BOLB   C3D39647  17.204   4.954  14.882  0.3404 -0.0075  0.0004
 1652BOLB   C4D39648  17.156   5.342  14.688  0.0303 -0.1958 -0.2909
 1653BOLB   NC139649  17.198   7.716  16.622  0.0825  0.2428  0.1377
 1653BOLB   PO139650  17.227   7.300  16.664  0.2913  0.3542  0.1198
 1653BOLB   GL139651  17.491   6.936  16.585 -0.1897  0.1858 -0.0584
 1653BOLB   GL239652  17.346   6.606  16.704  0.0225  0.1455 -0.0341
 1653BOLB   C1A39653  17.740   6.680  16.370  0.3570 -0.2151  0.1206
 1653BOLB   C2A39654  17.848   6.302  16.224 -0.1339  0.1472  0.1861
 1653BOLB   C3A39655  18.156   6.152  16.019 -0.1196  0.0237 -0.0637
 1653BOLB   C4A39656  18.499   5.942  15.777  0.1883 -0.0505  0.1286
 1653BOLB   C1B39657  17.494   6.236  16.712  0.0259  0.0555 -0.2034
 1653BOLB   C2B39658  17.753   5.978  16.566 -0.0403 -0.0662  0.0095
 1653BOLB   C3B39659  17.963   5.699  16.304  0.1692  0.0770 -0.2414
 1653BOLB   C4B39660  18.071   5.316  16.254 -0.1213  0.3369 -0.2253
 1653BOLB   NC239661  19.980   4.215  15.590  0.0074  0.1075 -0.0048
 1653BOLB   PO239662  19.676   4.257  15.892 -0.3261  0.0565 -0.0015
 1653BOLB   GL339663  19.672   4.569  16.188 -0.0292 -0.0900 -0.0744
 1653BOLB   GL439664  19.723   4.845  16.344 -0.0063 -0.0166  0.2549
 1653BOLB   C1C39665  19.220   4.828  16.204  0.0736  0.3989  0.2290
 1653BOLB   C2C39666  19.086   5.199  16.094 -0.1339 -0.0823  0.0410
 1653BOLB   C3C39667  19.079   5.613  15.991  0.0544 -0.1660 -0.1235
 1653BOLB   C4C39668  18.794   5.671  15.697 -0.0864 -0.2984  0.2315
 1653BOLB   C1D39669  19.505   5.216  16.454 -0.1267 -0.0145 -0.0076
 1653BOLB   C2D39670  19.416   5.587  16.327 -0.0116 -0.3945  0.0163
 1653BOLB   C3D39671  19.697   5.938  16.237 -0.0829  0.0568 -0.3218
 1653BOLB   C4D39672  19.620   6.345  16.394  0.2866  0.3975 -0.0824
 1654BOLB   NC139673  14.374   6.423  15.799  0.0036  0.0773  0.1067
 1654BOLB   PO139674  14.224   6.199  15.427  0.1878  0.0600  0.0996
 1654BOLB   GL139675  14.146   6.003  15.045  0.0382  0.5239 -0.3227
 1654BOLB   GL239676  14.047   5.647  15.119 -0.0847  0.1542 -0.1257
 1654BOLB   C1A39677  14.510   5.906  14.732  0.0864  0.1825  0.2090
 1654BOLB   C2A39678  14.759   6.079  14.493  0.0203  0.1229  0.2796
 1654BOLB   C3A39679  14.969   6.008  14.102  0.0004 -0.0390 -0.1668
 1654BOLB   C4A39680  15.226   5.611  13.860 -0.1612 -0.4526  0.1019
 1654BOLB   C1B39681  14.542   5.498  15.006 -0.4865  0.3861 -0.1188
 1654BOLB   C2B39682  14.987   5.282  15.028  0.1570 -0.4837 -0.0320
 1654BOLB   C3B39683  15.383   5.369  15.075  0.3807  0.0112  0.2385
 1654BOLB   C4B39684  15.727   5.154  14.989 -0.1417  0.0105 -0.1257
 1654BOLB   NC239685  16.345   3.640  12.095  0.0623 -0.0239  0.0600
 1654BOLB   PO239686  16.544   3.798  12.498 -0.1509 -0.0926  0.0617
 1654BOLB   GL339687  16.325   4.178  12.732 -0.0413 -0.0951 -0.0482
 1654BOLB   GL439688  16.111   3.955  12.984  0.0906  0.1840  0.1587
 1654BOLB   C1C39689  16.285   4.527  12.980 -0.0745 -0.1087 -0.2937
 1654BOLB   C2C39690  16.217   4.893  13.245  0.2155 -0.0688  0.0437
 1654BOLB   C3C39691  15.860   5.122  13.367 -0.1609 -0.1922 -0.1521
 1654BOLB   C4C39692  15.502   5.341  13.649  0.1083 -0.1320 -0.1865
 1654BOLB   C1D39693  15.815   3.886  13.291 -0.2527  0.1723 -0.1683
 1654BOLB   C2D39694  15.595   3.997  13.520  0.1695 -0.1640 -0.2242
 1654BOLB   C3D39695  15.205   4.085  13.728  0.0703 -0.1230 -0.0322
 1654BOLB   C4D39696  14.814   4.168  13.649 -0.2815 -0.3514  0.2311
 1655BOLB   NC139697  17.566   7.473  16.955 -0.1812  0.0103 -0.5054
 1655BOLB   PO139698  17.622   7.883  16.786  0.0593 -0.3198  0.1258
 1655BOLB   GL139699  18.061   7.657  16.883  0.5440  0.2562  0.0577
 1655BOLB   GL239700  18.248   7.597  16.657 -0.1828  0.1225 -0.1401
 1655BOLB   C1A39701  18.446   7.451  17.051 -0.0791  0.1284  0.0410
 1655BOLB   C2A39702  18.675   7.115  17.101 -0.0140  0.0824  0.0765
 1655BOLB   C3A39703  18.925   6.792  17.068  0.0714 -0.0872 -0.0988
 1655BOLB   C4A39704  19.273   6.739  16.843 -0.2176  0.3234  0.2558
 1655BOLB   C1B39705  18.392   7.251  16.317 -0.3218  0.1382 -0.3546
 1655BOLB   C2B39706  18.682   7.081  16.032 -0.0540 -0.4799  0.1678
 1655BOLB   C3B39707  18.966   6.800  15.915  0.0504  0.0317 -0.0990
 1655BOLB   C4B39708  19.150   6.482  15.995  0.3923 -0.2110 -0.0811
 1655BOLB   NC239709  21.347   5.069  16.383  0.3730  0.2005 -0.1338
 1655BOLB   PO239710  21.259   5.499  16.173 -0.1020 -0.1067  0.0258
 1655BOLB   GL339711  20.860   5.643  16.269 -0.0978  0.2786  0.1339
 1655BOLB   GL439712  20.672   5.343  16.199  0.1204 -0.3764 -0.1153
 1655BOLB   C1C39713  20.596   5.828  16.658  0.1487 -0.2317 -0.3818
 1655BOLB   C2C39714  20.183   5.971  16.583 -0.1187  0.2916 -0.1426
 1655BOLB   C3C39715  19.974   6.377  16.720 -0.0165 -0.1080  0.0635
 1655BOLB   C4C39716  19.631   6.664  16.728 -0.1233  0.1105  0.1358
 1655BOLB   C1D39717  20.370   5.564  16.301 -0.0981 -0.0823 -0.0948
 1655BOLB   C2D39718  20.076   5.754  16.035 -0.4157 -0.1126 -0.1939
 1655BOLB   C3D39719  19.815   5.996  15.799  0.0722 -0.1766  0.2943
 1655BOLB   C4D39720  19.356   6.015  15.884 -0.1948  0.3137 -0.3621
 1656BOLB   NC139721  16.845   8.584  14.515  0.0053 -0.0652  0.2144
 1656BOLB   PO139722  16.952   8.174  14.573 -0.1056 -0.2477  0.0252
 1656BOLB   GL139723  17.096   7.758  14.419  0.0734 -0.1398 -0.0313
 1656BOLB   GL239724  17.253   7.897  14.143 -0.3339 -0.0663 -0.1784
 1656BOLB   C1A39725  17.167   7.399  14.329 -0.3356 -0.2407  0.0375
 1656BOLB   C2A39726  17.372   7.070  14.129  0.1231 -0.0948 -0.1221
 1656BOLB   C3A39727  17.443   6.662  14.176 -0.0808  0.2096  0.0855
 1656BOLB   C4A39728  17.636   6.296  14.323  0.0623 -0.2232 -0.0041
 1656BOLB   C1B39729  17.417   7.611  13.966  0.4229  0.1243 -0.0037
 1656BOLB   C2B39730  17.765   7.479  13.953 -0.2975  0.0217  0.1139
 1656BOLB   C3B39731  18.060   7.489  13.675  0.0442 -0.0551  0.1208
 1656BOLB   C4B39732  18.329   7.255  13.456 -0.2330  0.0754  0.1135
 1656BOLB   NC239733  18.938   3.871  14.821  0.0166  0.0889 -0.2008
 1656BOLB   PO239734  18.978   4.360  14.736 -0.1164 -0.1349  0.2303
 1656BOLB   GL339735  18.990   4.788  14.647 -0.0346  0.0109 -0.0189
 1656BOLB   GL439736  19.128   4.864  14.354  0.3726  0.1851  0.0920
 1656BOLB   C1C39737  18.829   5.165  14.687  0.0127 -0.0263  0.0296
 1656BOLB   C2C39738  18.527   5.472  14.851 -0.1932 -0.0651 -0.0691
 1656BOLB   C3C39739  18.127   5.693  14.742 -0.1902  0.0094  0.3149
 1656BOLB   C4C39740  17.796   5.989  14.601  0.2780 -0.2045  0.1083
 1656BOLB   C1D39741  19.197   5.297  14.389 -0.0755 -0.1849 -0.2683
 1656BOLB   C2D39742  19.068   5.769  14.352 -0.3812 -0.0221 -0.1606
 1656BOLB   C3D39743  18.792   5.823  14.643  0.0821  0.0124  0.0891
 1656BOLB   C4D39744  18.441   6.052  14.600 -0.2735 -0.1403  0.2179
 1657BOLB   NC139745  13.189   8.136  12.932  0.3567 -0.4801 -0.1010
 1657BOLB   PO139746  12.754   8.207  12.780 -0.0663  0.0096  0.1494
 1657BOLB   GL139747  12.820   8.006  12.384 -0.0203 -0.2382  0.0381
 1657BOLB   GL239748  13.243   8.159  12.363 -0.5874  0.1011 -0.0985
 1657BOLB   C1A39749  13.084   7.770  12.119  0.1076 -0.1851  0.0677
 1657BOLB   C2A39750  13.382   7.778  11.821 -0.2567 -0.1693 -0.2085
 1657BOLB   C3A39751  13.482   7.489  11.488 -0.0446 -0.1031  0.1761
 1657BOLB   C4A39752  13.577   7.498  11.078  0.1777  0.1453 -0.3681
 1657BOLB   C1B39753  13.697   8.118  12.243  0.2066  0.4600  0.1997
 1657BOLB   C2B39754  13.934   8.046  11.906  0.2189  0.1127 -0.4981
 1657BOLB   C3B39755  13.966   7.687  11.611 -0.2170 -0.1990  0.2555
 1657BOLB   C4B39756  14.187   7.825  11.193  0.0733 -0.1249 -0.0880
 1657BOLB   NC239757  14.239   6.750   9.153 -0.4096 -0.0869  0.1095
 1657BOLB   PO239758  14.369   6.308   9.354 -0.0716  0.2704  0.1352
 1657BOLB   GL339759  14.076   6.542   9.589  0.2305  0.0410 -0.4875
 1657BOLB   GL439760  13.982   6.898   9.590  0.0746  0.2596 -0.1672
 1657BOLB   C1C39761  14.123   6.792  10.021  0.1975 -0.0758 -0.0485
 1657BOLB   C2C39762  14.339   7.225  10.028  0.1159 -0.0915  0.1763
 1657BOLB   C3C39763  14.157   7.432  10.356  0.0523  0.0316  0.3766
 1657BOLB   C4C39764  13.863   7.551  10.624 -0.1991 -0.0061  0.1667
 1657BOLB   C1D39765  14.055   7.315   9.597 -0.0829  0.0337 -0.0137
 1657BOLB   C2D39766  14.031   7.679   9.474  0.2346 -0.1092 -0.2056
 1657BOLB   C3D39767  14.120   8.099   9.665  0.0319  0.1459  0.1416
 1657BOLB   C4D39768  14.565   8.123   9.562 -0.0179 -0.3114 -0.0321
 1658BOLB   NC139769  15.585   7.933  13.912  0.1419  0.2720 -0.1033
 1658BOLB   PO139770  16.006   8.139  14.100  0.0050  0.2027  0.3304
 1658BOLB   GL139771  16.398   8.037  14.036  0.0452  0.0087  0.0816
 1658BOLB   GL239772  16.521   7.918  14.118 -0.0988 -0.2379  0.4309
 1658BOLB   C1A39773  16.538   7.647  13.720  0.3558  0.4039  0.1568
 1658BOLB   C2A39774  16.491   7.251  13.602  0.1272  0.5206 -0.0293
 1658BOLB   C3A39775  16.735   7.028  13.417 -0.0101  0.0280  0.0386
 1658BOLB   C4A39776  16.689   6.973  12.904 -0.4008 -0.0103 -0.3929
 1658BOLB   C1B39777  16.704   7.558  14.162 -0.0494 -0.1736 -0.0267
 1658BOLB   C2B39778  16.840   7.242  13.951  0.1753  0.0039  0.2553
 1658BOLB   C3B39779  17.021   6.862  13.780  0.1914  0.1432  0.0584
 1658BOLB   C4B39780  17.216   6.757  13.369  0.2196 -0.0340 -0.1596
 1658BOLB   NC239781  18.119   6.306  10.728  0.0648 -0.2588 -0.3180
 1658BOLB   PO239782  17.686   6.129  10.766  0.0004 -0.1691 -0.5107
 1658BOLB   GL339783  17.466   6.203  11.163 -0.2482  0.1268  0.1090
 1658BOLB   GL439784  17.565   6.279  11.434  0.0759 -0.0407  0.0793
 1658BOLB   C1C39785  17.015   6.340  11.381 -0.0124  0.2028  0.3246
 1658BOLB   C2C39786  16.788   6.325  11.753 -0.1518 -0.3439  0.0780
 1658BOLB   C3C39787  16.727   6.549  12.177 -0.2160  0.3812  0.1102
 1658BOLB   C4C39788  16.612   6.699  12.616 -0.1687 -0.3599  0.0931
 1658BOLB   C1D39789  17.330   6.702  11.195 -0.1125 -0.0940  0.3724
 1658BOLB   C2D39790  17.140   7.126  11.168  0.1148  0.0155  0.5344
 1658BOLB   C3D39791  16.925   7.352  11.250 -0.1865 -0.0718 -0.0334
 1658BOLB   C4D39792  16.542   7.400  11.316  0.2297 -0.3540  0.1034
 1659BOLB   NC139793  12.989   3.547  11.794  0.0749  0.0177  0.1676
 1659BOLB   PO139794  13.233   3.733  12.004 -0.3139 -0.4593 -0.3447
 1659BOLB   GL139795  13.132   4.089  12.201  0.0455  0.1841  0.0894
 1659BOLB   GL239796  13.410   4.058  12.414  0.2998  0.1498  0.1962
 1659BOLB   C1A39797  13.180   4.472  12.194  0.3166  0.1049 -0.1613
 1659BOLB   C2A39798  13.223   4.864  12.418 -0.2225  0.1049  0.3316
 1659BOLB   C3A39799  13.612   5.129  12.447 -0.1459 -0.4641  0.2029
 1659BOLB   C4A39800  14.004   5.331  12.623 -0.1149  0.4135 -0.0056
 1659BOLB   C1B39801  13.343   4.449  12.728  0.0019 -0.0818  0.1275
 1659BOLB   C2B39802  13.369   4.818  13.010 -0.3121  0.2481  0.1232
 1659BOLB   C3B39803  13.627   5.147  12.956  0.2341  0.0289  0.0672
 1659BOLB   C4B39804  13.941   5.439  13.111  0.1330 -0.3129  0.0458
 1659BOLB   NC239805  14.406   3.403  12.938 -0.0382 -0.2721 -0.0917
 1659BOLB   PO239806  14.770   3.253  13.137  0.0312 -0.1175  0.0590
 1659BOLB   GL339807  14.578   3.559  13.390 -0.1696 -0.2197 -0.0406
 1659BOLB   GL439808  14.565   3.598  13.784 -0.2793 -0.1999 -0.3447
 1659BOLB   C1C39809  14.492   3.942  13.379  0.0827 -0.1619 -0.1140
 1659BOLB   C2C39810  14.271   4.310  13.213  0.1111 -0.2037 -0.1509
 1659BOLB   C3C39811  14.339   4.598  12.874  0.0991 -0.1009 -0.2056
 1659BOLB   C4C39812  14.361   5.173  12.779 -0.1241  0.1736  0.0269
 1659BOLB   C1D39813  14.962   3.723  13.564  0.0891 -0.2087  0.0534
 1659BOLB   C2D39814  15.120   4.028  13.200  0.1576  0.4477  0.2420
 1659BOLB   C3D39815  15.495   4.191  12.975  0.0202  0.0523 -0.0063
 1659BOLB   C4D39816  15.678   4.637  13.162 -0.0462  0.0866 -0.0729
 1660BOLB   NC139817  15.058   3.303  17.773  0.0539  0.1694  0.0913
 1660BOLB   PO139818  15.175   3.715  17.805 -0.1638 -0.1178  0.2191
 1660BOLB   GL139819  15.546   3.901  17.683 -0.3113  0.0692  0.1601
 1660BOLB   GL239820  15.720   4.231  17.714  0.2295  0.2726  0.4313
 1660BOLB   C1A39821  15.837   3.927  17.320  0.0200 -0.0066  0.1519
 1660BOLB   C2A39822  16.011   3.764  17.045 -0.1831  0.1277 -0.2436
 1660BOLB   C3A39823  16.214   3.897  16.598 -0.1356  0.0487  0.1259
 1660BOLB   C4A39824  16.416   3.924  16.221 -0.0075 -0.0611  0.1308
 1660BOLB   C1B39825  16.144   4.264  17.575  0.3203  0.1609 -0.0350
 1660BOLB   C2B39826  16.613   4.054  17.523 -0.0595 -0.2832  0.1064
 1660BOLB   C3B39827  16.896   3.851  17.547 -0.0824  0.1605 -0.0483
 1660BOLB   C4B39828  17.111   3.433  17.761 -0.1979  0.1232  0.0389
 1660BOLB   NC239829  17.439   2.274  14.933  0.1865 -0.1253  0.1759
 1660BOLB   PO239830  17.216   2.599  15.278  0.0460  0.0191  0.2346
 1660BOLB   GL339831  17.178   3.034  15.223  0.0447 -0.2076  0.0612
 1660BOLB   GL439832  16.920   3.000  15.413  0.1796  0.0641  0.1133
 1660BOLB   C1C39833  17.234   3.451  15.523 -0.2613  0.1324 -0.1983
 1660BOLB   C2C39834  17.098   3.740  15.680  0.0346 -0.0551 -0.0084
 1660BOLB   C3C39835  17.047   4.208  15.842 -0.0561  0.0132 -0.0010
 1660BOLB   C4C39836  16.632   4.097  15.918  0.0521 -0.4022  0.2103
 1660BOLB   C1D39837  16.933   3.207  15.827  0.0376  0.0582 -0.1456
 1660BOLB   C2D39838  17.052   3.268  16.353 -0.1645 -0.0481  0.1210
 1660BOLB   C3D39839  16.897   3.617  16.716 -0.1101  0.1324 -0.0398
 1660BOLB   C4D39840  16.918   4.043  17.098  0.0372 -0.1184 -0.2080
 1661BOLB   NC139841  16.956   7.010  16.964  0.3717  0.2263 -0.0574
 1661BOLB   PO139842  16.743   6.586  16.816  0.0889 -0.1612 -0.4092
 1661BOLB   GL139843  16.994   6.470  17.055  0.1171  0.0429  0.0128
 1661BOLB   GL239844  16.941   6.104  17.030  0.0629 -0.1909  0.0924
 1661BOLB   C1A39845  17.438   6.519  17.150 -0.3551 -0.0024  0.0419
 1661BOLB   C2A39846  17.800   6.591  16.897 -0.1756 -0.1072  0.1211
 1661BOLB   C3A39847  18.045   6.373  16.712  0.0681  0.1623  0.1563
 1661BOLB   C4A39848  18.339   6.005  16.479  0.0221  0.0544 -0.4058
 1661BOLB   C1B39849  17.289   6.022  17.181 -0.2217 -0.0865 -0.0063
 1661BOLB   C2B39850  17.569   5.800  17.010  0.4561  0.1135 -0.2462
 1661BOLB   C3B39851  17.971   5.592  16.875 -0.1132 -0.0004  0.0156
 1661BOLB   C4B39852  18.346   5.558  16.667  0.2697  0.1893 -0.0990
 1661BOLB   NC239853  19.200   3.855  15.450  0.1615 -0.3580 -0.1606
 1661BOLB   PO239854  19.219   3.963  15.843  0.2880  0.1386  0.0221
 1661BOLB   GL339855  18.844   4.207  15.802 -0.1186 -0.0188  0.0860
 1661BOLB   GL439856  18.760   4.226  16.135 -0.3325  0.0577  0.1116
 1661BOLB   C1C39857  18.708   4.653  16.008 -0.0056 -0.1040 -0.0161
 1661BOLB   C2C39858  18.698   4.987  15.760 -0.0455 -0.3925  0.4067
 1661BOLB   C3C39859  18.512   5.338  15.875  0.1206 -0.1678  0.1502
 1661BOLB   C4C39860  18.438   5.665  16.199  0.1552  0.1101 -0.0230
 1661BOLB   C1D39861  18.480   4.398  16.398 -0.3745  0.0605 -0.3039
 1661BOLB   C2D39862  18.568   4.439  16.735 -0.1707  0.0942  0.1638
 1661BOLB   C3D39863  18.366   4.181  16.966  0.0519 -0.0670  0.0036
 1661BOLB   C4D39864  18.235   3.785  16.993  0.4224 -0.0310 -0.0332
 1662BOLB   NC139865  20.854  10.410  15.129  0.2877  0.1319  0.2890
 1662BOLB   PO139866  20.518  10.397  14.706  0.3968  0.0895 -0.0776
 1662BOLB   GL139867  20.644  10.024  14.504  0.0758  0.1192  0.1730
 1662BOLB   GL239868  20.869   9.967  14.263  0.1786 -0.2948  0.0049
 1662BOLB   C1A39869  20.797   9.611  14.594 -0.0082 -0.3757  0.1043
 1662BOLB   C2A39870  21.167   9.352  14.693 -0.1098  0.0454  0.4536
 1662BOLB   C3A39871  21.405   9.253  15.023 -0.0120  0.0357 -0.0068
 1662BOLB   C4A39872  21.648   9.041  15.166  0.1232  0.0464 -0.2306
 1662BOLB   C1B39873  21.190   9.645  14.170 -0.1308  0.2659 -0.1930
 1662BOLB   C2B39874  21.507   9.434  14.199 -0.0931 -0.2379  0.0178
 1662BOLB   C3B39875  21.435   8.938  14.228  0.0471 -0.0394  0.0022
 1662BOLB   C4B39876  21.423   8.608  14.278 -0.2472  0.0601  0.1450
 1662BOLB   NC239877  22.188   6.570  13.952 -0.0580  0.0187 -0.0607
 1662BOLB   PO239878  22.305   6.830  14.322  0.1475 -0.1936 -0.2122
 1662BOLB   GL339879  22.454   7.122  14.606 -0.1226 -0.1304  0.3412
 1662BOLB   GL439880  22.509   7.407  14.409  0.2127 -0.0005 -0.2232
 1662BOLB   C1C39881  22.310   7.544  14.860  0.0094  0.0808 -0.0107
 1662BOLB   C2C39882  22.169   7.833  15.099  0.3719  0.3444  0.0866
 1662BOLB   C3C39883  21.920   8.208  15.159  0.1340 -0.3319  0.0592
 1662BOLB   C4C39884  21.911   8.729  15.133  0.1287  0.0776 -0.1532
 1662BOLB   C1D39885  22.165   7.644  14.223  0.2122  0.2450  0.4400
 1662BOLB   C2D39886  21.733   7.756  14.184 -0.2278 -0.0670  0.0336
 1662BOLB   C3D39887  21.349   7.653  14.357 -0.3220  0.0210 -0.3997
 1662BOLB   C4D39888  20.968   7.614  14.309  0.1423 -0.1266 -0.1578
 1663BOLB   NC139889  14.720   8.398  13.760  0.1363 -0.0595 -0.2567
 1663BOLB   PO139890  14.316   8.141  13.691 -0.0078  0.2365  0.0487
 1663BOLB   GL139891  14.237   8.118  13.290  0.2618  0.0677 -0.3327
 1663BOLB   GL239892  14.623   8.015  13.030 -0.0171  0.1482  0.1073
 1663BOLB   C1A39893  14.117   7.907  12.947 -0.1030  0.0624 -0.3114
 1663BOLB   C2A39894  14.070   7.909  12.487 -0.0253  0.2964 -0.1188
 1663BOLB   C3A39895  14.193   7.585  12.105 -0.2222 -0.3718 -0.1345
 1663BOLB   C4A39896  14.385   7.372  11.686 -0.0967  0.4909 -0.3077
 1663BOLB   C1B39897  14.936   7.647  12.906 -0.2493  0.2286 -0.0827
 1663BOLB   C2B39898  15.362   7.596  12.775 -0.0109  0.1404  0.0025
 1663BOLB   C3B39899  15.621   7.757  12.471 -0.0111 -0.1174 -0.0284
 1663BOLB   C4B39900  15.667   7.843  12.135 -0.1717 -0.0913  0.1327
 1663BOLB   NC239901  15.674   6.037  10.076  0.0776 -0.0939 -0.1765
 1663BOLB   PO239902  15.405   6.250   9.821 -0.2072  0.0511  0.2530
 1663BOLB   GL339903  15.235   6.446  10.001 -0.0733  0.2091  0.1525
 1663BOLB   GL439904  14.989   6.501  10.162 -0.0433 -0.0163  0.2602
 1663BOLB   C1C39905  15.241   6.797  10.447 -0.0297  0.1990 -0.0619
 1663BOLB   C2C39906  14.917   6.892  10.775 -0.1623  0.2235  0.0679
 1663BOLB   C3C39907  14.665   6.794  11.096 -0.0781  0.1731 -0.3430
 1663BOLB   C4C39908  14.337   6.995  11.432 -0.1782  0.1863 -0.0206
 1663BOLB   C1D39909  14.890   6.987  10.172  0.2076  0.0742 -0.0841
 1663BOLB   C2D39910  14.575   7.120  10.478 -0.0933  0.3763  0.0798
 1663BOLB   C3D39911  14.259   7.224  10.769  0.2004  0.0806 -0.0119
 1663BOLB   C4D39912  14.084   7.312  11.170 -0.3291 -0.0041  0.0805
 1664BOLB   NC139913  13.229   6.570  14.198  0.0948 -0.0635  0.2888
 1664BOLB   PO139914  12.954   6.271  13.989  0.0415 -0.4190  0.1352
 1664BOLB   GL139915  13.234   6.369  13.705  0.1686 -0.1997  0.2884
 1664BOLB   GL239916  13.549   6.373  13.837 -0.2392  0.0455 -0.1042
 1664BOLB   C1A39917  13.563   6.138  13.292 -0.1240 -0.3642  0.1652
 1664BOLB   C2A39918  13.919   5.966  13.230  0.0065  0.0779 -0.0055
 1664BOLB   C3A39919  14.288   5.735  13.331 -0.2909  0.0665 -0.2208
 1664BOLB   C4A39920  14.504   5.492  13.102 -0.0297 -0.1184  0.0823
 1664BOLB   C1B39921  13.830   6.039  13.769  0.1432  0.1262 -0.2862
 1664BOLB   C2B39922  14.116   5.757  13.928 -0.0676  0.0716 -0.2603
 1664BOLB   C3B39923  14.479   5.747  14.224  0.2572  0.0214 -0.0984
 1664BOLB   C4B39924  14.842   5.459  14.233  0.1733 -0.1768  0.0690
 1664BOLB   NC239925  14.927   3.556  11.443 -0.0913  0.3000 -0.0728
 1664BOLB   PO239926  15.043   3.628  11.946 -0.1855 -0.0481  0.2295
 1664BOLB   GL339927  14.893   4.014  12.066 -0.1562 -0.4251  0.2803
 1664BOLB   GL439928  14.882   4.140  12.247 -0.1377  0.2124 -0.1749
 1664BOLB   C1C39929  14.980   4.484  11.930 -0.0285 -0.0520  0.1026
 1664BOLB   C2C39930  15.066   4.910  12.145 -0.2196 -0.0415 -0.2468
 1664BOLB   C3C39931  15.207   5.162  12.515  0.2293 -0.4637 -0.0692
 1664BOLB   C4C39932  14.988   5.331  12.850  0.0212  0.1826  0.2201
 1664BOLB   C1D39933  14.991   4.487  12.489  0.0877 -0.3167 -0.3807
 1664BOLB   C2D39934  14.991   4.735  12.854  0.1052 -0.0550 -0.3268
 1664BOLB   C3D39935  14.798   4.960  13.164  0.0015  0.3674 -0.2210
 1664BOLB   C4D39936  14.999   5.249  13.477 -0.1442  0.1039  0.2195
 1665BOLB   NC139937  19.457   9.750  16.696 -0.0753  0.3071 -0.0110
 1665BOLB   PO139938  19.535   9.390  16.508  0.0168  0.4620  0.2157
 1665BOLB   GL139939  19.486   8.950  16.353  0.1245  0.0724 -0.1877
 1665BOLB   GL239940  19.258   8.782  16.491 -0.1784 -0.2526  0.2307
 1665BOLB   C1A39941  19.500   8.555  16.116 -0.1257  0.0236  0.3091
 1665BOLB   C2A39942  19.726   8.188  16.159  0.0994  0.0167  0.2038
 1665BOLB   C3A39943  20.002   7.991  16.387  0.0239  0.0140  0.0076
 1665BOLB   C4A39944  20.099   7.615  16.500 -0.0327 -0.0394 -0.4367
 1665BOLB   C1B39945  19.317   8.579  16.915 -0.1081 -0.2072 -0.0002
 1665BOLB   C2B39946  19.498   8.268  17.021 -0.0093 -0.3807 -0.1081
 1665BOLB   C3B39947  19.648   8.093  17.280 -0.0944 -0.0909  0.3154
 1665BOLB   C4B39948  19.873   7.758  17.423 -0.0677  0.1369 -0.1474
 1665BOLB   NC239949  22.149   5.319  16.566 -0.0523  0.1897  0.2212
 1665BOLB   PO239950  21.654   5.441  16.618 -0.0779  0.0587 -0.0480
 1665BOLB   GL339951  21.341   5.715  16.639 -0.2791 -0.1656  0.0559
 1665BOLB   GL439952  21.060   5.646  16.713 -0.0018 -0.4398 -0.1553
 1665BOLB   C1C39953  21.019   6.136  16.550  0.1954 -0.1279 -0.0703
 1665BOLB   C2C39954  20.642   6.415  16.453 -0.2490 -0.2190  0.0442
 1665BOLB   C3C39955  20.342   6.798  16.412  0.1535  0.2503 -0.3040
 1665BOLB   C4C39956  20.038   7.189  16.396  0.0409  0.0560 -0.0010
 1665BOLB   C1D39957  21.049   5.917  17.041  0.1428 -0.1036  0.1374
 1665BOLB   C2D39958  20.957   5.879  17.479  0.3272 -0.4109 -0.0816
 1665BOLB   C3D39959  20.894   6.250  17.663  0.0753 -0.0216 -0.0669
 1665BOLB   C4D39960  20.669   6.195  18.000 -0.2288  0.1704  0.1336
 1666BOLB   NC139961  14.670   4.331  16.234  0.1403  0.0867 -0.2118
 1666BOLB   PO139962  14.863   4.577  16.632 -0.2779 -0.1212 -0.2943
 1666BOLB   GL139963  15.092   4.736  16.318  0.2323  0.2085 -0.2167
 1666BOLB   GL239964  15.298   4.904  16.494  0.0673  0.0946  0.0782
 1666BOLB   C1A39965  15.434   4.970  15.963 -0.0139 -0.4149  0.3232
 1666BOLB   C2A39966  15.861   4.993  15.883 -0.0423  0.3835 -0.1280
 1666BOLB   C3A39967  16.347   5.110  15.909  0.0418  0.0257 -0.0518
 1666BOLB   C4A39968  16.758   4.904  15.845 -0.2509  0.0761 -0.0308
 1666BOLB   C1B39969  15.711   5.035  16.443 -0.0476  0.1044 -0.1097
 1666BOLB   C2B39970  16.157   5.097  16.343 -0.1029  0.1844 -0.0298
 1666BOLB   C3B39971  16.648   4.956  16.419 -0.1487 -0.1305  0.0640
 1666BOLB   C4B39972  16.925   4.703  16.579 -0.1866 -0.5789  0.3372
 1666BOLB   NC239973  15.938   2.625  15.505  0.2409 -0.1968  0.1038
 1666BOLB   PO239974  16.362   2.710  15.420 -0.0776 -0.0031 -0.0193
 1666BOLB   GL339975  16.447   3.185  15.467  0.2469 -0.1489  0.0401
 1666BOLB   GL439976  16.460   3.085  15.047 -0.0295 -0.1218 -0.2327
 1666BOLB   C1C39977  16.723   3.491  15.310 -0.2300 -0.5677 -0.0807
 1666BOLB   C2C39978  16.818   3.983  15.388  0.4458 -0.1608  0.3439
 1666BOLB   C3C39979  16.793   4.298  15.106 -0.2951  0.0530 -0.0306
 1666BOLB   C4C39980  16.894   4.785  15.338  0.3998 -0.0272  0.0304
 1666BOLB   C1D39981  16.241   3.467  15.017  0.1765 -0.1181 -0.3297
 1666BOLB   C2D39982  16.437   3.853  15.023  0.1107 -0.0620 -0.0146
 1666BOLB   C3D39983  16.891   3.896  14.812  0.0097  0.0028 -0.3238
 1666BOLB   C4D39984  17.250   4.061  14.912 -0.0063 -0.0117  0.0018
 1667BOLB   NC139985  17.046   7.979  15.087  0.1122 -0.3680  0.1327
 1667BOLB   PO139986  16.983   7.909  15.581  0.1016 -0.3554  0.0854
 1667BOLB   GL139987  17.308   7.571  15.334 -0.1429 -0.0629  0.0812
 1667BOLB   GL239988  17.334   7.381  15.594  0.2526  0.2110  0.1938
 1667BOLB   C1A39989  17.408   7.211  15.129 -0.2444 -0.2186  0.0040
 1667BOLB   C2A39990  17.736   6.976  14.956  0.0665  0.4449  0.0614
 1667BOLB   C3A39991  17.896   6.612  14.750 -0.0024  0.0253 -0.2090
 1667BOLB   C4A39992  18.088   6.368  14.490  0.1348 -0.4017  0.0499
 1667BOLB   C1B39993  17.590   7.062  15.792  0.1538 -0.0256  0.0951
 1667BOLB   C2B39994  17.805   6.687  15.860 -0.2365 -0.2474 -0.2515
 1667BOLB   C3B39995  18.048   6.451  15.592 -0.0730  0.1510 -0.2208
 1667BOLB   C4B39996  18.396   6.369  15.422  0.0959  0.1493  0.0339
 1667BOLB   NC239997  18.678   5.434  12.117  0.0186 -0.1317 -0.2276
 1667BOLB   PO239998  18.424   5.307  12.512  0.3981 -0.4565 -0.0084
 1667BOLB   GL339999  18.324   5.576  12.717  0.1251  0.1432 -0.0872
 1667BOLB   GL440000  18.069   5.434  12.938  0.1568 -0.2340 -0.0179
 1667BOLB   C1C40001  18.237   6.042  12.854  0.0867  0.0777  0.0965
 1667BOLB   C2C40002  18.098   6.214  13.175 -0.1712 -0.0310 -0.1654
 1667BOLB   C3C40003  18.155   6.233  13.609  0.1604 -0.0002  0.0602
 1667BOLB   C4C40004  18.195   6.339  13.981  0.0655  0.1736 -0.3539
 1667BOLB   C1D40005  18.082   5.633  13.276  0.1116 -0.3270 -0.2176
 1667BOLB   C2D40006  17.821   5.882  13.509 -0.4523  0.2279 -0.0395
 1667BOLB   C3D40007  17.582   6.180  13.659 -0.3526  0.0066  0.1762
 1667BOLB   C4D40008  17.776   6.489  13.836 -0.0578 -0.1929 -0.1686
 1668BOLB   NC140009  17.765   8.414  16.435 -0.1260  0.2095 -0.2015
 1668BOLB   PO140010  18.196   8.440  16.361  0.3560 -0.2281  0.0582
 1668BOLB   GL140011  18.397   8.160  16.075 -0.1407 -0.1167 -0.3135
 1668BOLB   GL240012  18.345   7.748  16.199 -0.0067  0.3350  0.0547
 1668BOLB   C1A40013  18.436   8.097  15.635  0.1115 -0.3277 -0.0132
 1668BOLB   C2A40014  18.333   7.646  15.370  0.0593  0.0902 -0.1507
 1668BOLB   C3A40015  18.463   7.226  15.426  0.3299 -0.1022  0.1176
 1668BOLB   C4A40016  18.812   6.878  15.442  0.0186  0.0216 -0.1415
 1668BOLB   C1B40017  18.508   7.660  15.816 -0.1474  0.0877 -0.0194
 1668BOLB   C2B40018  18.843   7.417  15.646  0.0751 -0.1365 -0.1785
 1668BOLB   C3B40019  19.194   7.151  15.647 -0.1895  0.0611  0.1310
 1668BOLB   C4B40020  19.529   6.897  15.781 -0.0686  0.1848  0.1348
 1668BOLB   NC240021  20.311   4.663  14.934 -0.2868  0.1316 -0.0513
 1668BOLB   PO240022  20.288   5.097  14.702  0.0311 -0.0965  0.3254
 1668BOLB   GL340023  19.867   5.180  14.660  0.1716 -0.3885 -0.0505
 1668BOLB   GL440024  19.537   5.053  14.845 -0.2427  0.1845 -0.3737
 1668BOLB   C1C40025  19.557   5.534  14.646  0.1209 -0.0583 -0.1470
 1668BOLB   C2C40026  19.327   5.944  14.761  0.1351  0.0306 -0.3377
 1668BOLB   C3C40027  19.353   6.184  15.165 -0.0335 -0.0695 -0.1243
 1668BOLB   C4C40028  19.143   6.605  15.497  0.0230 -0.4045  0.0091
 1668BOLB   C1D40029  19.198   5.186  15.022 -0.3955 -0.2488 -0.1558
 1668BOLB   C2D40030  19.029   5.631  15.091  0.0146  0.2366  0.0752
 1668BOLB   C3D40031  18.859   6.003  15.076  0.1142  0.3112  0.0999
 1668BOLB   C4D40032  18.842   6.419  15.230 -0.1445 -0.1833  0.2763
 1669BOLB   NC140033  15.062   6.645  16.158  0.1644  0.1764  0.1544
 1669BOLB   PO140034  15.130   6.220  15.861  0.1138 -0.0523  0.2425
 1669BOLB   GL140035  15.589   6.203  15.776  0.1301 -0.0575 -0.2743
 1669BOLB   GL240036  15.567   5.877  15.927 -0.2224 -0.1903  0.2255
 1669BOLB   C1A40037  15.952   5.972  15.498 -0.4774 -0.0989 -0.0706
 1669BOLB   C2A40038  16.056   6.031  14.987 -0.0373 -0.0824 -0.0802
 1669BOLB   C3A40039  16.182   5.803  14.668  0.0247 -0.3386 -0.0333
 1669BOLB   C4A40040  16.134   5.584  14.248 -0.0503  0.3026 -0.1911
 1669BOLB   C1B40041  15.430   5.756  15.532  0.2724  0.0253  0.0606
 1669BOLB   C2B40042  15.769   5.640  15.220  0.0899  0.4247 -0.1345
 1669BOLB   C3B40043  16.112   5.439  15.018 -0.0985  0.2166 -0.3373
 1669BOLB   C4B40044  16.291   5.317  14.597  0.0415  0.0974 -0.0078
 1669BOLB   NC240045  16.944   3.557  13.152 -0.0383  0.0232 -0.1404
 1669BOLB   PO240046  17.034   3.593  12.762  0.0206 -0.1402 -0.0091
 1669BOLB   GL340047  16.891   3.996  12.855  0.1228  0.0426 -0.0797
 1669BOLB   GL440048  16.819   4.159  12.541  0.1355 -0.1074 -0.2213
 1669BOLB   C1C40049  16.656   4.144  13.159 -0.2258 -0.1490 -0.1832
 1669BOLB   C2C40050  16.545   4.556  13.442  0.0523  0.3625  0.1142
 1669BOLB   C3C40051  16.356   4.792  13.873  0.2089  0.0430 -0.0396
 1669BOLB   C4C40052  16.208   5.142  14.093  0.1256 -0.1328  0.0361
 1669BOLB   C1D40053  16.688   4.534  12.746  0.0466  0.2198  0.1468
 1669BOLB   C2D40054  16.584   4.899  12.906  0.0227  0.0440 -0.0060
 1669BOLB   C3D40055  16.581   5.286  12.783 -0.1849 -0.1304 -0.2529
 1669BOLB   C4D40056  16.845   5.608  12.621  0.2360  0.2529  0.0762
 1670BOLB   NC140057  19.992   9.296  16.310  0.2257  0.0992 -0.2107
 1670BOLB   PO140058  19.584   9.322  15.999 -0.3974  0.1163 -0.0481
 1670BOLB   GL140059  19.864   9.000  15.941 -0.1468 -0.3239 -0.0173
 1670BOLB   GL240060  19.713   8.834  15.792  0.0366 -0.0028  0.5020
 1670BOLB   C1A40061  19.974   8.641  16.143  0.0244  0.0841  0.2896
 1670BOLB   C2A40062  20.223   8.336  16.155 -0.3661  0.1253  0.1412
 1670BOLB   C3A40063  20.422   8.028  16.179  0.2546 -0.0871  0.0197
 1670BOLB   C4A40064  20.501   7.676  16.278 -0.2984 -0.1202  0.0692
 1670BOLB   C1B40065  19.790   8.450  15.706  0.1868 -0.2911 -0.2864
 1670BOLB   C2B40066  19.996   8.024  15.788  0.3347  0.1811  0.0791
 1670BOLB   C3B40067  20.119   7.591  15.957 -0.0699 -0.1994 -0.2694
 1670BOLB   C4B40068  20.519   7.317  15.801  0.2431 -0.2819 -0.0845
 1670BOLB   NC240069  22.450   6.025  16.061 -0.1186  0.1341 -0.0770
 1670BOLB   PO240070  22.045   6.055  15.809  0.2018  0.1725  0.0679
 1670BOLB   GL340071  21.631   6.169  15.959  0.0965 -0.1736 -0.3050
 1670BOLB   GL440072  21.316   6.039  16.142 -0.0181 -0.4264 -0.4130
 1670BOLB   C1C40073  21.381   6.560  16.073  0.0918  0.1044  0.1862
 1670BOLB   C2C40074  21.104   6.699  16.366 -0.3464  0.1690 -0.3370
 1670BOLB   C3C40075  20.989   6.976  16.442 -0.0344 -0.1600  0.0844
 1670BOLB   C4C40076  20.599   7.245  16.331 -0.0699 -0.0683  0.3855
 1670BOLB   C1D40077  21.535   6.220  16.483  0.0846  0.0022 -0.1729
 1670BOLB   C2D40078  21.563   6.687  16.657  0.0582  0.2635 -0.0081
 1670BOLB   C3D40079  21.617   7.182  16.696  0.0321  0.4240  0.1060
 1670BOLB   C4D40080  21.633   7.476  16.479  0.0095 -0.1820 -0.0868
 1671BOLB   NC140081  17.621   8.121  17.244 -0.0698 -0.1838  0.5204
 1671BOLB   PO140082  17.799   7.821  17.310  0.0364 -0.1276 -0.2260
 1671BOLB   GL140083  17.830   7.454  17.440  0.0253  0.0173 -0.4647
 1671BOLB   GL240084  17.944   7.267  17.227  0.1256 -0.0237  0.3563
 1671BOLB   C1A40085  17.862   6.987  17.762 -0.1014  0.1284  0.0846
 1671BOLB   C2A40086  18.027   6.549  17.854  0.0095  0.1228  0.0352
 1671BOLB   C3A40087  18.347   6.215  17.567  0.1438  0.0556 -0.0173
 1671BOLB   C4A40088  18.331   5.815  17.420 -0.1472  0.3545 -0.0543
 1671BOLB   C1B40089  18.251   6.906  17.248 -0.0443  0.0038  0.4717
 1671BOLB   C2B40090  18.341   6.568  17.087  0.1117  0.1943 -0.0084
 1671BOLB   C3B40091  18.598   6.368  16.791 -0.0277 -0.3527  0.1764
 1671BOLB   C4B40092  19.033   6.208  16.884  0.0227 -0.0522 -0.0132
 1671BOLB   NC240093  19.568   3.501  17.274 -0.2564 -0.1239  0.2909
 1671BOLB   PO240094  19.374   3.937  17.377  0.2417 -0.0450  0.0821
 1671BOLB   GL340095  19.080   4.193  17.521  0.1212  0.2034 -0.1361
 1671BOLB   GL440096  19.282   4.537  17.564 -0.0185 -0.0659 -0.2982
 1671BOLB   C1C40097  18.831   4.398  17.770  0.1350  0.1977 -0.2539
 1671BOLB   C2C40098  18.428   4.620  17.561  0.0450  0.0541  0.4287
 1671BOLB   C3C40099  18.183   5.021  17.441 -0.0005 -0.2706  0.1476
 1671BOLB   C4C40100  18.277   5.451  17.295 -0.0767  0.1244 -0.1741
 1671BOLB   C1D40101  18.963   4.880  17.522  0.0358  0.4114  0.2350
 1671BOLB   C2D40102  18.683   5.203  17.456  0.0692 -0.0881  0.0518
 1671BOLB   C3D40103  18.587   5.537  17.733 -0.1568  0.3033  0.3886
 1671BOLB   C4D40104  18.296   5.703  18.060  0.3453 -0.0331 -0.3074
 1672BOLB   NC140105  13.777   3.451  14.799 -0.0635 -0.2801 -0.1851
 1672BOLB   PO140106  13.987   3.846  14.965  0.1150  0.3668 -0.2365
 1672BOLB   GL140107  14.387   4.052  14.932  0.0493  0.2718  0.1449
 1672BOLB   GL240108  14.271   4.323  14.798 -0.0920  0.0449  0.4033
 1672BOLB   C1A40109  14.787   4.174  14.847 -0.3795  0.2072 -0.0413
 1672BOLB   C2A40110  15.103   4.129  14.638 -0.0285 -0.3186 -0.0028
 1672BOLB   C3A40111  15.276   4.228  14.229 -0.1866 -0.1617  0.1496
 1672BOLB   C4A40112  15.641   4.279  13.960 -0.0086 -0.3129 -0.1686
 1672BOLB   C1B40113  14.552   4.561  15.082 -0.1698 -0.2517 -0.0401
 1672BOLB   C2B40114  14.894   4.817  15.247  0.0514 -0.2136  0.2846
 1672BOLB   C3B40115  15.209   5.068  15.450  0.1925  0.2851 -0.0445
 1672BOLB   C4B40116  15.580   5.235  15.548  0.1037  0.0679  0.0905
 1672BOLB   NC240117  14.924   3.619  12.444 -0.0555 -0.0930 -0.1827
 1672BOLB   PO240118  14.524   3.643  12.457 -0.1504  0.2755 -0.0535
 1672BOLB   GL340119  14.468   4.061  12.591  0.1541 -0.3132 -0.0876
 1672BOLB   GL440120  14.430   4.303  12.448  0.1631  0.1482  0.1449
 1672BOLB   C1C40121  14.697   4.232  12.882  0.0823  0.2530  0.0231
 1672BOLB   C2C40122  14.835   4.385  13.124  0.1933  0.0368 -0.2886
 1672BOLB   C3C40123  15.192   4.497  13.281 -0.1154 -0.1546 -0.0833
 1672BOLB   C4C40124  15.480   4.452  13.589 -0.1545 -0.0710 -0.0799
 1672BOLB   C1D40125  14.024   4.510  12.278 -0.0104  0.1142 -0.0685
 1672BOLB   C2D40126  13.719   4.699  12.207 -0.1695  0.1109 -0.3447
 1672BOLB   C3D40127  13.619   5.100  11.980 -0.1126  0.0820  0.0440
 1672BOLB   C4D40128  13.894   5.436  12.107  0.1977 -0.2712 -0.1535
 1673BOLB   NC140129  18.741   8.885  16.769  0.1319  0.2301 -0.1053
 1673BOLB   PO140130  18.792   8.696  16.379  0.1897  0.0827  0.0889
 1673BOLB   GL140131  19.107   8.377  16.324  0.1593  0.2609 -0.0818
 1673BOLB   GL240132  19.255   8.114  16.187 -0.3711 -0.3063 -0.2670
 1673BOLB   C1A40133  18.790   7.966  16.242  0.0061 -0.0371 -0.1221
 1673BOLB   C2A40134  18.874   7.542  16.183 -0.2623 -0.0126 -0.0965
 1673BOLB   C3A40135  19.127   7.236  16.114 -0.0057  0.2468  0.0820
 1673BOLB   C4A40136  19.460   6.854  16.250 -0.1141  0.2039 -0.1151
 1673BOLB   C1B40137  19.551   7.755  16.036 -0.0286  0.0001  0.2702
 1673BOLB   C2B40138  19.794   7.614  15.639 -0.2451 -0.2981  0.0379
 1673BOLB   C3B40139  20.153   7.485  15.506 -0.3313 -0.2079  0.0186
 1673BOLB   C4B40140  20.543   7.260  15.327  0.4802 -0.0777  0.1984
 1673BOLB   NC240141  20.971   5.005  15.698  0.1413 -0.3971  0.0200
 1673BOLB   PO240142  20.579   4.817  15.806  0.0873  0.0469  0.1315
 1673BOLB   GL340143  20.552   5.269  15.746 -0.0901  0.1009 -0.0648
 1673BOLB   GL440144  20.644   5.489  15.424 -0.0650  0.0270  0.3254
 1673BOLB   C1C40145  20.529   5.650  15.857  0.0038 -0.0134 -0.1584
 1673BOLB   C2C40146  20.534   6.014  16.161 -0.3488  0.0862 -0.0169
 1673BOLB   C3C40147  20.183   6.298  16.185  0.2123 -0.0627 -0.1956
 1673BOLB   C4C40148  19.873   6.689  16.220  0.0313 -0.1648 -0.1491
 1673BOLB   C1D40149  20.792   5.949  15.504 -0.2703  0.2880 -0.3794
 1673BOLB   C2D40150  20.589   6.337  15.501 -0.1334 -0.0772  0.2293
 1673BOLB   C3D40151  20.458   6.583  15.227 -0.0677 -0.3480  0.2110
 1673BOLB   C4D40152  20.450   6.835  14.906  0.2319 -0.3323  0.1688
 1674BOLB   NC140153  14.082   7.703  13.548 -0.0353  0.0235  0.2580
 1674BOLB   PO140154  14.438   7.597  13.795  0.0123 -0.1376  0.0500
 1674BOLB   GL140155  14.432   7.421  13.305 -0.2429  0.0877  0.2166
 1674BOLB   GL240156  14.471   7.101  13.164 -0.2773  0.1007 -0.2878
 1674BOLB   C1A40157  14.325   7.457  12.814 -0.0428 -0.1798 -0.0242
 1674BOLB   C2A40158  14.612   7.221  12.566  0.3286  0.1328 -0.0647
 1674BOLB   C3A40159  14.724   6.997  12.227  0.0202  0.2511 -0.0686
 1674BOLB   C4A40160  15.041   7.078  11.971 -0.1256  0.1979 -0.1185
 1674BOLB   C1B40161  14.724   6.812  12.929  0.1049  0.1260 -0.1085
 1674BOLB   C2B40162  14.943   6.786  12.594 -0.1524 -0.0740  0.3055
 1674BOLB   C3B40163  14.836   6.498  12.253  0.0314 -0.2437 -0.1245
 1674BOLB   C4B40164  15.015   6.187  12.062 -0.4658 -0.0526 -0.1522
 1674BOLB   NC240165  15.681   5.613  10.335 -0.2012  0.1752  0.3100
 1674BOLB   PO240166  16.030   5.377  10.661  0.0470  0.1245 -0.1484
 1674BOLB   GL340167  15.785   5.515  10.885  0.0374 -0.0751  0.0873
 1674BOLB   GL440168  15.500   5.548  10.812  0.0700 -0.0499 -0.0261
 1674BOLB   C1C40169  15.658   5.969  11.001 -0.1312  0.3173 -0.1290
 1674BOLB   C2C40170  15.382   6.322  11.183 -0.1233  0.1131 -0.1265
 1674BOLB   C3C40171  15.156   6.780  11.261 -0.1524  0.2106  0.2459
 1674BOLB   C4C40172  15.153   6.997  11.563 -0.0993 -0.2500 -0.0817
 1674BOLB   C1D40173  15.079   5.867  10.881 -0.0704  0.2555 -0.0435
 1674BOLB   C2D40174  14.698   5.993  10.824  0.3372  0.0794  0.3767
 1674BOLB   C3D40175  14.377   6.358  10.897 -0.1999  0.4116  0.5707
 1674BOLB   C4D40176  14.096   6.689  11.052  0.0141  0.2539  0.1778
 1675BOLB   NC140177  12.772   5.814  14.190  0.0958  0.1305  0.0169
 1675BOLB   PO140178  12.853   5.420  14.114  0.0227 -0.0025 -0.2744
 1675BOLB   GL140179  13.335   5.484  14.045 -0.1574 -0.0993 -0.0391
 1675BOLB   GL240180  13.432   5.239  14.315  0.1641  0.0171 -0.2999
 1675BOLB   C1A40181  13.503   5.659  13.628  0.0230  0.2160  0.2454
 1675BOLB   C2A40182  13.507   5.629  13.136 -0.0708  0.3351 -0.1221
 1675BOLB   C3A40183  13.443   5.603  12.575 -0.5185  0.0623  0.3486
 1675BOLB   C4A40184  13.623   5.959  12.261 -0.0904  0.3744 -0.1576
 1675BOLB   C1B40185  13.768   5.343  14.013 -0.3599  0.1971  0.1915
 1675BOLB   C2B40186  13.960   5.419  13.580  0.0989  0.2518 -0.2503
 1675BOLB   C3B40187  14.305   5.138  13.454  0.1183  0.5079  0.1052
 1675BOLB   C4B40188  14.399   4.761  13.358  0.1244  0.1450  0.1247
 1675BOLB   NC240189  14.249   5.821   9.520  0.3924 -0.2203 -0.2392
 1675BOLB   PO240190  14.510   5.626   9.816  0.3849  0.3883 -0.2295
 1675BOLB   GL340191  14.425   5.608  10.188  0.2467  0.0362  0.0476
 1675BOLB   GL440192  14.711   5.622  10.347 -0.1617 -0.0570 -0.2356
 1675BOLB   C1C40193  14.285   5.552  10.676 -0.2175 -0.1704 -0.1261
 1675BOLB   C2C40194  14.296   5.719  11.233  0.0839 -0.1329  0.2661
 1675BOLB   C3C40195  14.229   5.863  11.543 -0.5307  0.2940 -0.1911
 1675BOLB   C4C40196  13.934   5.965  11.878  0.0641  0.1076  0.0770
 1675BOLB   C1D40197  14.657   6.019  10.275 -0.1138 -0.2754 -0.3465
 1675BOLB   C2D40198  14.539   6.461  10.381  0.0337  0.1812  0.0091
 1675BOLB   C3D40199  14.224   6.683  10.476  0.1148  0.2260  0.0514
 1675BOLB   C4D40200  13.851   7.022  10.396 -0.1884  0.0571 -0.1452
 1676BOLB   NC140201  21.359  10.550  16.053  0.3735 -0.0501  0.0187
 1676BOLB   PO140202  21.149  10.261  15.820  0.1400  0.1269  0.0873
 1676BOLB   GL140203  21.195   9.783  15.741  0.0086 -0.4478  0.1571
 1676BOLB   GL240204  21.432   9.701  15.598  0.0871 -0.0629  0.3368
 1676BOLB   C1A40205  21.173   9.379  15.887 -0.3172  0.1044 -0.1297
 1676BOLB   C2A40206  21.479   8.984  15.836  0.1305 -0.3056 -0.1478
 1676BOLB   C3A40207  21.617   8.650  15.943  0.1435  0.2221 -0.0630
 1676BOLB   C4A40208  21.704   8.472  15.581 -0.1768 -0.0571  0.0009
 1676BOLB   C1B40209  21.728   9.324  15.581 -0.2638  0.2616  0.0180
 1676BOLB   C2B40210  21.999   9.018  15.719  0.2862  0.1174 -0.1967
 1676BOLB   C3B40211  22.368   8.905  15.732 -0.0236  0.2100  0.1413
 1676BOLB   C4B40212  22.761   9.022  15.652  0.4420 -0.1403 -0.0050
 1676BOLB   NC240213  22.152   6.452  14.666  0.1751 -0.0558  0.0611
 1676BOLB   PO240214  21.848   6.446  14.325  0.0134 -0.2197 -0.1490
 1676BOLB   GL340215  21.808   6.814  14.526 -0.3954  0.0800  0.0604
 1676BOLB   GL440216  21.992   6.982  14.763  0.1555 -0.1408 -0.1364
 1676BOLB   C1C40217  21.573   7.070  14.851  0.1747  0.0655 -0.4574
 1676BOLB   C2C40218  21.503   7.428  15.093 -0.0167  0.1250  0.3019
 1676BOLB   C3C40219  21.677   7.715  15.365 -0.0481  0.2077  0.1009
 1676BOLB   C4C40220  21.585   8.080  15.581  0.1451 -0.0306 -0.0541
 1676BOLB   C1D40221  21.956   7.296  15.211  0.2786 -0.0753  0.3503
 1676BOLB   C2D40222  22.160   7.396  15.579  0.0674 -0.0832 -0.3738
 1676BOLB   C3D40223  22.062   7.806  15.821  0.0001 -0.2316 -0.0529
 1676BOLB   C4D40224  21.921   8.203  15.974 -0.1003  0.0976  0.0370
 1677BOLB   NC140225  18.428   8.690  16.023  0.2440  0.3299  0.3777
 1677BOLB   PO140226  18.763   8.894  15.768 -0.2831 -0.2151  0.0836
 1677BOLB   GL140227  18.837   8.425  15.867 -0.0065  0.2042 -0.2390
 1677BOLB   GL240228  19.157   8.589  15.747  0.1129  0.0196 -0.3175
 1677BOLB   C1A40229  18.952   7.986  15.738  0.2762  0.0429 -0.1528
 1677BOLB   C2A40230  19.321   7.678  15.582 -0.0080 -0.2906 -0.5057
 1677BOLB   C3A40231  19.584   7.305  15.384 -0.0543  0.0288  0.0286
 1677BOLB   C4A40232  20.023   7.045  15.407 -0.1888  0.2589  0.0628
 1677BOLB   C1B40233  19.349   8.221  15.594 -0.2051  0.2894 -0.3720
 1677BOLB   C2B40234  19.250   8.012  15.242 -0.0588 -0.0728 -0.2091
 1677BOLB   C3B40235  19.312   7.582  15.117  0.0342 -0.0632  0.1696
 1677BOLB   C4B40236  19.176   7.110  14.989  0.2910  0.1829 -0.2939
 1677BOLB   NC240237  20.523   4.959  15.298  0.1056  0.0317  0.1359
 1677BOLB   PO240238  20.206   4.542  15.387  0.3252 -0.2343  0.1444
 1677BOLB   GL340239  20.096   4.983  15.630 -0.0624  0.1067  0.0180
 1677BOLB   GL440240  19.822   5.003  15.865 -0.0833 -0.0834  0.4402
 1677BOLB   C1C40241  20.056   5.411  15.631 -0.0795  0.2705  0.0506
 1677BOLB   C2C40242  20.227   5.812  15.484  0.1664  0.2419  0.1644
 1677BOLB   C3C40243  20.076   6.282  15.342  0.3175 -0.0934 -0.2137
 1677BOLB   C4C40244  19.955   6.720  15.262  0.2900  0.0053 -0.0186
 1677BOLB   C1D40245  19.936   5.339  16.184 -0.0203  0.0483  0.1089
 1677BOLB   C2D40246  19.906   5.597  16.549 -0.0479 -0.2409  0.0162
 1677BOLB   C3D40247  19.676   5.936  16.726 -0.2144  0.0942 -0.1207
 1677BOLB   C4D40248  19.553   6.332  17.068 -0.0603 -0.0310  0.1520
 1678BOLB   NC140249  15.363   6.126  16.828  0.0789 -0.1275  0.1390
 1678BOLB   PO140250  15.543   6.526  17.080  0.0156 -0.1188  0.1311
 1678BOLB   GL140251  15.849   6.233  17.091  0.1518  0.0189  0.5459
 1678BOLB   GL240252  15.745   5.970  17.137 -0.0303 -0.1748  0.0536
 1678BOLB   C1A40253  16.257   6.127  16.957 -0.1065 -0.4187  0.2549
 1678BOLB   C2A40254  16.606   5.871  16.796  0.0778  0.2108 -0.3096
 1678BOLB   C3A40255  16.771   5.393  16.809  0.5409  0.0124  0.1149
 1678BOLB   C4A40256  17.108   5.246  16.444 -0.1533 -0.1687  0.1955
 1678BOLB   C1B40257  16.107   5.653  17.074  0.1065  0.1671 -0.3749
 1678BOLB   C2B40258  16.486   5.575  17.170  0.2156  0.0185  0.0677
 1678BOLB   C3B40259  16.945   5.567  17.293  0.0006 -0.0270  0.0523
 1678BOLB   C4B40260  17.371   5.547  17.374 -0.2686 -0.3590 -0.0381
 1678BOLB   NC240261  18.090   2.884  15.253 -0.0040 -0.1455 -0.0446
 1678BOLB   PO240262  17.991   3.241  14.988 -0.0961  0.1273 -0.0058
 1678BOLB   GL340263  17.882   3.683  15.256 -0.1483  0.1380  0.0002
 1678BOLB   GL440264  17.801   3.702  15.653 -0.1972 -0.0918  0.0695
 1678BOLB   C1C40265  17.478   3.957  15.338  0.2014 -0.1256 -0.2011
 1678BOLB   C2C40266  17.400   4.321  15.570  0.0748 -0.0205  0.0054
 1678BOLB   C3C40267  17.203   4.671  15.760 -0.1812 -0.2521 -0.0602
 1678BOLB   C4C40268  17.231   5.012  16.061 -0.2226 -0.2486  0.1381
 1678BOLB   C1D40269  17.577   4.007  15.901  0.1076  0.2563  0.2756
 1678BOLB   C2D40270  17.527   4.106  16.347 -0.0810 -0.1401  0.0219
 1678BOLB   C3D40271  17.651   4.442  16.595  0.1613  0.3135  0.1321
 1678BOLB   C4D40272  18.088   4.589  16.594 -0.2793  0.0503  0.1534
 1679BOLB   NC140273  12.273   7.098  13.244 -0.1199 -0.1678 -0.0580
 1679BOLB   PO140274  12.110   7.509  13.121 -0.1415 -0.1537 -0.1298
 1679BOLB   GL140275  12.411   7.389  12.858 -0.0436  0.1438 -0.2822
 1679BOLB   GL240276  12.493   7.180  12.692 -0.2982 -0.0326  0.2331
 1679BOLB   C1A40277  12.224   7.369  12.314  0.1077  0.0088 -0.1287
 1679BOLB   C2A40278  12.392   7.275  12.005  0.0147 -0.0506  0.4799
 1679BOLB   C3A40279  12.706   7.074  11.845 -0.0972  0.1696  0.1352
 1679BOLB   C4A40280  12.919   6.919  11.589  0.2170  0.2381 -0.1551
 1679BOLB   C1B40281  12.972   7.299  12.704 -0.1167 -0.0340 -0.1003
 1679BOLB   C2B40282  13.341   7.293  12.506  0.2734  0.0868 -0.1437
 1679BOLB   C3B40283  13.387   6.988  12.201  0.0113  0.0201 -0.1263
 1679BOLB   C4B40284  13.583   6.755  11.848  0.0454 -0.1356 -0.1814
 1679BOLB   NC240285  12.381   4.522  10.532  0.0318 -0.0069 -0.2737
 1679BOLB   PO240286  12.683   4.788  10.321  0.2927 -0.0222  0.2271
 1679BOLB   GL340287  12.957   5.072  10.635  0.0028 -0.2133 -0.2158
 1679BOLB   GL440288  12.984   5.338  10.518  0.0885  0.2295 -0.2365
 1679BOLB   C1C40289  12.810   5.307  10.992  0.2668 -0.1620 -0.0713
 1679BOLB   C2C40290  13.021   5.766  10.990  0.1928  0.0615  0.0288
 1679BOLB   C3C40291  12.995   6.179  11.111  0.1744  0.1107  0.0664
 1679BOLB   C4C40292  12.844   6.547  11.228  0.0646 -0.1848 -0.2417
 1679BOLB   C1D40293  13.225   5.683  10.412  0.4392 -0.0343 -0.0947
 1679BOLB   C2D40294  13.174   6.106  10.386  0.3493  0.1634  0.0222
 1679BOLB   C3D40295  13.154   6.442  10.628  0.1115 -0.2359 -0.1711
 1679BOLB   C4D40296  13.156   6.809  10.855 -0.1729 -0.2522  0.1503
 1680BOLB   NC140297  17.603   9.130  14.313  0.1344 -0.2919  0.0255
 1680BOLB   PO140298  17.763   8.778  14.238  0.0078 -0.2143  0.0133
 1680BOLB   GL140299  18.072   8.331  14.222  0.0203 -0.0938  0.0422
 1680BOLB   GL240300  17.812   8.140  14.394  0.2717  0.2280 -0.1099
 1680BOLB   C1A40301  18.112   8.279  13.795  0.0191 -0.0545  0.3853
 1680BOLB   C2A40302  17.963   7.987  13.523  0.0628  0.1748  0.1433
 1680BOLB   C3A40303  18.022   7.663  13.221 -0.2720 -0.1475 -0.3250
 1680BOLB   C4A40304  18.127   7.541  12.822 -0.1286 -0.1956  0.2431
 1680BOLB   C1B40305  17.609   7.733  14.374 -0.1344 -0.5173  0.2517
 1680BOLB   C2B40306  17.668   7.338  14.448  0.3303 -0.0428  0.0453
 1680BOLB   C3B40307  17.858   7.066  14.503  0.4133 -0.0405  0.0050
 1680BOLB   C4B40308  17.882   6.836  14.241 -0.0394  0.1099  0.0003
 1680BOLB   NC240309  18.730   6.083  11.627  0.1253 -0.1815  0.3900
 1680BOLB   PO240310  19.229   6.221  11.768  0.5331  0.0821  0.1366
 1680BOLB   GL340311  19.400   6.607  11.904  0.3265  0.1994  0.1744
 1680BOLB   GL440312  19.763   6.805  11.891  0.5427 -0.0840 -0.1695
 1680BOLB   C1C40313  19.244   6.929  12.135 -0.2718  0.0615  0.1449
 1680BOLB   C2C40314  18.977   7.069  12.325  0.0797 -0.2185 -0.1156
 1680BOLB   C3C40315  18.827   7.403  12.533 -0.1210 -0.0311  0.2312
 1680BOLB   C4C40316  18.539   7.609  12.608  0.0831 -0.1319 -0.0655
 1680BOLB   C1D40317  19.627   7.226  12.037 -0.3343 -0.2104 -0.2162
 1680BOLB   C2D40318  19.434   7.273  12.477 -0.2540 -0.2001  0.0390
 1680BOLB   C3D40319  19.284   7.108  12.705 -0.1024  0.1022  0.1135
 1680BOLB   C4D40320  19.272   6.983  13.193 -0.2064  0.0277 -0.1368
 1681BOLB   NC140321  21.602  11.267  16.484  0.3412 -0.0203 -0.3235
 1681BOLB   PO140322  22.076  11.117  16.406  0.1182 -0.1117  0.2784
 1681BOLB   GL140323  22.175  10.664  16.230  0.3015  0.2372  0.1850
 1681BOLB   GL240324  21.918  10.492  16.069 -0.0069  0.1373 -0.1814
 1681BOLB   C1A40325  22.420  10.255  16.255 -0.1566 -0.5814  0.1091
 1681BOLB   C2A40326  22.746   9.917  16.328 -0.0557 -0.0104 -0.0373
 1681BOLB   C3A40327  22.785   9.472  16.278  0.1183 -0.2654 -0.2479
 1681BOLB   C4A40328  23.034   9.306  16.095  0.2407  0.3595  0.1682
 1681BOLB   C1B40329  22.164  10.138  15.879  0.3057  0.0065 -0.0776
 1681BOLB   C2B40330  22.537   9.954  15.896  0.0961  0.0567 -0.0941
 1681BOLB   C3B40331  22.766   9.871  15.448 -0.1459 -0.2831 -0.1583
 1681BOLB   C4B40332  23.161   9.765  15.136  0.0307 -0.2067 -0.3686
 1681BOLB   NC240333  23.716   6.554  16.452  0.1622  0.0617  0.2633
 1681BOLB   PO240334  23.644   6.875  16.767  0.1420 -0.1037  0.0306
 1681BOLB   GL340335  23.479   7.258  16.594 -0.1787  0.1483 -0.2168
 1681BOLB   GL440336  23.668   7.486  16.700 -0.1770  0.0388  0.0414
 1681BOLB   C1C40337  23.292   7.552  16.216  0.0774 -0.0960 -0.2314
 1681BOLB   C2C40338  23.158   8.067  16.084  0.1605  0.1784  0.1392
 1681BOLB   C3C40339  23.183   8.463  16.244  0.1906 -0.1439  0.2647
 1681BOLB   C4C40340  23.153   8.913  16.075 -0.0463 -0.1359  0.0285
 1681BOLB   C1D40341  23.472   7.832  16.578  0.0334 -0.0120 -0.4104
 1681BOLB   C2D40342  23.139   8.130  16.649 -0.2453 -0.0506  0.2334
 1681BOLB   C3D40343  22.955   8.297  16.947  0.2055  0.2157  0.1646
 1681BOLB   C4D40344  22.557   8.528  16.910 -0.1942  0.0552 -0.3749
 1682BOLB   NC140345  14.370  10.133  12.050  0.0414 -0.0544 -0.2701
 1682BOLB   PO140346  14.830   9.904  12.094  0.2780 -0.1993  0.2401
 1682BOLB   GL140347  14.766   9.811  11.576 -0.0687 -0.2774 -0.0337
 1682BOLB   GL240348  14.396   9.879  11.538  0.3998 -0.2586 -0.1023
 1682BOLB   C1A40349  14.933   9.542  11.369  0.0970  0.0445 -0.1274
 1682BOLB   C2A40350  14.949   9.286  11.076 -0.1209 -0.0630  0.2117
 1682BOLB   C3A40351  15.004   9.042  10.773 -0.0215 -0.0718 -0.0210
 1682BOLB   C4A40352  15.094   8.828  10.405  0.1283  0.1121  0.3414
 1682BOLB   C1B40353  14.491   9.694  11.147  0.1329 -0.2084 -0.2830
 1682BOLB   C2B40354  14.566   9.403  10.788 -0.0058 -0.2301  0.4394
 1682BOLB   C3B40355  14.733   9.263  10.406  0.3013 -0.3320  0.1867
 1682BOLB   C4B40356  15.214   9.486  10.433  0.0368  0.1418 -0.1641
 1682BOLB   NC240357  16.441   8.818   7.765 -0.1549  0.0281 -0.0267
 1682BOLB   PO240358  16.000   8.864   7.929 -0.3944 -0.3841 -0.3295
 1682BOLB   GL340359  15.826   8.990   8.337  0.1525  0.1214 -0.1625
 1682BOLB   GL440360  15.511   9.162   8.329 -0.1906 -0.0548  0.2114
 1682BOLB   C1C40361  15.770   8.745   8.852 -0.1214  0.3029 -0.3976
 1682BOLB   C2C40362  15.578   8.690   9.256 -0.0331 -0.0027  0.4173
 1682BOLB   C3C40363  15.315   8.553   9.638  0.1119 -0.1398  0.0968
 1682BOLB   C4C40364  15.117   8.738  10.062  0.0070  0.1231  0.1215
 1682BOLB   C1D40365  15.556   9.397   8.670  0.0026 -0.2168  0.3426
 1682BOLB   C2D40366  15.502   9.508   9.099  0.1086  0.1203  0.0092
 1682BOLB   C3D40367  15.355   9.469   9.496 -0.4188 -0.3468 -0.1768
 1682BOLB   C4D40368  15.466   9.426   9.998  0.0486  0.0257 -0.2386
 1683BOLB   NC140369  13.697   6.883  14.877 -0.1444  0.3223 -0.1361
 1683BOLB   PO140370  13.922   6.654  14.514  0.0863 -0.2092 -0.3290
 1683BOLB   GL140371  13.976   6.510  14.099 -0.0362 -0.2336 -0.1273
 1683BOLB   GL240372  13.963   6.231  14.187 -0.0950 -0.1693  0.4758
 1683BOLB   C1A40373  14.009   6.483  13.708  0.1223  0.2964 -0.0120
 1683BOLB   C2A40374  14.209   6.237  13.506  0.2363  0.0112  0.1212
 1683BOLB   C3A40375  14.518   6.111  13.142  0.0237  0.2885 -0.1556
 1683BOLB   C4A40376  14.756   5.872  12.913  0.1324  0.1925  0.1254
 1683BOLB   C1B40377  13.733   5.800  14.281  0.2054  0.2978 -0.0209
 1683BOLB   C2B40378  13.988   5.576  14.513  0.0772  0.1498 -0.1729
 1683BOLB   C3B40379  14.478   5.310  14.516  0.0873 -0.2309 -0.1779
 1683BOLB   C4B40380  14.752   4.975  14.309  0.1243 -0.2981  0.2048
 1683BOLB   NC240381  13.987   3.653  11.572 -0.0014 -0.3071 -0.2351
 1683BOLB   PO240382  14.404   3.722  11.344 -0.2129  0.0979 -0.0677
 1683BOLB   GL340383  14.328   4.106  11.591 -0.2395 -0.1709 -0.3847
 1683BOLB   GL440384  14.039   4.241  11.691 -0.3074  0.2585  0.0534
 1683BOLB   C1C40385  14.511   4.445  11.933  0.1746  0.2999  0.1125
 1683BOLB   C2C40386  14.594   4.811  12.096  0.0168 -0.0504  0.1101
 1683BOLB   C3C40387  14.731   5.203  12.398 -0.0210  0.1323  0.2003
 1683BOLB   C4C40388  14.655   5.559  12.625  0.3569 -0.0472  0.2402
 1683BOLB   C1D40389  14.116   4.663  11.675  0.5129 -0.1923  0.2646
 1683BOLB   C2D40390  14.104   4.995  11.906 -0.0597  0.2096  0.1015
 1683BOLB   C3D40391  14.149   4.978  12.285 -0.0325 -0.0662 -0.4784
 1683BOLB   C4D40392  13.938   4.810  12.694 -0.1917  0.0896 -0.1785
 1684BOLB   NC140393  17.136   7.697  15.973 -0.2013 -0.2174 -0.0251
 1684BOLB   PO140394  17.562   7.800  16.302  0.1764  0.0403  0.1236
 1684BOLB   GL140395  17.704   7.429  16.453 -0.2064 -0.0120 -0.1341
 1684BOLB   GL240396  17.932   7.213  16.703 -0.1439 -0.0427 -0.0786
 1684BOLB   C1A40397  17.819   7.101  16.212  0.0689 -0.0448  0.0133
 1684BOLB   C2A40398  18.233   6.781  16.252  0.0096 -0.0460  0.2160
 1684BOLB   C3A40399  18.464   6.456  16.252 -0.0658  0.1068  0.1891
 1684BOLB   C4A40400  18.860   6.104  16.118  0.0874 -0.0074 -0.0092
 1684BOLB   C1B40401  18.351   6.929  16.747 -0.1552  0.0489  0.1660
 1684BOLB   C2B40402  18.717   6.774  16.528 -0.0702 -0.3056  0.1393
 1684BOLB   C3B40403  18.940   6.459  16.439  0.1128 -0.1267  0.1464
 1684BOLB   C4B40404  19.173   6.002  16.441  0.2645 -0.0038 -0.0865
 1684BOLB   NC240405  19.586   4.359  17.144 -0.2635  0.3587  0.2279
 1684BOLB   PO240406  20.055   4.338  17.333 -0.2457  0.1627 -0.0726
 1684BOLB   GL340407  19.858   4.735  17.391  0.1025  0.2373 -0.2112
 1684BOLB   GL440408  19.745   4.745  17.666 -0.0620  0.1456 -0.1796
 1684BOLB   C1C40409  19.776   5.183  17.131 -0.0911  0.0935 -0.2588
 1684BOLB   C2C40410  19.519   5.445  16.865  0.0642 -0.0206  0.1396
 1684BOLB   C3C40411  19.217   5.671  16.840  0.1785  0.0774 -0.2205
 1684BOLB   C4C40412  18.827   5.687  16.446  0.0469  0.0756  0.1709
 1684BOLB   C1D40413  19.475   5.004  17.716 -0.0651  0.0350 -0.0871
 1684BOLB   C2D40414  19.177   5.362  17.847  0.0930  0.1389  0.1120
 1684BOLB   C3D40415  19.146   5.789  17.831 -0.1468  0.2350 -0.1982
 1684BOLB   C4D40416  18.700   5.951  17.922  0.1762 -0.2404 -0.0718
 1685BOLB   NC140417  17.658   8.065  18.220 -0.4267 -0.3409  0.0296
 1685BOLB   PO140418  17.702   7.852  17.805 -0.0228 -0.0478  0.0365
 1685BOLB   GL140419  18.048   7.492  17.922 -0.0445 -0.0694  0.0254
 1685BOLB   GL240420  18.393   7.566  18.023 -0.1373 -0.0430 -0.0249
 1685BOLB   C1A40421  18.309   7.079  17.967 -0.1793 -0.4269  0.0567
 1685BOLB   C2A40422  18.628   6.745  17.985  0.2896  0.1952 -0.0201
 1685BOLB   C3A40423  19.015   6.724  17.961 -0.0859  0.1361 -0.0968
 1685BOLB   C4A40424  19.254   6.415  17.881 -0.1122 -0.0640 -0.1419
 1685BOLB   C1B40425  18.838   7.627  17.870  0.0654 -0.2659  0.1584
 1685BOLB   C2B40426  19.296   7.670  17.925  0.2260  0.0953 -0.0436
 1685BOLB   C3B40427  19.589   7.302  17.859  0.0006  0.3649  0.1298
 1685BOLB   C4B40428  19.995   7.047  17.718  0.3423  0.4514 -0.3617
 1685BOLB   NC240429  20.559   4.759  16.712 -0.1325  0.2072 -0.0078
 1685BOLB   PO240430  20.800   5.121  16.648 -0.2576  0.0515 -0.0227
 1685BOLB   GL340431  20.520   5.322  16.793  0.0025  0.0693  0.0253
 1685BOLB   GL440432  20.543   5.376  17.164 -0.2247  0.2278 -0.0850
 1685BOLB   C1C40433  20.116   5.577  16.969 -0.1295  0.0545 -0.0088
 1685BOLB   C2C40434  20.099   6.028  17.133 -0.0569 -0.2890  0.2056
 1685BOLB   C3C40435  19.874   6.154  17.481  0.0189  0.0693 -0.0750
 1685BOLB   C4C40436  19.528   6.219  17.597  0.0289 -0.1418  0.0701
 1685BOLB   C1D40437  20.593   5.824  17.176 -0.1655 -0.0241 -0.0539
 1685BOLB   C2D40438  20.530   6.251  16.916  0.1015 -0.1072 -0.0403
 1685BOLB   C3D40439  20.338   6.626  16.972  0.0160 -0.0463 -0.1250
 1685BOLB   C4D40440  20.075   6.984  16.856  0.0401  0.0035  0.1318
 1686BOLB   NC140441  11.517   4.303  12.263 -0.1973  0.3171 -0.0970
 1686BOLB   PO140442  11.882   4.444  12.349 -0.0931 -0.2585  0.0023
 1686BOLB   GL140443  12.265   4.709  12.425  0.2047  0.2155 -0.2005
 1686BOLB   GL240444  12.529   4.566  12.300 -0.2258  0.0686  0.1949
 1686BOLB   C1A40445  12.349   5.104  12.365  0.2964  0.0369 -0.3935
 1686BOLB   C2A40446  12.453   5.421  12.234  0.2314 -0.0100  0.1697
 1686BOLB   C3A40447  12.616   5.751  12.048 -0.4536  0.2361 -0.0187
 1686BOLB   C4A40448  12.694   6.134  12.034 -0.1335 -0.2627  0.1185
 1686BOLB   C1B40449  12.425   4.883  11.923  0.0807 -0.2225 -0.3182
 1686BOLB   C2B40450  12.211   5.236  11.799  0.0514  0.1898  0.1220
 1686BOLB   C3B40451  12.056   5.482  11.395 -0.1196  0.3350 -0.0041
 1686BOLB   C4B40452  11.637   5.497  11.529 -0.1115  0.1385 -0.0289
 1686BOLB   NC240453  12.440   5.051   9.933  0.1041  0.1383 -0.1384
 1686BOLB   PO240454  12.217   4.951  10.241  0.1912  0.2318 -0.0212
 1686BOLB   GL340455  12.372   5.337  10.373  0.2081  0.2194  0.1412
 1686BOLB   GL440456  12.035   5.437  10.480  0.2420 -0.0670 -0.0578
 1686BOLB   C1C40457  12.637   5.655  10.629  0.0392  0.1041 -0.2919
 1686BOLB   C2C40458  12.521   6.009  10.759 -0.1680  0.1362 -0.3258
 1686BOLB   C3C40459  12.464   6.197  11.209 -0.1336 -0.1030  0.2989
 1686BOLB   C4C40460  12.584   6.409  11.620 -0.0337  0.0505 -0.1874
 1686BOLB   C1D40461  12.235   5.412  10.876  0.1940 -0.2379 -0.1213
 1686BOLB   C2D40462  12.479   5.666  11.145  0.1431 -0.0070 -0.1506
 1686BOLB   C3D40463  12.728   5.510  11.425 -0.1252  0.2228  0.0957
 1686BOLB   C4D40464  12.771   5.319  11.876  0.0287 -0.0044  0.0174
 1687BOLB   NC140465  15.716   7.990  14.496  0.1068  0.1897 -0.0686
 1687BOLB   PO140466  16.105   7.911  14.566 -0.1147  0.2415  0.2180
 1687BOLB   GL140467  16.059   7.667  14.241  0.3275 -0.0326  0.4204
 1687BOLB   GL240468  16.345   7.435  14.488 -0.1698  0.0838 -0.3712
 1687BOLB   C1A40469  16.226   7.341  14.017  0.1594 -0.1290 -0.1745
 1687BOLB   C2A40470  16.419   6.948  14.055  0.0453 -0.0478 -0.1448
 1687BOLB   C3A40471  16.576   6.627  13.877  0.1921  0.0306  0.0800
 1687BOLB   C4A40472  16.513   6.228  13.635 -0.1292  0.0625 -0.0546
 1687BOLB   C1B40473  16.656   7.160  14.453  0.2249 -0.1022 -0.1514
 1687BOLB   C2B40474  16.947   6.890  14.303 -0.5301  0.1338 -0.2613
 1687BOLB   C3B40475  16.931   6.445  14.137 -0.1270 -0.1281  0.1101
 1687BOLB   C4B40476  17.166   6.067  14.135  0.1635 -0.0942 -0.1789
 1687BOLB   NC240477  18.161   5.128  12.107  0.0072  0.0010 -0.2133
 1687BOLB   PO240478  17.939   4.811  11.803  0.0767 -0.3918 -0.1794
 1687BOLB   GL340479  17.661   5.014  12.151 -0.1682 -0.3561 -0.1327
 1687BOLB   GL440480  17.443   4.893  12.383 -0.3702 -0.0291 -0.0160
 1687BOLB   C1C40481  17.483   5.345  12.551  0.1357  0.1094  0.0404
 1687BOLB   C2C40482  17.319   5.641  12.763  0.0113 -0.0299  0.1030
 1687BOLB   C3C40483  17.121   5.924  12.957 -0.0571 -0.1932 -0.0356
 1687BOLB   C4C40484  16.804   6.043  13.290  0.0790 -0.0307  0.1317
 1687BOLB   C1D40485  17.129   5.056  12.731  0.0974  0.1311  0.1842
 1687BOLB   C2D40486  17.020   5.338  13.024  0.0369 -0.0661 -0.1469
 1687BOLB   C3D40487  16.653   5.529  13.254  0.0694  0.0635 -0.1827
 1687BOLB   C4D40488  16.501   5.667  13.533 -0.0122 -0.1682  0.0259
 1688BOLB   NC140489  16.256   2.163  16.692 -0.1616  0.0211  0.0811
 1688BOLB   PO140490  16.345   2.547  16.372  0.1789 -0.2612  0.2908
 1688BOLB   GL140491  16.371   2.872  16.530  0.0585 -0.0516 -0.3343
 1688BOLB   GL240492  16.049   3.098  16.455  0.0733  0.1850 -0.0783
 1688BOLB   C1A40493  16.538   3.217  16.519 -0.0171  0.1674  0.0098
 1688BOLB   C2A40494  16.674   3.461  16.154 -0.1646 -0.0083 -0.0264
 1688BOLB   C3A40495  16.636   3.572  15.845  0.0384 -0.0659  0.1666
 1688BOLB   C4A40496  16.303   3.724  15.678 -0.5008  0.1105  0.0773
 1688BOLB   C1B40497  15.939   3.516  16.307 -0.0068 -0.0819  0.0449
 1688BOLB   C2B40498  15.822   3.700  15.904  0.0869 -0.2612 -0.1306
 1688BOLB   C3B40499  15.659   4.004  15.654 -0.1359 -0.1884  0.0418
 1688BOLB   C4B40500  15.382   4.075  15.368  0.0752 -0.1427 -0.1181
 1688BOLB   NC240501  17.328   2.985  14.165  0.0208 -0.1432  0.0392
 1688BOLB   PO240502  17.036   3.229  14.325 -0.1579  0.0254  0.2568
 1688BOLB   GL340503  16.887   3.710  14.163  0.0349  0.0185  0.2613
 1688BOLB   GL440504  16.679   3.565  14.015  0.1174 -0.0440  0.2043
 1688BOLB   C1C40505  16.717   4.044  14.360  0.1395 -0.0275  0.0467
 1688BOLB   C2C40506  16.514   4.223  14.682  0.1922  0.0008  0.1811
 1688BOLB   C3C40507  16.310   4.328  15.115  0.1882  0.0037  0.0072
 1688BOLB   C4C40508  16.352   4.070  15.521  0.0838  0.0777 -0.0182
 1688BOLB   C1D40509  16.338   3.789  14.063  0.1635 -0.2069  0.1731
 1688BOLB   C2D40510  16.056   4.044  14.367 -0.1602  0.0789 -0.2810
 1688BOLB   C3D40511  15.970   4.333  14.619  0.1552 -0.0450 -0.1687
 1688BOLB   C4D40512  15.842   4.606  14.881 -0.2871  0.1665  0.3109
 1689BOLB   NC140513  11.411   6.859  13.296  0.2379 -0.4367 -0.2093
 1689BOLB   PO140514  11.527   6.463  13.160 -0.2864  0.1365  0.0932
 1689BOLB   GL140515  11.917   6.414  12.912  0.0622 -0.1523  0.1369
 1689BOLB   GL240516  12.020   6.207  12.913 -0.2585 -0.1800  0.0983
 1689BOLB   C1A40517  12.338   6.280  12.584 -0.0151  0.6405  0.0324
 1689BOLB   C2A40518  12.736   6.344  12.479  0.0197 -0.2798  0.1989
 1689BOLB   C3A40519  13.083   6.036  12.430  0.0535  0.1726  0.1766
 1689BOLB   C4A40520  13.224   5.984  12.017  0.1593 -0.0185  0.1525
 1689BOLB   C1B40521  11.701   6.191  12.528 -0.0587 -0.1498 -0.1075
 1689BOLB   C2B40522  11.586   5.974  12.162 -0.1378 -0.1570  0.0728
 1689BOLB   C3B40523  11.727   5.931  11.769 -0.0723 -0.0162 -0.0508
 1689BOLB   C4B40524  11.581   5.994  11.409 -0.0420  0.1989  0.1768
 1689BOLB   NC240525  13.577   4.463  10.759  0.0796  0.0699  0.1257
 1689BOLB   PO240526  13.775   4.551  10.311 -0.3942  0.0467  0.3351
 1689BOLB   GL340527  13.710   4.925  10.483  0.0593 -0.0034  0.0778
 1689BOLB   GL440528  13.430   5.191  10.460 -0.1779 -0.1893  0.0149
 1689BOLB   C1C40529  13.880   5.254  10.687 -0.0122 -0.0150 -0.0438
 1689BOLB   C2C40530  13.880   5.646  11.037  0.0178  0.0432  0.2428
 1689BOLB   C3C40531  13.537   5.851  11.242  0.1892  0.2506 -0.1994
 1689BOLB   C4C40532  13.293   6.009  11.565  0.2082  0.1517  0.1361
 1689BOLB   C1D40533  13.452   5.471  10.813 -0.1208  0.0352 -0.0826
 1689BOLB   C2D40534  13.259   5.373  11.283 -0.1609  0.2120 -0.2984
 1689BOLB   C3D40535  13.255   5.234  11.616 -0.0906 -0.0585 -0.1628
 1689BOLB   C4D40536  13.154   4.894  11.930 -0.4816  0.1505  0.4283
 1690BOLB   NC140537  14.822   7.604  14.305  0.0900 -0.1541  0.0072
 1690BOLB   PO140538  15.267   7.804  14.341  0.1904  0.1598  0.1554
 1690BOLB   GL140539  15.616   7.498  14.138  0.0799  0.2310 -0.1357
 1690BOLB   GL240540  15.637   7.200  14.286  0.0662 -0.0296 -0.1442
 1690BOLB   C1A40541  15.846   7.333  13.715 -0.0122 -0.0106  0.1062
 1690BOLB   C2A40542  16.068   7.147  13.383 -0.0231  0.3402  0.2052
 1690BOLB   C3A40543  16.177   7.085  12.987 -0.1418  0.0566 -0.1437
 1690BOLB   C4A40544  16.116   6.976  12.503  0.1989  0.2307  0.3312
 1690BOLB   C1B40545  15.830   6.913  14.039 -0.0880  0.0700 -0.0712
 1690BOLB   C2B40546  16.084   6.733  13.766 -0.1422  0.0157  0.1112
 1690BOLB   C3B40547  16.325   6.715  13.359 -0.2375 -0.3390 -0.1960
 1690BOLB   C4B40548  16.710   6.561  13.241  0.1004  0.1307  0.1429
 1690BOLB   NC240549  16.399   6.041  10.375  0.0393  0.2138 -0.0052
 1690BOLB   PO240550  16.813   6.213  10.291  0.0729  0.2114 -0.2149
 1690BOLB   GL340551  16.611   6.392  10.643  0.2715 -0.0078 -0.5023
 1690BOLB   GL440552  16.569   6.777  10.573 -0.0898 -0.1802 -0.0658
 1690BOLB   C1C40553  16.567   6.376  11.102  0.1554  0.3660  0.1271
 1690BOLB   C2C40554  16.342   6.492  11.521  0.0626  0.0945  0.2750
 1690BOLB   C3C40555  16.378   6.666  11.830  0.0807 -0.1108 -0.2604
 1690BOLB   C4C40556  16.217   6.965  12.118 -0.1009 -0.2204  0.0450
 1690BOLB   C1D40557  16.609   7.110  10.898 -0.2870 -0.1838 -0.0546
 1690BOLB   C2D40558  16.447   7.474  10.826 -0.0928 -0.0627 -0.0538
 1690BOLB   C3D40559  16.356   7.926  10.721 -0.1705  0.0456  0.0044
 1690BOLB   C4D40560  16.367   8.088  10.409 -0.0231 -0.0777 -0.1580
 1691BOLB   NC140561  19.930   9.725  17.463  0.3391  0.1212 -0.0325
 1691BOLB   PO140562  20.360   9.479  17.558 -0.3483 -0.1804  0.0974
 1691BOLB   GL140563  20.533   9.115  17.500  0.0046  0.1652  0.1110
 1691BOLB   GL240564  20.749   8.943  17.636 -0.5347 -0.1777  0.2370
 1691BOLB   C1A40565  20.467   8.856  17.102  0.4588 -0.5684  0.0403
 1691BOLB   C2A40566  20.589   8.533  17.003  0.1279  0.0387 -0.4696
 1691BOLB   C3A40567  20.851   8.091  16.962  0.1385 -0.2340  0.1088
 1691BOLB   C4A40568  20.972   7.717  17.096  0.6113  0.1573 -0.3196
 1691BOLB   C1B40569  20.909   8.564  17.656 -0.3727 -0.3897 -0.4365
 1691BOLB   C2B40570  21.172   8.355  17.938  0.4792  0.0125  0.0238
 1691BOLB   C3B40571  21.073   7.923  17.951 -0.1335  0.0335  0.0684
 1691BOLB   C4B40572  21.295   7.551  17.938  0.0073  0.0006 -0.1141
 1691BOLB   NC240573  22.818   6.338  16.806 -0.2670 -0.1638 -0.0839
 1691BOLB   PO240574  22.881   6.552  17.183  0.0584 -0.2442  0.1718
 1691BOLB   GL340575  22.523   6.865  17.397 -0.3985 -0.0456 -0.0965
 1691BOLB   GL440576  22.592   7.186  17.305  0.3428 -0.0254  0.0492
 1691BOLB   C1C40577  22.079   6.815  17.277  0.0890 -0.1198  0.0666
 1691BOLB   C2C40578  21.711   6.739  17.121  0.4376  0.3135 -0.0110
 1691BOLB   C3C40579  21.269   6.971  17.001  0.0479  0.1089  0.1486
 1691BOLB   C4C40580  21.133   7.349  16.846  0.0075  0.1585 -0.0964
 1691BOLB   C1D40581  22.814   7.387  17.091 -0.1253 -0.3123  0.0932
 1691BOLB   C2D40582  23.008   7.616  16.704 -0.1028 -0.1793  0.1222
 1691BOLB   C3D40583  22.886   7.763  16.380 -0.0372  0.0486 -0.0639
 1691BOLB   C4D40584  22.737   8.221  16.420 -0.1934  0.1013  0.0307
 1692BOLB   NC140585  14.445   7.601  14.934 -0.2229 -0.0040  0.3856
 1692BOLB   PO140586  14.663   7.225  14.652 -0.0475 -0.1970 -0.0230
 1692BOLB   GL140587  14.666   7.083  14.213  0.1811 -0.3828  0.0509
 1692BOLB   GL240588  15.073   7.163  14.235  0.1241 -0.2796 -0.0714
 1692BOLB   C1A40589  14.812   6.937  13.716 -0.1438 -0.1007  0.1673
 1692BOLB   C2A40590  15.085   6.802  13.435  0.1580  0.2310  0.0842
 1692BOLB   C3A40591  15.357   6.702  13.107 -0.1240  0.1016 -0.1098
 1692BOLB   C4A40592  15.618   6.505  12.791  0.3656 -0.1413 -0.0557
 1692BOLB   C1B40593  15.249   6.848  13.899  0.1144 -0.0308  0.1550
 1692BOLB   C2B40594  15.507   6.550  13.765 -0.1698  0.1390  0.2493
 1692BOLB   C3B40595  15.787   6.255  13.578 -0.1396  0.1459  0.3356
 1692BOLB   C4B40596  16.124   6.226  13.367 -0.0225 -0.3086  0.1053
 1692BOLB   NC240597  17.172   5.079  10.704 -0.0043  0.0533 -0.1465
 1692BOLB   PO240598  16.949   5.439  10.750  0.0162  0.0725  0.1214
 1692BOLB   GL340599  16.659   5.553  11.139 -0.1158  0.2530  0.0403
 1692BOLB   GL440600  16.900   5.893  11.222  0.3843  0.1768  0.1404
 1692BOLB   C1C40601  16.334   5.448  11.546 -0.1518  0.4299  0.4783
 1692BOLB   C2C40602  16.234   5.641  11.883 -0.2395  0.2824 -0.1205
 1692BOLB   C3C40603  16.049   5.897  12.325  0.3481 -0.0154  0.0499
 1692BOLB   C4C40604  15.636   6.101  12.486 -0.0161  0.2477 -0.0241
 1692BOLB   C1D40605  16.466   5.972  11.585  0.1127 -0.3876  0.2542
 1692BOLB   C2D40606  16.081   6.105  11.856  0.1308  0.0073  0.0218
 1692BOLB   C3D40607  15.756   6.349  12.075 -0.2307  0.1475  0.0560
 1692BOLB   C4D40608  15.776   6.771  12.166 -0.0878  0.1128 -0.0250
 1693BOLB   NC140609  20.447   9.637  15.345  0.2449  0.0698 -0.0796
 1693BOLB   PO140610  20.140   9.507  15.607  0.0522  0.1166 -0.3248
 1693BOLB   GL140611  20.306   9.144  15.623  0.3205 -0.1422 -0.1113
 1693BOLB   GL240612  20.563   9.121  15.350  0.0732  0.0691  0.2081
 1693BOLB   C1A40613  20.302   8.727  15.747 -0.2512  0.2428 -0.3931
 1693BOLB   C2A40614  20.566   8.325  15.790  0.2393 -0.0240 -0.2343
 1693BOLB   C3A40615  20.892   8.066  15.978  0.1425  0.1450 -0.0721
 1693BOLB   C4A40616  21.298   7.936  15.981 -0.1344  0.0245  0.1332
 1693BOLB   C1B40617  20.734   8.673  15.383 -0.0490 -0.0754 -0.0490
 1693BOLB   C2B40618  20.795   8.361  15.210 -0.1428 -0.0425 -0.0746
 1693BOLB   C3B40619  20.791   7.970  15.108 -0.2513 -0.1260  0.0988
 1693BOLB   C4B40620  20.573   7.718  15.149 -0.3350  0.2891  0.0802
 1693BOLB   NC240621  21.685   5.728  15.796 -0.2135  0.3693  0.2515
 1693BOLB   PO240622  21.875   5.704  15.494 -0.0150  0.1549 -0.1360
 1693BOLB   GL340623  21.564   6.098  15.451 -0.3124 -0.2607 -0.3841
 1693BOLB   GL440624  21.255   6.078  15.660 -0.3547 -0.2345  0.4724
 1693BOLB   C1C40625  21.621   6.521  15.616  0.2818  0.1972 -0.0464
 1693BOLB   C2C40626  21.669   6.900  15.791  0.0341  0.3590 -0.1494
 1693BOLB   C3C40627  21.509   7.379  15.706  0.3747 -0.1162 -0.1108
 1693BOLB   C4C40628  21.599   7.676  16.011 -0.1779 -0.0957 -0.1188
 1693BOLB   C1D40629  20.936   6.311  15.934 -0.0042  0.1686 -0.0943
 1693BOLB   C2D40630  20.545   6.580  15.996 -0.1010  0.0851  0.1574
 1693BOLB   C3D40631  20.064   6.576  15.803 -0.1864  0.1084 -0.0213
 1693BOLB   C4D40632  19.610   6.420  15.666 -0.0558 -0.1352 -0.0827
 1694BOLB   NC140633  12.398   7.887  13.320 -0.0315 -0.1534 -0.0405
 1694BOLB   PO140634  12.658   7.414  13.296  0.5361 -0.1025  0.0555
 1694BOLB   GL140635  12.820   6.917  13.001 -0.1913  0.1028 -0.0321
 1694BOLB   GL240636  12.981   6.619  13.161 -0.2379 -0.2760 -0.0175
 1694BOLB   C1A40637  13.068   6.710  12.600  0.1275 -0.0571  0.1062
 1694BOLB   C2A40638  13.412   6.429  12.285 -0.1016 -0.1245 -0.1268
 1694BOLB   C3A40639  13.593   6.295  11.876 -0.0100  0.2460  0.3390
 1694BOLB   C4A40640  13.787   6.224  11.496  0.2342  0.0704 -0.4212
 1694BOLB   C1B40641  13.068   6.289  12.892  0.1378 -0.1454  0.0835
 1694BOLB   C2B40642  13.443   6.029  12.829  0.3009 -0.1605  0.1450
 1694BOLB   C3B40643  13.821   5.877  12.735 -0.4159  0.1343  0.0655
 1694BOLB   C4B40644  14.225   5.805  12.843  0.1117  0.0493  0.3184
 1694BOLB   NC240645  13.666   5.577   9.205 -0.3380 -0.2194 -0.0487
 1694BOLB   PO240646  13.767   5.926   9.312 -0.0646 -0.2867 -0.1074
 1694BOLB   GL340647  13.761   6.142   9.653  0.1411  0.1715 -0.0696
 1694BOLB   GL440648  13.553   6.354   9.788 -0.0305  0.2366 -0.2323
 1694BOLB   C1C40649  13.970   6.316  10.067 -0.1756 -0.1331  0.1066
 1694BOLB   C2C40650  14.176   6.140  10.458 -0.1159  0.0239 -0.3017
 1694BOLB   C3C40651  13.925   6.168  10.847 -0.0035  0.0646 -0.0612
 1694BOLB   C4C40652  13.959   6.193  11.122 -0.1121 -0.0481  0.0196
 1694BOLB   C1D40653  13.609   6.673  10.102  0.0642 -0.2540 -0.4154
 1694BOLB   C2D40654  13.682   7.103   9.949  0.1529 -0.3015  0.0302
 1694BOLB   C3D40655  13.757   7.496   9.972 -0.0199  0.1209  0.0015
 1694BOLB   C4D40656  13.926   7.932  10.244  0.2063 -0.0134 -0.0494
 1695BOLB   NC140657  12.725   6.722  13.958 -0.0141 -0.0125  0.1962
 1695BOLB   PO140658  13.153   6.845  13.771  0.3386 -0.1451 -0.0626
 1695BOLB   GL140659  13.412   6.722  13.395  0.4352 -0.2491  0.0665
 1695BOLB   GL240660  13.668   6.862  13.417 -0.0520  0.2146  0.0801
 1695BOLB   C1A40661  13.518   6.577  12.950 -0.0480 -0.0745  0.1009
 1695BOLB   C2A40662  13.876   6.423  12.707  0.2383 -0.1090  0.0343
 1695BOLB   C3A40663  14.057   6.193  12.440 -0.3362  0.1135  0.1086
 1695BOLB   C4A40664  14.119   5.822  12.315 -0.2601 -0.0243 -0.0025
 1695BOLB   C1B40665  13.877   6.487  13.223  0.0132 -0.0433 -0.1174
 1695BOLB   C2B40666  14.267   6.452  12.933 -0.0907  0.0339 -0.3518
 1695BOLB   C3B40667  14.704   6.346  12.744  0.1256  0.0111 -0.0122
 1695BOLB   C4B40668  15.117   6.286  12.665 -0.0713  0.0146  0.2185
 1695BOLB   NC240669  14.426   4.338  10.939  0.0599 -0.1920 -0.1863
 1695BOLB   PO240670  14.733   4.640  10.777  0.0608 -0.1444 -0.2381
 1695BOLB   GL340671  14.514   5.013  10.882  0.2272 -0.2905 -0.0647
 1695BOLB   GL440672  14.721   5.208  10.752  0.1320 -0.0259 -0.2059
 1695BOLB   C1C40673  14.197   5.224  11.109  0.2137  0.0980  0.2990
 1695BOLB   C2C40674  14.321   5.204  11.475 -0.2427 -0.0762  0.1075
 1695BOLB   C3C40675  14.508   5.291  11.850 -0.0470  0.0747 -0.0722
 1695BOLB   C4C40676  14.403   5.566  12.158  0.0050 -0.2347 -0.1867
 1695BOLB   C1D40677  14.696   5.480  11.037  0.2567 -0.3310  0.1293
 1695BOLB   C2D40678  14.751   5.590  11.515  0.0483  0.0454 -0.0297
 1695BOLB   C3D40679  14.627   5.894  11.866  0.3185  0.2340 -0.1332
 1695BOLB   C4D40680  14.594   5.975  12.405  0.0002 -0.3074  0.0923
 1696BOLB   NC140681  15.080   7.012  14.812  0.2485 -0.2900  0.2017
 1696BOLB   PO140682  15.334   6.895  15.087 -0.1212  0.1235  0.0758
 1696BOLB   GL140683  15.313   6.553  14.875 -0.2910  0.3132  0.0001
 1696BOLB   GL240684  15.016   6.429  14.778  0.0108  0.1921 -0.2262
 1696BOLB   C1A40685  15.743   6.403  14.802 -0.0945 -0.0518  0.2088
 1696BOLB   C2A40686  16.170   6.343  14.605  0.0711  0.0075 -0.1605
 1696BOLB   C3A40687  16.578   6.145  14.539 -0.0028  0.2691  0.2518
 1696BOLB   C4A40688  16.951   6.064  14.548  0.0984  0.3265 -0.0191
 1696BOLB   C1B40689  15.294   6.135  14.612  0.0557  0.2614  0.1066
 1696BOLB   C2B40690  15.608   5.750  14.752 -0.1490  0.0956 -0.0423
 1696BOLB   C3B40691  15.744   5.470  14.642  0.3392 -0.1053  0.2691
 1696BOLB   C4B40692  15.832   4.994  14.516  0.0065 -0.0724 -0.2561
 1696BOLB   NC240693  18.455   4.319  14.344 -0.1491  0.1169  0.5422
 1696BOLB   PO240694  18.405   4.443  13.954 -0.0673  0.5155 -0.2281
 1696BOLB   GL340695  18.594   4.805  14.140  0.1540 -0.0607 -0.2310
 1696BOLB   GL440696  18.888   5.013  13.972 -0.1056 -0.3186  0.0562
 1696BOLB   C1C40697  18.358   5.077  14.379 -0.0351  0.3707  0.0325
 1696BOLB   C2C40698  18.003   5.329  14.344  0.1292 -0.1118 -0.2465
 1696BOLB   C3C40699  17.659   5.507  14.414 -0.4320 -0.0968 -0.1653
 1696BOLB   C4C40700  17.333   5.800  14.543 -0.1320 -0.1077 -0.3665
 1696BOLB   C1D40701  18.774   5.398  14.153 -0.1692  0.1843 -0.1982
 1696BOLB   C2D40702  18.471   5.639  14.315 -0.1000 -0.1372  0.1979
 1696BOLB   C3D40703  18.093   5.881  14.258 -0.0192 -0.0678  0.2914
 1696BOLB   C4D40704  17.723   5.874  14.068  0.1812 -0.3006  0.5064
 1697BOLB   NC140705  18.351   9.169  15.332 -0.2910  0.3022  0.1254
 1697BOLB   PO140706  18.515   9.050  14.905 -0.3824  0.2536 -0.1683
 1697BOLB   GL140707  18.617   8.649  14.824  0.0370  0.0494 -0.3723
 1697BOLB   GL240708  18.810   8.707  14.643 -0.2932  0.1781  0.0898
 1697BOLB   C1A40709  18.842   8.203  14.889 -0.1457 -0.3426 -0.0839
 1697BOLB   C2A40710  18.997   7.788  14.806 -0.0129 -0.1630  0.0705
 1697BOLB   C3A40711  19.286   7.576  14.574  0.0240  0.0145  0.0331
 1697BOLB   C4A40712  19.319   7.355  14.172  0.0700 -0.1920 -0.1465
 1697BOLB   C1B40713  19.025   8.318  14.460 -0.1828 -0.1613 -0.2025
 1697BOLB   C2B40714  19.362   8.000  14.302 -0.0134 -0.0054  0.0816
 1697BOLB   C3B40715  19.667   7.822  14.065  0.2813 -0.1931 -0.2570
 1697BOLB   C4B40716  19.635   7.577  13.779  0.2337 -0.1182  0.0093
 1697BOLB   NC240717  20.348   5.295  14.236  0.0652  0.4927 -0.1417
 1697BOLB   PO240718  19.951   5.335  14.131  0.2070 -0.0033 -0.0059
 1697BOLB   GL340719  19.541   5.699  14.100 -0.0124  0.3831  0.2530
 1697BOLB   GL440720  19.829   5.959  13.998  0.1540 -0.2546  0.0898
 1697BOLB   C1C40721  19.284   6.030  13.884  0.2440 -0.1927 -0.0304
 1697BOLB   C2C40722  19.066   6.380  13.840  0.0772  0.3112 -0.0868
 1697BOLB   C3C40723  19.129   6.773  13.622 -0.2011 -0.1479  0.2297
 1697BOLB   C4C40724  19.241   7.219  13.863 -0.1289 -0.1977 -0.2674
 1697BOLB   C1D40725  20.047   6.411  14.181 -0.0412 -0.1710 -0.1211
 1697BOLB   C2D40726  19.755   6.699  14.369  0.1296  0.1062 -0.1012
 1697BOLB   C3D40727  19.368   6.957  14.462  0.0277 -0.0815  0.1003
 1697BOLB   C4D40728  18.981   6.902  14.571  0.1775  0.2038  0.0517
 1698BOLB   NC140729  18.518   8.347  17.538  0.4933 -0.1011 -0.1109
 1698BOLB   PO140730  18.631   8.553  17.150  0.0809  0.0123 -0.0958
 1698BOLB   GL140731  18.855   8.370  16.860 -0.0968  0.0754  0.2009
 1698BOLB   GL240732  18.584   8.247  16.686 -0.2308  0.1006  0.2779
 1698BOLB   C1A40733  19.067   8.055  16.690 -0.1050  0.0223 -0.0643
 1698BOLB   C2A40734  19.193   7.662  16.512 -0.0060  0.3346 -0.0441
 1698BOLB   C3A40735  19.588   7.381  16.380  0.2387 -0.3077 -0.1539
 1698BOLB   C4A40736  19.732   7.286  16.024  0.2392  0.2389  0.2685
 1698BOLB   C1B40737  18.681   7.822  16.842  0.4268  0.0934 -0.0336
 1698BOLB   C2B40738  18.784   7.366  16.686 -0.1520  0.3553  0.0946
 1698BOLB   C3B40739  19.112   7.210  16.829 -0.0253 -0.3077 -0.1438
 1698BOLB   C4B40740  19.627   7.159  16.877 -0.3547 -0.0312 -0.1140
 1698BOLB   NC240741  21.534   5.547  14.902 -0.2506 -0.2552  0.0268
 1698BOLB   PO240742  21.701   5.865  15.064 -0.0244  0.0281  0.0200
 1698BOLB   GL340743  21.293   6.190  15.041 -0.0725 -0.0466  0.0434
 1698BOLB   GL440744  21.275   6.363  14.723 -0.0445  0.2728  0.1162
 1698BOLB   C1C40745  21.199   6.448  15.366  0.0980 -0.2015  0.0030
 1698BOLB   C2C40746  20.915   6.729  15.495  0.0010  0.3107  0.0442
 1698BOLB   C3C40747  20.466   6.864  15.630  0.4935 -0.2824 -0.0984
 1698BOLB   C4C40748  20.167   7.025  15.935  0.0838  0.1810 -0.0680
 1698BOLB   C1D40749  21.327   6.684  14.943  0.0765 -0.1833  0.4667
 1698BOLB   C2D40750  21.026   6.999  15.026  0.2750  0.1604  0.2288
 1698BOLB   C3D40751  20.708   7.319  14.832  0.0873 -0.3828  0.0038
 1698BOLB   C4D40752  20.568   7.731  14.620 -0.1653 -0.2440 -0.0278
 1699BOLB   NC140753  22.202  27.386  12.150 -0.0483  0.0152  0.0580
 1699BOLB   PO140754  22.516  27.221  12.180  0.1561 -0.0650 -0.0320
 1699BOLB   GL140755  22.321  26.909  12.243  0.1410  0.2468 -0.0177
 1699BOLB   GL240756  22.135  27.095  12.511  0.1796  0.4793  0.2596
 1699BOLB   C1A40757  22.452  26.450  12.268  0.1208  0.0639  0.2099
 1699BOLB   C2A40758  22.671  25.955  12.039 -0.1026 -0.3122  0.0447
 1699BOLB   C3A40759  22.673  25.554  12.128 -0.1206 -0.1990  0.1401
 1699BOLB   C4A40760  22.648  25.386  11.651  0.0026 -0.3400 -0.2373
 1699BOLB   C1B40761  22.361  26.782  12.735  0.0842  0.1950  0.1327
 1699BOLB   C2B40762  22.361  26.690  13.168 -0.0449  0.3265 -0.1122
 1699BOLB   C3B40763  22.540  26.727  13.561  0.1465 -0.1495 -0.3183
 1699BOLB   C4B40764  22.720  26.869  13.980 -0.3797 -0.0531 -0.0737
 1699BOLB   NC240765  24.458  25.521  11.758 -0.4359  0.0388 -0.0656
 1699BOLB   PO240766  24.308  25.124  11.951  0.1172  0.2335  0.3475
 1699BOLB   GL340767  23.895  25.012  12.019  0.1341  0.1511 -0.1505
 1699BOLB   GL440768  23.619  25.213  12.198 -0.0157 -0.1653 -0.0729
 1699BOLB   C1C40769  23.435  24.791  12.185 -0.1677 -0.3404 -0.0243
 1699BOLB   C2C40770  22.988  24.622  12.185  0.3365  0.0221 -0.0957
 1699BOLB   C3C40771  22.644  24.781  12.055 -0.2916 -0.0251  0.2259
 1699BOLB   C4C40772  22.583  24.987  11.672  0.0109 -0.1938  0.1180
 1699BOLB   C1D40773  23.602  25.321  11.760  0.1318 -0.1253  0.0451
 1699BOLB   C2D40774  23.546  25.257  11.356  0.0044  0.1440  0.3335
 1699BOLB   C3D40775  23.291  25.082  11.089 -0.2120  0.2684 -0.1132
 1699BOLB   C4D40776  22.910  25.019  10.799  0.1489  0.3575 -0.0013
 1700BOLB   NC140777  23.585  25.344  14.410 -0.1912  0.2212  0.2386
 1700BOLB   PO140778  23.226  25.546  14.272 -0.2295 -0.0316 -0.0890
 1700BOLB   GL140779  22.871  25.781  14.194  0.1007 -0.0304  0.0791
 1700BOLB   GL240780  22.684  25.477  14.105 -0.2457  0.0509 -0.1893
 1700BOLB   C1A40781  22.689  26.059  14.355  0.0610 -0.1464 -0.4453
 1700BOLB   C2A40782  22.444  26.345  14.588 -0.0412  0.0255  0.0227
 1700BOLB   C3A40783  22.250  26.397  14.939 -0.0377  0.0434 -0.0584
 1700BOLB   C4A40784  22.067  26.619  15.310  0.1171 -0.0393 -0.2498
 1700BOLB   C1B40785  22.269  25.485  13.937 -0.2131 -0.0283 -0.1775
 1700BOLB   C2B40786  21.959  25.755  13.682  0.1035  0.1434 -0.3089
 1700BOLB   C3B40787  21.714  25.832  13.274  0.1003 -0.0061  0.0442
 1700BOLB   C4B40788  21.575  25.701  12.823  0.0928 -0.1045 -0.2044
 1700BOLB   NC240789  22.330  27.557  16.740 -0.0101 -0.2782  0.1018
 1700BOLB   PO240790  22.192  27.567  17.177  0.2172  0.0276 -0.3157
 1700BOLB   GL340791  21.894  27.415  16.917 -0.0578  0.2663  0.2669
 1700BOLB   GL440792  21.861  27.065  17.190  0.1262 -0.0895  0.1181
 1700BOLB   C1C40793  21.634  27.578  16.591  0.0666  0.3306  0.3619
 1700BOLB   C2C40794  21.467  27.422  16.160  0.2121 -0.0580 -0.0978
 1700BOLB   C3C40795  21.780  27.403  15.769  0.3806 -0.1851 -0.1809
 1700BOLB   C4C40796  21.928  26.957  15.589 -0.1695  0.0061 -0.0473
 1700BOLB   C1D40797  21.483  26.916  17.277  0.0208  0.1920  0.0491
 1700BOLB   C2D40798  21.092  27.064  17.555 -0.0590 -0.1429 -0.3184
 1700BOLB   C3D40799  20.681  27.259  17.543  0.1392 -0.3981  0.0272
 1700BOLB   C4D40800  20.336  27.516  17.365  0.0284 -0.0642 -0.2906
 1701BOLB   NC140801  23.546  22.040  13.493  0.2182  0.0669  0.0402
 1701BOLB   PO140802  23.610  22.199  13.002  0.0681 -0.0211 -0.1267
 1701BOLB   GL140803  23.893  22.130  12.618  0.2701 -0.1308 -0.1393
 1701BOLB   GL240804  24.110  22.403  12.469  0.0101  0.1595 -0.0320
 1701BOLB   C1A40805  23.712  22.161  12.262 -0.0772  0.0471 -0.2732
 1701BOLB   C2A40806  23.859  22.175  11.856  0.1160 -0.0882  0.3126
 1701BOLB   C3A40807  24.032  22.137  11.432 -0.2296  0.0697  0.1293
 1701BOLB   C4A40808  24.350  21.919  11.219  0.0564  0.0097 -0.2605
 1701BOLB   C1B40809  24.037  22.731  12.126  0.0722  0.0860 -0.2787
 1701BOLB   C2B40810  23.914  23.042  11.794  0.1493  0.1283 -0.0022
 1701BOLB   C3B40811  23.507  22.990  11.661 -0.2619 -0.2772  0.0508
 1701BOLB   C4B40812  23.158  23.006  11.319  0.0578 -0.0961 -0.0932
 1701BOLB   NC240813  24.888  21.649   9.237  0.5049  0.0616  0.0991
 1701BOLB   PO240814  25.078  21.173   9.278  0.1907  0.2708 -0.2885
 1701BOLB   GL340815  24.987  21.181   9.674 -0.2649  0.3379 -0.3399
 1701BOLB   GL440816  24.738  21.336   9.598  0.1824 -0.2058 -0.0661
 1701BOLB   C1C40817  24.770  20.988  10.022  0.1505  0.0276 -0.1745
 1701BOLB   C2C40818  24.510  21.173  10.354  0.3417 -0.3770  0.2987
 1701BOLB   C3C40819  24.354  21.230  10.729  0.0558 -0.0616 -0.0162
 1701BOLB   C4C40820  24.224  21.478  11.041  0.3306  0.0782 -0.2098
 1701BOLB   C1D40821  24.402  21.148   9.799  0.2056  0.0540 -0.0807
 1701BOLB   C2D40822  24.005  20.867   9.950  0.0748 -0.2973  0.1998
 1701BOLB   C3D40823  23.514  20.953  10.051 -0.0624  0.3509 -0.3345
 1701BOLB   C4D40824  23.232  21.342   9.814 -0.0647 -0.0834 -0.1356
 1702BOLB   NC140825  27.758  19.101  15.904 -0.3208 -0.2683  0.0646
 1702BOLB   PO140826  27.467  18.971  16.262  0.0535 -0.2278  0.1241
 1702BOLB   GL140827  27.130  18.980  16.376 -0.2497  0.0847 -0.3162
 1702BOLB   GL240828  26.984  18.714  16.509  0.0617  0.3357 -0.0563
 1702BOLB   C1A40829  26.683  19.003  16.159  0.0837 -0.0511 -0.0566
 1702BOLB   C2A40830  26.485  18.855  15.751  0.1433 -0.1056  0.3070
 1702BOLB   C3A40831  26.349  18.707  15.321  0.2075 -0.1821  0.1871
 1702BOLB   C4A40832  25.941  18.772  15.159 -0.0725 -0.0843  0.0591
 1702BOLB   C1B40833  26.878  18.440  16.822  0.1656 -0.4215 -0.3699
 1702BOLB   C2B40834  26.632  18.199  16.981  0.0536 -0.1242  0.1108
 1702BOLB   C3B40835  26.264  18.134  16.969  0.2991  0.1370  0.0940
 1702BOLB   C4B40836  25.907  17.853  16.975  0.1210  0.3730 -0.0695
 1702BOLB   NC240837  26.454  19.084  13.826 -0.2097  0.3130 -0.1855
 1702BOLB   PO240838  26.461  19.298  14.205 -0.0611  0.1880 -0.1469
 1702BOLB   GL340839  26.174  19.486  14.515  0.0320 -0.1066  0.1799
 1702BOLB   GL440840  26.165  19.550  14.735  0.0293 -0.0560  0.0078
 1702BOLB   C1C40841  25.745  19.484  14.400  0.3902 -0.4431  0.1638
 1702BOLB   C2C40842  25.385  19.453  14.565  0.4013  0.2125  0.1396
 1702BOLB   C3C40843  25.287  19.094  14.780 -0.1894  0.1102 -0.0131
 1702BOLB   C4C40844  25.488  18.833  15.007 -0.0554  0.2110  0.1802
 1702BOLB   C1D40845  25.827  19.217  14.816 -0.0273 -0.3099 -0.1227
 1702BOLB   C2D40846  25.767  18.946  14.534 -0.1959  0.1626  0.2469
 1702BOLB   C3D40847  25.750  18.411  14.453 -0.1162  0.2891 -0.1983
 1702BOLB   C4D40848  25.608  18.333  14.776 -0.0728 -0.0541  0.2018
 1703BOLB   NC140849  27.060  18.606  13.923 -0.0573 -0.1456  0.1311
 1703BOLB   PO140850  26.817  18.850  14.082 -0.0034 -0.1106  0.0181
 1703BOLB   GL140851  26.409  18.766  14.203  0.0840 -0.3511 -0.1165
 1703BOLB   GL240852  26.101  18.639  14.123 -0.0084  0.0637  0.0154
 1703BOLB   C1A40853  26.248  18.863  14.649  0.0609  0.3653  0.1193
 1703BOLB   C2A40854  26.314  19.169  14.956  0.1083 -0.1397  0.0942
 1703BOLB   C3A40855  26.344  19.302  15.428  0.2432  0.0133 -0.1637
 1703BOLB   C4A40856  26.319  19.328  15.868 -0.4577 -0.2634 -0.0629
 1703BOLB   C1B40857  25.705  18.667  13.938 -0.1402  0.0195 -0.0426
 1703BOLB   C2B40858  25.323  18.646  13.630 -0.1806  0.0519 -0.0422
 1703BOLB   C3B40859  24.905  18.578  13.540  0.0860 -0.4696 -0.1636
 1703BOLB   C4B40860  24.530  18.388  13.593  0.1353  0.0539 -0.0679
 1703BOLB   NC240861  27.936  18.480  17.552 -0.1742 -0.1387  0.2116
 1703BOLB   PO240862  27.742  18.541  17.129  0.1002 -0.0423  0.0610
 1703BOLB   GL340863  27.385  18.828  17.171 -0.2240 -0.0640 -0.0810
 1703BOLB   GL440864  27.395  18.839  17.473 -0.0325 -0.0901 -0.3530
 1703BOLB   C1C40865  27.059  18.954  16.967 -0.0910  0.1829  0.2332
 1703BOLB   C2C40866  26.630  19.020  16.721 -0.0062  0.1873  0.0632
 1703BOLB   C3C40867  26.447  19.366  16.571 -0.0129 -0.1498  0.1464
 1703BOLB   C4C40868  26.360  19.537  16.204  0.0200  0.1038  0.2294
 1703BOLB   C1D40869  26.894  18.645  17.318  0.2680 -0.1609  0.0414
 1703BOLB   C2D40870  26.555  18.448  17.514  0.0300 -0.2149  0.2767
 1703BOLB   C3D40871  26.319  18.197  17.856 -0.0575  0.0302  0.1154
 1703BOLB   C4D40872  25.840  18.110  17.811  0.0859  0.0003 -0.1897
 1704BOLB   NC140873  23.618  16.198  13.075 -0.1454 -0.0062  0.0395
 1704BOLB   PO140874  23.384  15.910  12.780  0.1340  0.1433  0.1117
 1704BOLB   GL140875  23.561  15.738  12.436  0.2256 -0.1561 -0.0630
 1704BOLB   GL240876  23.510  15.756  12.113  0.1716 -0.0179 -0.1317
 1704BOLB   C1A40877  24.013  15.773  12.317 -0.2835 -0.3769  0.3270
 1704BOLB   C2A40878  24.347  15.644  12.107  0.1008 -0.0613 -0.0609
 1704BOLB   C3A40879  24.542  15.337  11.858  0.3336  0.4056  0.2221
 1704BOLB   C4A40880  24.470  15.091  11.484 -0.2506 -0.4798  0.0551
 1704BOLB   C1B40881  23.413  15.420  11.835  0.0397  0.1566  0.0245
 1704BOLB   C2B40882  23.448  15.184  11.461  0.0953  0.0818  0.3413
 1704BOLB   C3B40883  23.684  14.889  11.254 -0.0659 -0.2854 -0.0422
 1704BOLB   C4B40884  24.055  14.665  11.327  0.0533 -0.2568 -0.0991
 1704BOLB   NC240885  24.740  13.550   9.327  0.2446 -0.1112 -0.0596
 1704BOLB   PO240886  24.442  13.871   9.159  0.0574 -0.0597  0.1496
 1704BOLB   GL340887  24.251  13.918   9.564 -0.3055 -0.1263 -0.1527
 1704BOLB   GL440888  24.393  13.609   9.804  0.0354 -0.1712 -0.3147
 1704BOLB   C1C40889  24.304  14.047   9.952  0.0079 -0.1248  0.1225
 1704BOLB   C2C40890  24.375  14.387  10.372 -0.2168  0.0941 -0.0098
 1704BOLB   C3C40891  24.264  14.696  10.660 -0.0627  0.1253  0.3011
 1704BOLB   C4C40892  24.552  14.849  11.103 -0.4366  0.2734  0.1750
 1704BOLB   C1D40893  23.946  13.416   9.869  0.2729 -0.1210 -0.2441
 1704BOLB   C2D40894  23.562  13.529  10.082 -0.1743  0.0214  0.0096
 1704BOLB   C3D40895  23.199  13.611  10.160  0.1397  0.0473 -0.4488
 1704BOLB   C4D40896  22.838  13.505  10.369 -0.0026  0.1738 -0.3514
 1705BOLB   NC140897  23.509  11.570  17.163 -0.0770  0.1153 -0.4198
 1705BOLB   PO140898  23.761  11.904  16.982 -0.1134  0.0898 -0.0546
 1705BOLB   GL140899  24.084  11.600  17.025  0.3192 -0.2817 -0.2068
 1705BOLB   GL240900  24.337  11.552  17.088 -0.0812 -0.1835  0.1489
 1705BOLB   C1A40901  24.238  11.239  16.659 -0.0550 -0.1978  0.1002
 1705BOLB   C2A40902  24.493  10.828  16.441 -0.0435  0.1796 -0.1532
 1705BOLB   C3A40903  24.673  10.529  16.310 -0.0698 -0.1603  0.1370
 1705BOLB   C4A40904  25.032  10.473  16.456  0.3709 -0.0762 -0.1308
 1705BOLB   C1B40905  24.727  11.409  16.904 -0.2036  0.1353 -0.0123
 1705BOLB   C2B40906  24.801  10.963  16.795 -0.0038 -0.0578 -0.1600
 1705BOLB   C3B40907  24.738  10.568  16.844 -0.1526  0.3456 -0.1879
 1705BOLB   C4B40908  24.746  10.144  16.711  0.1061  0.2762 -0.0040
 1705BOLB   NC240909  26.072   8.100  15.758 -0.0755  0.0832 -0.1711
 1705BOLB   PO240910  25.869   8.403  15.528  0.0239 -0.2860 -0.2833
 1705BOLB   GL340911  25.510   8.656  15.772 -0.0104  0.0914  0.0059
 1705BOLB   GL440912  25.279   8.537  16.044  0.1150 -0.0371  0.0362
 1705BOLB   C1C40913  25.398   9.090  15.906 -0.3497  0.0108  0.0340
 1705BOLB   C2C40914  25.535   9.451  15.935  0.1487 -0.0692 -0.1194
 1705BOLB   C3C40915  25.468   9.856  16.095  0.0156  0.0118 -0.1476
 1705BOLB   C4C40916  25.305  10.179  16.440 -0.1597  0.0976  0.0645
 1705BOLB   C1D40917  24.988   8.802  15.720  0.0501  0.0647 -0.0532
 1705BOLB   C2D40918  24.662   9.019  15.801 -0.0837  0.0173 -0.2160
 1705BOLB   C3D40919  24.482   9.335  15.957  0.1445  0.1462 -0.1002
 1705BOLB   C4D40920  24.325   9.701  16.075  0.0365 -0.1620  0.0397
 1706BOLB   NC140921  23.507  22.774  13.108 -0.0579  0.0120 -0.2073
 1706BOLB   PO140922  23.788  22.966  13.281  0.0808 -0.0505 -0.0986
 1706BOLB   GL140923  23.594  23.201  12.796  0.1574 -0.1715  0.2296
 1706BOLB   GL240924  23.794  23.217  12.546 -0.2125  0.2584  0.2206
 1706BOLB   C1A40925  23.294  23.119  12.408 -0.2124  0.0219 -0.0737
 1706BOLB   C2A40926  23.160  23.295  12.001 -0.1371 -0.0796  0.1835
 1706BOLB   C3A40927  23.012  23.507  11.588 -0.1275  0.0973  0.0958
 1706BOLB   C4A40928  22.904  23.466  11.246 -0.0173 -0.0482 -0.0835
 1706BOLB   C1B40929  23.501  23.613  12.434 -0.0717 -0.2597  0.1526
 1706BOLB   C2B40930  23.408  24.007  12.563  0.0948  0.0007 -0.2341
 1706BOLB   C3B40931  23.293  24.470  12.611 -0.2197  0.0047 -0.2593
 1706BOLB   C4B40932  23.070  24.979  12.579  0.1172 -0.0671 -0.1018
 1706BOLB   NC240933  22.634  24.141   8.506 -0.0309  0.1655  0.0804
 1706BOLB   PO240934  22.711  24.153   8.918  0.1933  0.0969  0.0992
 1706BOLB   GL340935  22.612  23.907   9.314  0.1175  0.1274  0.0333
 1706BOLB   GL440936  22.390  23.689   9.385  0.1336 -0.0843 -0.2392
 1706BOLB   C1C40937  22.620  23.784   9.775  0.0754  0.1048 -0.0521
 1706BOLB   C2C40938  22.413  23.721  10.208  0.0112  0.1838 -0.1797
 1706BOLB   C3C40939  22.505  23.485  10.595  0.1550 -0.2242 -0.1462
 1706BOLB   C4C40940  22.566  23.420  11.009  0.3001  0.3662 -0.0844
 1706BOLB   C1D40941  22.698  23.372   9.395  0.1858  0.2708 -0.0851
 1706BOLB   C2D40942  22.423  22.971   9.439 -0.2365 -0.1542  0.1400
 1706BOLB   C3D40943  22.150  22.761   9.692  0.3347  0.1465 -0.0112
 1706BOLB   C4D40944  22.173  22.627  10.079 -0.0270  0.3469  0.0041
 1707BOLB   NC140945  22.064  10.508  17.525 -0.0328  0.1047 -0.0465
 1707BOLB   PO140946  22.044  10.364  17.110  0.0625 -0.1467 -0.1903
 1707BOLB   GL140947  21.824   9.963  16.912  0.0453  0.0552 -0.0451
 1707BOLB   GL240948  22.080   9.751  17.103  0.5869  0.1553  0.3845
 1707BOLB   C1A40949  21.910   9.545  16.582 -0.1759  0.2792 -0.1017
 1707BOLB   C2A40950  22.294   9.345  16.433 -0.0656  0.1326  0.0047
 1707BOLB   C3A40951  22.690   9.041  16.582  0.1272  0.2965 -0.3280
 1707BOLB   C4A40952  22.933   8.760  16.585  0.0942  0.2611 -0.0308
 1707BOLB   C1B40953  22.236   9.337  16.924  0.2008 -0.1747  0.2456
 1707BOLB   C2B40954  22.583   9.072  17.071 -0.2393  0.1958 -0.0523
 1707BOLB   C3B40955  23.041   8.889  17.036 -0.0022 -0.0034 -0.1190
 1707BOLB   C4B40956  23.423   8.914  17.023  0.0983  0.0332 -0.0289
 1707BOLB   NC240957  23.435   6.621  17.214 -0.3469  0.0140 -0.0669
 1707BOLB   PO240958  23.789   6.740  17.333  0.0421 -0.0582  0.3077
 1707BOLB   GL340959  23.763   7.130  17.146  0.2505  0.2544 -0.0830
 1707BOLB   GL440960  23.461   7.154  17.127  0.3456 -0.0299  0.2576
 1707BOLB   C1C40961  23.820   7.529  17.192  0.0454 -0.2748  0.1115
 1707BOLB   C2C40962  23.865   7.893  16.911 -0.1922  0.2611  0.1246
 1707BOLB   C3C40963  23.732   8.360  16.878 -0.0341 -0.0142  0.0819
 1707BOLB   C4C40964  23.385   8.599  16.696 -0.1447 -0.1666  0.2016
 1707BOLB   C1D40965  23.323   7.572  17.140 -0.0984  0.1629  0.2482
 1707BOLB   C2D40966  23.385   7.976  17.065  0.1210 -0.0452 -0.0089
 1707BOLB   C3D40967  23.336   8.476  17.164  0.0554 -0.0449 -0.0935
 1707BOLB   C4D40968  23.225   8.653  17.521 -0.0969 -0.3508  0.3279
 1708BOLB   NC140969  27.032  17.695  15.080 -0.1340 -0.0046 -0.1527
 1708BOLB   PO140970  27.215  17.885  15.486  0.0477 -0.0069  0.1117
 1708BOLB   GL140971  27.001  18.261  15.698 -0.5148  0.3383 -0.0748
 1708BOLB   GL240972  26.873  18.569  15.541 -0.1704  0.0086  0.0069
 1708BOLB   C1A40973  26.786  18.511  16.038 -0.1691 -0.2621 -0.1848
 1708BOLB   C2A40974  26.600  18.396  16.468  0.2147  0.2393  0.1726
 1708BOLB   C3A40975  26.117  18.440  16.602 -0.3509 -0.0167  0.1086
 1708BOLB   C4A40976  25.894  18.535  16.861 -0.1861 -0.1391 -0.0968
 1708BOLB   C1B40977  26.496  18.338  15.626 -0.1225  0.0233  0.0974
 1708BOLB   C2B40978  26.160  18.176  15.485 -0.1981 -0.2903 -0.0590
 1708BOLB   C3B40979  25.763  18.292  15.384 -0.2210 -0.1524  0.0454
 1708BOLB   C4B40980  25.323  18.404  15.397  0.3000  0.1168 -0.0591
 1708BOLB   NC240981  28.339  19.362  17.585  0.1305 -0.0079 -0.0676
 1708BOLB   PO240982  27.855  19.564  17.850 -0.1221 -0.0001  0.2372
 1708BOLB   GL340983  27.401  19.526  17.942 -0.1517 -0.1234 -0.0183
 1708BOLB   GL440984  27.409  19.271  18.162  0.0335  0.2488 -0.0869
 1708BOLB   C1C40985  26.912  19.581  17.855 -0.1300  0.1580 -0.0532
 1708BOLB   C2C40986  26.495  19.472  17.624 -0.3811  0.0022  0.3065
 1708BOLB   C3C40987  26.115  19.308  17.456  0.2156  0.2296 -0.0324
 1708BOLB   C4C40988  25.864  18.836  17.254 -0.1208 -0.0354  0.3527
 1708BOLB   C1D40989  27.092  19.082  17.885  0.2251 -0.3146 -0.0376
 1708BOLB   C2D40990  26.802  18.894  17.724  0.2292  0.1088  0.2311
 1708BOLB   C3D40991  26.518  18.667  18.007 -0.0184 -0.0237 -0.1170
 1708BOLB   C4D40992  26.013  18.615  17.919 -0.2413  0.2061 -0.0129
 1709BOLB   NC140993  24.654  16.603  13.947  0.1130  0.2294  0.2051
 1709BOLB   PO140994  24.711  16.344  13.605 -0.0684  0.1055  0.0278
 1709BOLB   GL140995  24.892  16.745  13.468  0.4962  0.0715 -0.0116
 1709BOLB   GL240996  24.651  16.948  13.455  0.1637 -0.4592  0.0700
 1709BOLB   C1A40997  25.076  17.171  13.585  0.2011  0.1059 -0.3013
 1709BOLB   C2A40998  25.206  17.426  13.941  0.1586 -0.0528 -0.0835
 1709BOLB   C3A40999  25.072  17.683  14.091  0.1000 -0.1553 -0.4581
 1709BOLB   C4A41000  24.996  18.006  13.769  0.2845  0.4807 -0.1139
 1709BOLB   C1B41001  24.476  17.257  13.198 -0.2246 -0.2738 -0.1563
 1709BOLB   C2B41002  24.377  17.763  13.278 -0.2972  0.0822 -0.2394
 1709BOLB   C3B41003  24.382  18.204  13.050  0.0479 -0.1296  0.0801
 1709BOLB   C4B41004  24.465  18.548  12.731 -0.2927 -0.2306  0.3181
 1709BOLB   NC241005  26.905  18.980  13.055  0.0948 -0.0858  0.0204
 1709BOLB   PO241006  27.068  18.671  12.747 -0.3555 -0.1450 -0.0103
 1709BOLB   GL341007  26.704  18.858  12.576  0.0365 -0.1067  0.1068
 1709BOLB   GL441008  26.526  18.942  12.370 -0.2986 -0.1658  0.1719
 1709BOLB   C1C41009  26.302  18.650  12.687  0.0769  0.0157  0.2515
 1709BOLB   C2C41010  25.975  18.634  13.054 -0.0443 -0.1089 -0.2177
 1709BOLB   C3C41011  25.630  18.432  13.259  0.1154 -0.1416  0.1177
 1709BOLB   C4C41012  25.297  18.162  13.423  0.3504 -0.2667 -0.0463
 1709BOLB   C1D41013  26.254  18.780  12.004  0.3229  0.2780  0.1179
 1709BOLB   C2D41014  25.948  18.474  11.704 -0.0057  0.1259  0.2500
 1709BOLB   C3D41015  25.696  18.089  11.764  0.0997 -0.2745  0.1920
 1709BOLB   C4D41016  25.744  17.765  12.081  0.5639 -0.0264 -0.2664
 1710BOLB   NC141017  23.765  24.067   9.766  0.0123 -0.2059 -0.1045
 1710BOLB   PO141018  24.110  23.778   9.595 -0.1988  0.0478  0.0566
 1710BOLB   GL141019  24.104  23.535   9.992  0.3251 -0.0831 -0.1387
 1710BOLB   GL241020  23.767  23.579  10.162  0.3654  0.0479 -0.0833
 1710BOLB   C1A41021  24.049  23.231  10.401  0.0237 -0.2578 -0.0795
 1710BOLB   C2A41022  24.207  23.030  10.807  0.2543  0.1672  0.0752
 1710BOLB   C3A41023  24.479  22.877  11.203  0.3360 -0.2086 -0.0072
 1710BOLB   C4A41024  24.498  23.086  11.590  0.1860  0.3152  0.0024
 1710BOLB   C1B41025  23.373  23.605  10.122  0.2994  0.4286 -0.2807
 1710BOLB   C2B41026  23.079  23.862   9.919 -0.2215  0.2050  0.2025
 1710BOLB   C3B41027  22.817  24.278   9.847 -0.0631  0.1166  0.1072
 1710BOLB   C4B41028  22.376  24.227   9.788  0.3119 -0.1172 -0.2673
 1710BOLB   NC241029  23.639  25.113  10.301  0.0821 -0.2275 -0.2360
 1710BOLB   PO241030  23.910  24.705  10.311 -0.3968  0.1382 -0.1740
 1710BOLB   GL341031  23.777  24.285  10.478  0.0185 -0.1759  0.3045
 1710BOLB   GL441032  23.901  23.988  10.331 -0.0877 -0.1459  0.2136
 1710BOLB   C1C41033  23.518  24.125  10.861 -0.1489  0.3848 -0.0679
 1710BOLB   C2C41034  23.656  24.013  11.316 -0.2632 -0.0786  0.3777
 1710BOLB   C3C41035  23.968  23.810  11.589  0.4016  0.2401 -0.1439
 1710BOLB   C4C41036  24.238  23.433  11.701 -0.0589 -0.1539  0.0503
 1710BOLB   C1D41037  23.894  23.752  10.695  0.0060 -0.1099 -0.1843
 1710BOLB   C2D41038  23.877  23.431  10.931  0.2187  0.2337  0.0270
 1710BOLB   C3D41039  23.491  23.232  11.000  0.0281  0.2383 -0.0504
 1710BOLB   C4D41040  23.118  23.229  10.843  0.2066 -0.1510 -0.0046
 1711BOLB   NC141041  27.995   9.996  15.793  0.2027  0.2925 -0.1948
 1711BOLB   PO141042  27.806   9.841  16.034 -0.0181  0.0684 -0.0926
 1711BOLB   GL141043  27.395   9.807  15.815 -0.1950  0.0149 -0.2879
 1711BOLB   GL241044  27.224   9.581  15.996 -0.1365 -0.0612 -0.1698
 1711BOLB   C1A41045  27.196  10.278  15.839 -0.1841  0.0811  0.1863
 1711BOLB   C2A41046  26.756  10.395  15.951  0.3490 -0.0788  0.1729
 1711BOLB   C3A41047  26.593  10.805  16.032 -0.4251 -0.0892 -0.1149
 1711BOLB   C4A41048  26.163  10.911  15.960  0.0772  0.0250 -0.1443
 1711BOLB   C1B41049  27.021   9.959  16.226 -0.1982 -0.0848 -0.0532
 1711BOLB   C2B41050  26.781   9.861  16.663 -0.2527  0.0499  0.1563
 1711BOLB   C3B41051  26.404  10.024  16.959 -0.1731 -0.0258 -0.2394
 1711BOLB   C4B41052  26.341  10.318  17.286 -0.0092 -0.1948 -0.1860
 1711BOLB   NC241053  26.299   9.385  14.245  0.4234 -0.2403 -0.0980
 1711BOLB   PO241054  26.193   9.165  14.636  0.1020 -0.1644  0.1858
 1711BOLB   GL341055  26.039   9.624  14.557  0.1408 -0.0057 -0.0527
 1711BOLB   GL441056  25.808   9.620  14.289  0.0001  0.0209 -0.0235
 1711BOLB   C1C41057  26.095  10.018  14.449 -0.3191 -0.0891 -0.3343
 1711BOLB   C2C41058  26.021  10.461  14.717  0.0074 -0.1603 -0.0728
 1711BOLB   C3C41059  26.120  10.739  15.031 -0.1262 -0.2286  0.1267
 1711BOLB   C4C41060  26.040  11.008  15.466 -0.0218 -0.1857 -0.0443
 1711BOLB   C1D41061  25.528   9.597  14.631  0.1572  0.1892 -0.2108
 1711BOLB   C2D41062  25.380   9.625  14.992  0.1835  0.2304 -0.1011
 1711BOLB   C3D41063  25.353   9.555  15.316 -0.0590 -0.1136 -0.1503
 1711BOLB   C4D41064  25.119   9.797  15.745  0.0548 -0.0731  0.0986
 1712BOLB   NC141065  22.558  12.221  16.208 -0.2956 -0.2632  0.0954
 1712BOLB   PO141066  22.968  12.117  15.934  0.0181  0.1632 -0.2526
 1712BOLB   GL141067  23.065  11.740  15.620 -0.0563  0.1267  0.0051
 1712BOLB   GL241068  23.288  11.587  15.716  0.3149  0.2772 -0.2141
 1712BOLB   C1A41069  23.067  11.265  15.452 -0.0087  0.3257  0.3918
 1712BOLB   C2A41070  23.277  10.910  15.234  0.0272 -0.1914 -0.0173
 1712BOLB   C3A41071  23.619  10.647  15.132 -0.0950 -0.2493  0.2690
 1712BOLB   C4A41072  23.811  10.482  14.844  0.1394 -0.0601 -0.0593
 1712BOLB   C1B41073  23.546  11.191  15.721 -0.0983  0.1110 -0.0058
 1712BOLB   C2B41074  23.817  10.824  15.593 -0.0872  0.1468  0.0234
 1712BOLB   C3B41075  23.956  10.388  15.536  0.1922 -0.2659  0.1065
 1712BOLB   C4B41076  24.241  10.596  15.287  0.3443  0.0725 -0.0726
 1712BOLB   NC241077  24.155   8.093  14.116  0.0729  0.0235  0.3052
 1712BOLB   PO241078  24.387   8.404  14.049  0.0623  0.0118  0.0807
 1712BOLB   GL341079  24.055   8.641  13.875  0.1128 -0.0557  0.0416
 1712BOLB   GL441080  23.785   8.501  13.999  0.1364  0.3073  0.2459
 1712BOLB   C1C41081  24.044   9.110  13.936  0.1495 -0.0556 -0.1105
 1712BOLB   C2C41082  23.925   9.495  14.249 -0.1504  0.0710 -0.1500
 1712BOLB   C3C41083  23.819   9.844  14.373 -0.0998 -0.0775  0.0752
 1712BOLB   C4C41084  23.792  10.286  14.469 -0.1072  0.3219 -0.0160
 1712BOLB   C1D41085  23.399   8.593  14.299  0.1681  0.2556 -0.0106
 1712BOLB   C2D41086  23.072   8.643  14.587  0.0359  0.1165  0.1447
 1712BOLB   C3D41087  22.648   8.559  14.618  0.1460  0.2293  0.0850
 1712BOLB   C4D41088  22.287   8.408  14.772 -0.1982  0.0291  0.1193
 1713BOLB   NC141089  26.148  21.080  14.213  0.1895 -0.3534  0.2276
 1713BOLB   PO141090  26.024  20.669  14.119  0.0124  0.0417  0.0301
 1713BOLB   GL141091  25.738  20.730  14.400  0.0759  0.2146  0.3517
 1713BOLB   GL241092  25.463  20.599  14.190  0.1678 -0.3351 -0.0981
 1713BOLB   C1A41093  25.471  20.706  14.723  0.0702  0.3451  0.2398
 1713BOLB   C2A41094  24.995  20.804  14.701  0.3566 -0.1265 -0.0213
 1713BOLB   C3A41095  24.710  20.717  15.003  0.2345  0.0805 -0.2470
 1713BOLB   C4A41096  24.694  20.624  15.424 -0.0827 -0.1324 -0.3049
 1713BOLB   C1B41097  25.135  20.286  14.331  0.0924  0.0717 -0.0450
 1713BOLB   C2B41098  24.888  19.861  14.321  0.2048 -0.2402  0.3292
 1713BOLB   C3B41099  24.846  19.482  14.156 -0.3564 -0.0750 -0.2265
 1713BOLB   C4B41100  24.728  19.190  13.826 -0.0717 -0.2942 -0.1543
 1713BOLB   NC241101  26.805  19.829  15.925 -0.4309  0.1347  0.2933
 1713BOLB   PO241102  26.688  20.266  15.802 -0.1427 -0.0665 -0.1112
 1713BOLB   GL341103  26.390  20.080  16.120 -0.2480 -0.3401  0.0045
 1713BOLB   GL441104  26.466  20.214  16.433 -0.0651  0.0695 -0.1525
 1713BOLB   C1C41105  25.999  19.791  16.066  0.1632 -0.0916  0.1566
 1713BOLB   C2C41106  25.642  20.073  16.074 -0.0957  0.0272 -0.0384
 1713BOLB   C3C41107  25.239  20.099  15.871 -0.0224  0.0044 -0.1953
 1713BOLB   C4C41108  24.854  20.279  15.695 -0.0912 -0.0277  0.4803
 1713BOLB   C1D41109  26.281  20.605  16.572  0.2554  0.2462 -0.2994
 1713BOLB   C2D41110  25.898  20.502  16.337 -0.4555  0.0945 -0.2700
 1713BOLB   C3D41111  25.455  20.300  16.405 -0.0045 -0.2409  0.1601
 1713BOLB   C4D41112  25.122  20.053  16.400 -0.2587  0.2372 -0.1294
 1714BOLB   NC141113  22.629  16.353  12.481 -0.0324  0.1994  0.0002
 1714BOLB   PO141114  22.801  16.595  12.228 -0.1575  0.0545  0.0557
 1714BOLB   GL141115  23.247  16.533  11.981  0.2749  0.1752  0.4627
 1714BOLB   GL241116  23.396  16.246  12.131  0.3770 -0.0308 -0.1836
 1714BOLB   C1A41117  23.646  16.495  11.709 -0.1632 -0.0021  0.2857
 1714BOLB   C2A41118  23.656  16.160  11.266  0.2117  0.1835 -0.0255
 1714BOLB   C3A41119  23.888  15.942  10.989 -0.0005  0.2657  0.1864
 1714BOLB   C4A41120  24.026  15.857  10.514 -0.1715  0.0716 -0.2432
 1714BOLB   C1B41121  23.368  16.019  11.733 -0.0854  0.1806 -0.1798
 1714BOLB   C2B41122  23.573  15.713  11.420  0.0175  0.1898 -0.1600
 1714BOLB   C3B41123  23.777  15.530  11.209 -0.3092 -0.2286  0.0258
 1714BOLB   C4B41124  23.700  15.501  10.771  0.1290  0.2384  0.0374
 1714BOLB   NC241125  24.010  15.390   8.065 -0.1933  0.2595  0.1273
 1714BOLB   PO241126  23.712  15.398   8.327  0.2708 -0.0941  0.1036
 1714BOLB   GL341127  23.427  15.219   8.703  0.0306  0.0288  0.2549
 1714BOLB   GL441128  23.634  14.971   8.675 -0.2857 -0.2527 -0.2807
 1714BOLB   C1C41129  23.401  15.530   8.980 -0.0474 -0.1758  0.2197
 1714BOLB   C2C41130  23.531  15.781   9.351  0.0799 -0.1095 -0.0794
 1714BOLB   C3C41131  23.779  15.773   9.686  0.1841  0.1024  0.2760
 1714BOLB   C4C41132  24.040  15.879  10.069 -0.0691  0.0918 -0.4287
 1714BOLB   C1D41133  23.731  14.974   9.168  0.0351 -0.1736  0.0298
 1714BOLB   C2D41134  23.730  14.776   9.471 -0.2023  0.1975  0.1658
 1714BOLB   C3D41135  23.760  14.873   9.806  0.1899 -0.2754 -0.3615
 1714BOLB   C4D41136  23.575  15.029  10.131  0.0225  0.2829 -0.2231
 1715BOLB   NC141137  21.808  12.003  15.793  0.1636 -0.0663 -0.0615
 1715BOLB   PO141138  22.164  11.685  15.709  0.0352 -0.1706  0.0206
 1715BOLB   GL141139  22.348  11.466  15.456  0.1953 -0.1356  0.1748
 1715BOLB   GL241140  22.589  11.241  15.458  0.0694 -0.3833 -0.2206
 1715BOLB   C1A41141  22.544  11.222  14.994  0.0769 -0.2648 -0.0553
 1715BOLB   C2A41142  22.858  10.873  14.933 -0.1112  0.1269  0.0857
 1715BOLB   C3A41143  23.130  10.598  14.846 -0.2159 -0.3221  0.1056
 1715BOLB   C4A41144  23.335  10.466  14.478  0.1301 -0.1299  0.1316
 1715BOLB   C1B41145  22.756  10.833  15.459  0.0331  0.0277  0.2718
 1715BOLB   C2B41146  23.012  10.549  15.312 -0.0683  0.2113 -0.4472
 1715BOLB   C3B41147  23.348  10.232  15.173 -0.0031  0.3165  0.0173
 1715BOLB   C4B41148  23.618  10.010  14.817 -0.0836 -0.3107 -0.1942
 1715BOLB   NC241149  24.007   9.375  13.008  0.0095 -0.1501 -0.1338
 1715BOLB   PO241150  23.943   9.566  12.629  0.0135  0.1727 -0.2959
 1715BOLB   GL341151  23.568   9.442  12.919  0.1130  0.3406 -0.0415
 1715BOLB   GL441152  23.598   9.734  12.978 -0.2883  0.0187  0.0735
 1715BOLB   C1C41153  23.379   9.437  13.326  0.0544  0.1758 -0.1592
 1715BOLB   C2C41154  23.342   9.366  13.729 -0.0746 -0.1069  0.0369
 1715BOLB   C3C41155  23.381   9.579  14.038 -0.1820 -0.3643 -0.1232
 1715BOLB   C4C41156  23.394  10.011  14.263 -0.1861  0.0522  0.2359
 1715BOLB   C1D41157  23.425  10.076  13.101  0.0265  0.0630 -0.1265
 1715BOLB   C2D41158  23.476  10.338  13.437 -0.0490 -0.1213 -0.0713
 1715BOLB   C3D41159  23.725  10.712  13.523  0.2409  0.2570  0.2030
 1715BOLB   C4D41160  23.851  11.139  13.486 -0.1540  0.0690 -0.1119
 1716BOLB   NC141161  20.483  10.424  17.154  0.2502 -0.0089  0.3347
 1716BOLB   PO141162  20.614   9.979  17.036 -0.3668 -0.0541 -0.1548
 1716BOLB   GL141163  20.927   9.729  16.776 -0.0712 -0.0514  0.0529
 1716BOLB   GL241164  21.355   9.779  16.760 -0.1981 -0.1706  0.5745
 1716BOLB   C1A41165  21.095   9.382  16.889  0.0469  0.0480 -0.1015
 1716BOLB   C2A41166  21.242   9.059  16.837 -0.0607 -0.1169  0.3245
 1716BOLB   C3A41167  21.525   8.669  16.771 -0.2412  0.1181 -0.0971
 1716BOLB   C4A41168  21.864   8.472  16.902 -0.3745  0.0077  0.1728
 1716BOLB   C1B41169  21.568   9.436  16.890  0.0030  0.2375  0.2209
 1716BOLB   C2B41170  21.803   9.086  16.797 -0.0330  0.0833  0.0284
 1716BOLB   C3B41171  22.206   8.908  16.679  0.2215  0.1350 -0.2288
 1716BOLB   C4B41172  22.405   8.606  16.466  0.0284  0.2188 -0.2157
 1716BOLB   NC241173  23.489   6.837  18.097  0.2371  0.1729  0.2332
 1716BOLB   PO241174  23.486   6.956  17.672  0.0519 -0.1311  0.1425
 1716BOLB   GL341175  23.187   7.333  17.721 -0.0308  0.3804  0.1524
 1716BOLB   GL441176  22.827   7.169  17.714  0.0160  0.0324  0.1237
 1716BOLB   C1C41177  23.059   7.621  17.591 -0.1913  0.0999 -0.2105
 1716BOLB   C2C41178  22.900   7.841  17.189 -0.0160  0.0984  0.0762
 1716BOLB   C3C41179  22.556   7.992  16.858  0.0531 -0.0098  0.0028
 1716BOLB   C4C41180  22.092   8.225  16.993 -0.0581  0.0462 -0.3301
 1716BOLB   C1D41181  22.598   7.530  17.664 -0.1249  0.3868  0.0230
 1716BOLB   C2D41182  22.165   7.707  17.815 -0.1722  0.0470  0.1511
 1716BOLB   C3D41183  21.805   7.483  17.870 -0.0432 -0.2724 -0.1396
 1716BOLB   C4D41184  21.606   7.137  17.973  0.5088  0.2472  0.1084
 1717BOLB   NC141185  27.668  20.769  17.291  0.1471 -0.1699  0.1368
 1717BOLB   PO141186  27.615  20.304  17.237 -0.3411 -0.1086  0.1075
 1717BOLB   GL141187  27.169  20.283  17.195  0.1863 -0.1180 -0.3486
 1717BOLB   GL241188  27.043  20.085  17.012  0.0742 -0.2691  0.1714
 1717BOLB   C1A41189  26.791  20.468  16.966  0.0363  0.0597 -0.1582
 1717BOLB   C2A41190  26.408  20.638  17.041  0.0820 -0.0114  0.1271
 1717BOLB   C3A41191  26.375  20.852  17.502  0.2884  0.1193 -0.0701
 1717BOLB   C4A41192  26.408  20.636  17.869 -0.3195 -0.0093  0.0630
 1717BOLB   C1B41193  26.669  19.903  17.330 -0.2437  0.4099  0.0843
 1717BOLB   C2B41194  26.196  19.796  17.390  0.4397 -0.0041  0.0476
 1717BOLB   C3B41195  25.852  20.023  17.482  0.2192 -0.3322 -0.1400
 1717BOLB   C4B41196  25.447  20.035  17.556 -0.1172  0.0025 -0.0841
 1717BOLB   NC241197  27.812  20.095  19.184  0.4458 -0.3256  0.2216
 1717BOLB   PO241198  28.023  19.685  18.971  0.0555  0.2614 -0.3218
 1717BOLB   GL341199  27.678  19.693  18.712 -0.2845  0.1258 -0.1603
 1717BOLB   GL441200  27.667  19.569  18.462  0.1967  0.1077  0.0854
 1717BOLB   C1C41201  27.286  19.838  18.897 -0.0555  0.1202 -0.0870
 1717BOLB   C2C41202  26.912  20.061  18.869  0.0992 -0.3266 -0.1277
 1717BOLB   C3C41203  26.658  20.258  18.602 -0.2369 -0.2760 -0.0997
 1717BOLB   C4C41204  26.479  20.376  18.239  0.2572  0.1977  0.2433
 1717BOLB   C1D41205  27.293  19.643  18.414  0.1543 -0.3248 -0.1356
 1717BOLB   C2D41206  26.934  19.333  18.315  0.4696  0.3002 -0.0973
 1717BOLB   C3D41207  26.662  19.127  18.149  0.1110 -0.0998  0.0511
 1717BOLB   C4D41208  26.282  19.104  17.902  0.0492  0.0714 -0.3264
 1718BOLB   NC141209  24.515  24.325  11.803  0.2304 -0.3020 -0.0466
 1718BOLB   PO141210  24.690  24.667  12.018  0.0893 -0.2997 -0.3842
 1718BOLB   GL141211  24.233  24.605  12.084 -0.0167  0.2103  0.4464
 1718BOLB   GL241212  24.177  24.572  12.432  0.0048  0.1130 -0.2429
 1718BOLB   C1A41213  23.850  24.519  11.867 -0.2460 -0.1091  0.1346
 1718BOLB   C2A41214  23.486  24.461  11.564  0.1341 -0.1686  0.3152
 1718BOLB   C3A41215  23.038  24.273  11.786 -0.5613 -0.1164  0.0788
 1718BOLB   C4A41216  22.712  24.035  11.561 -0.0108 -0.0556  0.1284
 1718BOLB   C1B41217  23.747  24.485  12.356 -0.0586 -0.0968 -0.0509
 1718BOLB   C2B41218  23.391  24.311  12.184 -0.0646 -0.1339 -0.0119
 1718BOLB   C3B41219  23.015  24.122  12.349  0.1697  0.1560 -0.0066
 1718BOLB   C4B41220  22.609  24.245  12.061 -0.3672  0.0131 -0.1045
 1718BOLB   NC241221  23.004  25.216   9.522  0.0717 -0.1833 -0.0109
 1718BOLB   PO241222  22.619  25.032   9.502  0.0036  0.1741 -0.1686
 1718BOLB   GL341223  22.403  24.813   9.883  0.0166 -0.0588 -0.0423
 1718BOLB   GL441224  22.086  24.582   9.904  0.0842 -0.4171 -0.1344
 1718BOLB   C1C41225  22.555  24.584  10.175 -0.2037 -0.2664  0.1035
 1718BOLB   C2C41226  22.697  24.189  10.397 -0.0413 -0.1089 -0.0595
 1718BOLB   C3C41227  22.560  23.934  10.799 -0.0302 -0.3263 -0.1131
 1718BOLB   C4C41228  22.599  23.870  11.123 -0.1497 -0.0931  0.1796
 1718BOLB   C1D41229  22.112  24.225  10.228 -0.0131  0.0206  0.3284
 1718BOLB   C2D41230  22.129  24.008  10.583 -0.3794 -0.0639 -0.0767
 1718BOLB   C3D41231  22.169  23.661  10.990  0.0456 -0.2746 -0.1011
 1718BOLB   C4D41232  22.383  23.514  11.438 -0.3015 -0.3358 -0.0044
 1719BOLB   NC141233  23.465  12.301  16.754 -0.4708  0.0813 -0.0834
 1719BOLB   PO141234  23.537  12.118  16.377 -0.1667 -0.1234 -0.2381
 1719BOLB   GL141235  23.641  11.756  16.048  0.1426 -0.1205 -0.0343
 1719BOLB   GL241236  23.723  11.410  16.159  0.2096  0.1285 -0.3855
 1719BOLB   C1A41237  23.803  11.664  15.700 -0.0485  0.0736  0.0435
 1719BOLB   C2A41238  24.055  11.443  15.605 -0.0458 -0.2159 -0.1447
 1719BOLB   C3A41239  24.051  11.168  15.280  0.1699  0.1624  0.1069
 1719BOLB   C4A41240  24.058  10.925  14.847  0.0996  0.0376 -0.1552
 1719BOLB   C1B41241  24.081  11.160  16.144  0.1319 -0.2777  0.2065
 1719BOLB   C2B41242  24.147  10.958  15.892  0.0810  0.2037 -0.0132
 1719BOLB   C3B41243  24.369  10.921  15.646 -0.0231 -0.0479 -0.1112
 1719BOLB   C4B41244  24.719  10.714  15.465 -0.1510  0.0636 -0.1572
 1719BOLB   NC241245  24.970   8.862  13.687  0.3393  0.3329 -0.1776
 1719BOLB   PO241246  24.935   9.182  13.362  0.0479  0.0737  0.0641
 1719BOLB   GL341247  24.692   9.340  13.626  0.0855  0.0027  0.1931
 1719BOLB   GL441248  24.483   9.105  13.801 -0.0825 -0.0596  0.1516
 1719BOLB   C1C41249  24.318   9.553  13.952 -0.2636 -0.1871  0.1467
 1719BOLB   C2C41250  24.393   9.790  14.251  0.2251 -0.0828 -0.0982
 1719BOLB   C3C41251  24.247  10.243  14.160 -0.4152  0.0981  0.0425
 1719BOLB   C4C41252  24.054  10.678  14.374 -0.3554  0.4282 -0.0226
 1719BOLB   C1D41253  24.526   9.091  14.275  0.0561  0.0926  0.0583
 1719BOLB   C2D41254  24.568   9.365  14.555  0.2873  0.0703  0.1040
 1719BOLB   C3D41255  24.702   9.808  14.748 -0.1566  0.0105  0.0133
 1719BOLB   C4D41256  24.554  10.179  15.006  0.0411 -0.2844 -0.0776
 1720BOLB   NC141257  23.438  21.063  12.790 -0.0166  0.0486  0.0128
 1720BOLB   PO141258  23.157  21.510  12.740  0.1614  0.2753 -0.3212
 1720BOLB   GL141259  23.281  21.303  12.322 -0.3858  0.0615  0.0412
 1720BOLB   GL241260  23.433  21.511  12.285  0.0147 -0.1516 -0.1244
 1720BOLB   C1A41261  23.473  21.032  12.063  0.0383  0.2923 -0.1253
 1720BOLB   C2A41262  23.513  21.118  11.646  0.3335 -0.0421 -0.1174
 1720BOLB   C3A41263  23.467  21.038  11.363  0.1002  0.2314  0.0385
 1720BOLB   C4A41264  23.387  21.122  10.978  0.1482  0.2596  0.4021
 1720BOLB   C1B41265  23.110  21.436  11.847 -0.2717  0.1736  0.0936
 1720BOLB   C2B41266  23.063  21.418  11.423  0.1237  0.0209 -0.2863
 1720BOLB   C3B41267  23.280  21.592  11.098 -0.0467  0.0335  0.4156
 1720BOLB   C4B41268  23.464  21.709  10.773 -0.0535 -0.2684  0.3202
 1720BOLB   NC241269  24.871  22.743   9.444 -0.2569  0.1489  0.0657
 1720BOLB   PO241270  24.874  22.530   9.830  0.2861 -0.3145  0.3302
 1720BOLB   GL341271  24.762  22.085   9.946 -0.1041 -0.0436  0.1075
 1720BOLB   GL441272  24.635  22.036   9.579 -0.0183 -0.2675  0.4411
 1720BOLB   C1C41273  24.561  21.652   9.992  0.1088  0.1526  0.0804
 1720BOLB   C2C41274  24.104  21.468   9.998 -0.1131  0.1696  0.0848
 1720BOLB   C3C41275  23.610  21.480  10.135  0.2516 -0.2059  0.2685
 1720BOLB   C4C41276  23.587  21.276  10.560 -0.1563 -0.1280  0.1082
 1720BOLB   C1D41277  24.268  21.986   9.758  0.0866 -0.0924 -0.0006
 1720BOLB   C2D41278  23.885  21.883   9.812  0.2184  0.2161  0.3375
 1720BOLB   C3D41279  23.587  21.970  10.096  0.2262 -0.0596  0.1099
 1720BOLB   C4D41280  23.345  21.996  10.421  0.2399 -0.2904  0.4186
 1721BOLB   NC141281  26.470  22.418  17.915 -0.1415 -0.0822  0.2771
 1721BOLB   PO141282  26.018  22.323  18.098  0.0082 -0.1105  0.1980
 1721BOLB   GL141283  25.937  22.019  17.986 -0.2504 -0.2427  0.2128
 1721BOLB   GL241284  26.004  22.105  17.663 -0.0426 -0.1059 -0.1737
 1721BOLB   C1A41285  25.724  21.602  18.248 -0.1877  0.1317  0.0155
 1721BOLB   C2A41286  25.813  21.143  18.355  0.2807 -0.1955 -0.0627
 1721BOLB   C3A41287  25.896  20.640  18.404 -0.3105 -0.2691  0.1381
 1721BOLB   C4A41288  25.854  20.242  18.482 -0.0500 -0.0115 -0.2588
 1721BOLB   C1B41289  25.764  21.767  17.509 -0.1832  0.1267 -0.2054
 1721BOLB   C2B41290  25.525  21.526  17.202 -0.2964 -0.0920  0.2363
 1721BOLB   C3B41291  25.569  21.066  16.999  0.0540 -0.1219  0.0051
 1721BOLB   C4B41292  25.591  20.662  16.779  0.0522  0.1327  0.4883
 1721BOLB   NC241293  27.731  20.791  18.871  0.0592 -0.4043  0.2583
 1721BOLB   PO241294  27.639  20.561  19.168 -0.1759  0.1773 -0.2814
 1721BOLB   GL341295  27.301  20.465  18.924 -0.0668 -0.5399 -0.2098
 1721BOLB   GL441296  27.093  20.664  18.819 -0.1992 -0.0699 -0.0168
 1721BOLB   C1C41297  27.282  20.227  18.524  0.0525 -0.3476  0.1348
 1721BOLB   C2C41298  26.948  20.020  18.291  0.1007  0.4187 -0.5707
 1721BOLB   C3C41299  26.593  19.778  18.213 -0.1808 -0.0777  0.4021
 1721BOLB   C4C41300  26.178  20.001  18.361 -0.1302 -0.1192  0.1733
 1721BOLB   C1D41301  27.087  20.757  18.409  0.2171  0.1802  0.0862
 1721BOLB   C2D41302  26.899  20.452  18.052 -0.2051 -0.0868 -0.0546
 1721BOLB   C3D41303  27.026  20.121  17.839 -0.1660  0.1505 -0.2756
 1721BOLB   C4D41304  27.149  19.851  17.498  0.0675 -0.1041  0.2309
 1722BOLB   NC141305  24.354  16.025  13.408  0.1780  0.0829 -0.1035
 1722BOLB   PO141306  24.072  15.831  13.262  0.4517  0.1684  0.2460
 1722BOLB   GL141307  24.403  15.692  12.874 -0.4107 -0.3054  0.0682
 1722BOLB   GL241308  24.311  15.526  12.568  0.0322 -0.1620  0.2193
 1722BOLB   C1A41309  24.697  15.841  12.594  0.0625 -0.1322 -0.1065
 1722BOLB   C2A41310  24.932  15.747  12.198 -0.0954  0.0164  0.2178
 1722BOLB   C3A41311  24.864  15.681  11.763 -0.1060 -0.1106 -0.0732
 1722BOLB   C4A41312  24.719  15.497  11.421  0.1426 -0.0366 -0.0794
 1722BOLB   C1B41313  24.220  15.212  12.347  0.1962 -0.0156  0.2634
 1722BOLB   C2B41314  24.119  14.935  11.980 -0.2686 -0.0401  0.1050
 1722BOLB   C3B41315  24.438  14.689  11.750 -0.0549  0.3553 -0.0361
 1722BOLB   C4B41316  24.502  14.294  11.469 -0.1196 -0.0620 -0.3030
 1722BOLB   NC241317  25.186  14.841   8.880 -0.0149 -0.0120  0.0715
 1722BOLB   PO241318  24.956  14.933   9.199  0.0318  0.2479 -0.2821
 1722BOLB   GL341319  24.864  14.706   9.520  0.0976  0.2716 -0.3210
 1722BOLB   GL441320  25.065  14.479   9.702  0.1859  0.1468 -0.0597
 1722BOLB   C1C41321  24.992  14.891   9.988 -0.0821  0.0874  0.1670
 1722BOLB   C2C41322  24.732  14.834  10.388 -0.0685 -0.1380 -0.3182
 1722BOLB   C3C41323  24.540  15.084  10.685 -0.0052  0.2398 -0.2125
 1722BOLB   C4C41324  24.604  15.343  11.048  0.2115  0.1649 -0.1547
 1722BOLB   C1D41325  24.995  14.296  10.020 -0.2436 -0.3380  0.2120
 1722BOLB   C2D41326  24.769  14.096  10.273 -0.0429  0.0521  0.3354
 1722BOLB   C3D41327  24.496  13.976  10.623 -0.0066  0.1272  0.0081
 1722BOLB   C4D41328  24.054  13.855  10.837 -0.0215  0.0937 -0.1307
 1723BOLB   NC141329  23.633  25.861  13.571  0.0053  0.2742 -0.0816
 1723BOLB   PO141330  23.439  26.129  13.493 -0.0365  0.2770 -0.0394
 1723BOLB   GL141331  23.045  25.973  13.609  0.1421 -0.1395 -0.3603
 1723BOLB   GL241332  23.089  25.623  13.753 -0.0623 -0.0415 -0.2406
 1723BOLB   C1A41333  22.624  25.682  13.559 -0.0297  0.0667 -0.1013
 1723BOLB   C2A41334  22.381  25.215  13.552 -0.1861  0.0435 -0.2137
 1723BOLB   C3A41335  22.029  25.291  13.311 -0.3661 -0.0189  0.1384
 1723BOLB   C4A41336  21.576  25.337  13.287 -0.1113 -0.0974 -0.3912
 1723BOLB   C1B41337  23.112  25.534  13.381  0.0440 -0.1028  0.0931
 1723BOLB   C2B41338  22.813  25.878  13.110 -0.1373 -0.2254 -0.0960
 1723BOLB   C3B41339  22.505  26.123  12.953 -0.4203 -0.1685 -0.2951
 1723BOLB   C4B41340  22.686  26.430  12.814  0.0390 -0.3059 -0.0729
 1723BOLB   NC241341  21.871  27.643  12.950  0.0341  0.2436 -0.1870
 1723BOLB   PO241342  21.783  27.466  12.573  0.0467  0.1948 -0.2117
 1723BOLB   GL341343  21.636  27.057  12.745 -0.0452  0.0021  0.0860
 1723BOLB   GL441344  21.740  27.171  13.086  0.1099  0.2052 -0.0278
 1723BOLB   C1C41345  21.814  26.656  12.758  0.1018  0.0313  0.3009
 1723BOLB   C2C41346  21.552  26.237  12.889  0.1779  0.1279  0.0122
 1723BOLB   C3C41347  21.300  26.008  13.097  0.1053  0.1767  0.1282
 1723BOLB   C4C41348  21.203  25.594  13.254  0.2160  0.3254 -0.1196
 1723BOLB   C1D41349  21.500  27.263  13.366 -0.0139  0.0606 -0.0543
 1723BOLB   C2D41350  21.066  27.310  13.541 -0.2359  0.1148  0.2040
 1723BOLB   C3D41351  20.692  27.181  13.622 -0.0460 -0.0309 -0.0700
 1723BOLB   C4D41352  20.245  27.452  13.533 -0.1674 -0.1900  0.0349
 1724BOLB   NC141353  23.405  18.091  13.362 -0.2358  0.2482 -0.1567
 1724BOLB   PO141354  23.702  17.870  13.287  0.2908 -0.1613  0.0810
 1724BOLB   GL141355  24.009  17.948  13.480  0.1535 -0.1024 -0.2397
 1724BOLB   GL241356  24.003  17.551  13.524 -0.2160  0.3278  0.0817
 1724BOLB   C1A41357  24.266  17.916  13.778  0.0498 -0.1451 -0.3521
 1724BOLB   C2A41358  24.595  18.011  14.053 -0.0741  0.4548  0.1771
 1724BOLB   C3A41359  24.568  18.417  14.406 -0.1020  0.3123  0.0948
 1724BOLB   C4A41360  24.792  18.663  14.614  0.1339 -0.1933 -0.1576
 1724BOLB   C1B41361  24.365  17.425  13.695 -0.1315  0.2887 -0.1046
 1724BOLB   C2B41362  24.751  17.592  13.720 -0.0848  0.0415  0.0230
 1724BOLB   C3B41363  25.241  17.679  13.449  0.2162  0.0026  0.2325
 1724BOLB   C4B41364  25.427  17.358  13.329 -0.0448 -0.1739 -0.5139
 1724BOLB   NC241365  26.470  19.851  14.265 -0.1710  0.1179  0.2201
 1724BOLB   PO241366  26.347  20.017  14.651 -0.2526  0.1175  0.2884
 1724BOLB   GL341367  26.111  20.270  14.873  0.2025 -0.1006 -0.0316
 1724BOLB   GL441368  26.134  20.572  14.934  0.2869  0.0022  0.0118
 1724BOLB   C1C41369  25.655  20.290  14.835  0.0262 -0.0592 -0.0292
 1724BOLB   C2C41370  25.205  20.002  14.738  0.1782 -0.1401  0.1816
 1724BOLB   C3C41371  24.917  19.625  14.758  0.2447 -0.1153  0.0739
 1724BOLB   C4C41372  24.805  19.170  14.856  0.0264  0.3760 -0.0197
 1724BOLB   C1D41373  25.877  20.202  15.272  0.0068 -0.0705  0.1098
 1724BOLB   C2D41374  25.643  20.038  15.365  0.5896  0.1439  0.0457
 1724BOLB   C3D41375  25.126  19.976  15.257  0.1165 -0.0499 -0.1281
 1724BOLB   C4D41376  24.772  19.469  15.316  0.0795  0.0759  0.3641
 1725BOLB   NC141377  23.519  17.979  12.778 -0.2647  0.0413 -0.0506
 1725BOLB   PO141378  23.707  18.378  12.650  0.2066  0.0147 -0.0895
 1725BOLB   GL141379  23.866  18.730  12.431  0.1930  0.0430 -0.2987
 1725BOLB   GL241380  23.857  18.992  12.543 -0.1462 -0.2175  0.2206
 1725BOLB   C1A41381  24.301  18.655  12.269 -0.2383 -0.0437 -0.1175
 1725BOLB   C2A41382  24.676  18.516  12.241 -0.2102 -0.0349  0.2226
 1725BOLB   C3A41383  24.718  18.086  12.171 -0.2046  0.1556  0.3040
 1725BOLB   C4A41384  24.694  17.923  11.769 -0.0610  0.2980 -0.0362
 1725BOLB   C1B41385  24.256  19.150  12.537 -0.1281  0.2276 -0.3540
 1725BOLB   C2B41386  24.743  19.069  12.404  0.2815  0.0396 -0.0265
 1725BOLB   C3B41387  25.180  19.211  12.499 -0.0517 -0.1821 -0.1901
 1725BOLB   C4B41388  25.644  19.389  12.442 -0.1057  0.0257  0.0733
 1725BOLB   NC241389  26.493  18.300   9.543 -0.0160 -0.0235 -0.0878
 1725BOLB   PO241390  25.988  18.267   9.532  0.0208 -0.3018  0.1207
 1725BOLB   GL341391  25.843  18.169   9.959 -0.2608  0.1932  0.0842
 1725BOLB   GL441392  25.705  17.827   9.724  0.1685  0.3414 -0.0258
 1725BOLB   C1C41393  25.468  18.271  10.269  0.2211  0.3822 -0.2317
 1725BOLB   C2C41394  25.170  18.082  10.544  0.0300  0.0349 -0.1745
 1725BOLB   C3C41395  24.951  17.977  11.086  0.1374  0.2264 -0.0766
 1725BOLB   C4C41396  24.702  18.092  11.388 -0.0746 -0.2871 -0.1429
 1725BOLB   C1D41397  25.233  17.877   9.954  0.0568  0.0352 -0.0088
 1725BOLB   C2D41398  24.882  17.827  10.203 -0.0631  0.0792  0.1786
 1725BOLB   C3D41399  24.657  18.132  10.517 -0.1887 -0.0823  0.0868
 1725BOLB   C4D41400  24.502  18.249  10.881 -0.0719 -0.3699  0.3192
 1726BOLB   NC141401  22.895  17.079  12.251  0.1042  0.0220  0.3669
 1726BOLB   PO141402  22.952  17.434  12.184 -0.0259  0.1048 -0.1132
 1726BOLB   GL141403  23.217  17.323  11.825 -0.1269 -0.2625  0.2125
 1726BOLB   GL241404  23.375  17.026  11.956 -0.0523 -0.0907  0.0250
 1726BOLB   C1A41405  23.492  17.522  11.489  0.1799  0.0293 -0.1453
 1726BOLB   C2A41406  23.763  17.673  11.185  0.2043  0.2267  0.1476
 1726BOLB   C3A41407  23.697  17.785  10.735 -0.0723  0.1266  0.1628
 1726BOLB   C4A41408  23.843  18.233  10.479 -0.3455  0.2400 -0.0044
 1726BOLB   C1B41409  23.508  16.983  11.609  0.1031  0.0706 -0.0659
 1726BOLB   C2B41410  23.603  17.125  11.206  0.1484  0.0193  0.0954
 1726BOLB   C3B41411  23.875  17.172  10.883  0.5161 -0.0464  0.0708
 1726BOLB   C4B41412  24.256  17.248  10.794 -0.1971  0.0163 -0.0157
 1726BOLB   NC241413  25.696  18.591   9.281  0.1390 -0.0294  0.2109
 1726BOLB   PO241414  25.241  18.604   9.063  0.1422 -0.0792 -0.0505
 1726BOLB   GL341415  24.970  18.366   9.228 -0.0164  0.1671  0.3510
 1726BOLB   GL441416  24.993  18.495   9.561  0.2723 -0.1781 -0.1575
 1726BOLB   C1C41417  24.545  18.277   9.261  0.2808  0.0455  0.0723
 1726BOLB   C2C41418  24.129  18.451   9.399 -0.2046 -0.0773 -0.0762
 1726BOLB   C3C41419  23.867  18.372   9.747 -0.1514  0.0652 -0.0832
 1726BOLB   C4C41420  23.925  18.335  10.185 -0.0917  0.1466  0.2123
 1726BOLB   C1D41421  24.798  18.785   9.919 -0.1822  0.1375 -0.1639
 1726BOLB   C2D41422  24.544  19.123   9.903 -0.1140 -0.0550 -0.1525
 1726BOLB   C3D41423  24.158  19.363  10.042  0.0509  0.3194  0.4666
 1726BOLB   C4D41424  24.120  19.838  10.185 -0.1223 -0.1130  0.1907
 1727BOLB   NC141425  23.713  17.432  13.098 -0.0133  0.2560 -0.2674
 1727BOLB   PO141426  23.657  17.520  12.714  0.2108  0.1732 -0.0011
 1727BOLB   GL141427  23.809  17.636  12.373  0.4837  0.1124 -0.1421
 1727BOLB   GL241428  23.746  17.538  12.016  0.1279 -0.1889  0.1842
 1727BOLB   C1A41429  24.205  17.704  12.258  0.5000  0.3409 -0.0568
 1727BOLB   C2A41430  24.363  17.567  12.039 -0.0269  0.1667  0.0893
 1727BOLB   C3A41431  24.725  17.433  11.878  0.1697 -0.2139  0.0093
 1727BOLB   C4A41432  25.005  17.566  11.659 -0.1429  0.0430 -0.0771
 1727BOLB   C1B41433  23.889  17.309  11.627 -0.1305 -0.2456 -0.2721
 1727BOLB   C2B41434  23.988  16.925  11.513 -0.1603  0.0667  0.0537
 1727BOLB   C3B41435  23.770  16.632  11.227  0.1946 -0.1370 -0.0913
 1727BOLB   C4B41436  23.873  16.464  10.843 -0.1111 -0.0267 -0.1302
 1727BOLB   NC241437  26.531  18.961  10.322  0.0321 -0.2025 -0.3123
 1727BOLB   PO241438  26.574  18.517  10.350  0.1400  0.0670  0.2277
 1727BOLB   GL341439  26.163  18.249  10.469  0.1498 -0.1865 -0.0464
 1727BOLB   GL441440  25.914  18.392  10.458  0.0497 -0.1886 -0.1251
 1727BOLB   C1C41441  25.887  17.970  10.742  0.0578  0.1257  0.2938
 1727BOLB   C2C41442  25.512  17.888  10.921  0.0933  0.2777 -0.0518
 1727BOLB   C3C41443  25.668  17.636  11.314  0.2231 -0.2359 -0.0771
 1727BOLB   C4C41444  25.451  17.638  11.690 -0.3214 -0.1715  0.3712
 1727BOLB   C1D41445  25.565  18.418  10.719 -0.1134  0.1251 -0.0919
 1727BOLB   C2D41446  25.231  18.427  11.118  0.2079 -0.0788  0.3319
 1727BOLB   C3D41447  24.849  18.524  11.151 -0.2357  0.1650 -0.2468
 1727BOLB   C4D41448  24.448  18.513  11.306 -0.2379  0.0062  0.0633
 1728BOLB   NC141449  25.133  14.848  13.848 -0.1140  0.2219 -0.0100
 1728BOLB   PO141450  24.713  14.701  13.710  0.2622  0.1649 -0.0107
 1728BOLB   GL141451  24.978  14.632  13.406  0.3776 -0.1882 -0.1254
 1728BOLB   GL241452  25.202  14.420  13.536  0.2755  0.0477  0.0342
 1728BOLB   C1A41453  25.051  14.478  13.035 -0.1222  0.1760  0.3474
 1728BOLB   C2A41454  24.953  14.062  12.844 -0.0782  0.1205 -0.1694
 1728BOLB   C3A41455  25.098  13.595  12.763 -0.0479 -0.1635 -0.1250
 1728BOLB   C4A41456  25.045  13.406  12.278 -0.0040 -0.3337  0.0353
 1728BOLB   C1B41457  25.292  14.071  13.263  0.1924 -0.2680 -0.3369
 1728BOLB   C2B41458  25.313  13.716  13.237 -0.0469 -0.0170  0.1370
 1728BOLB   C3B41459  25.194  13.207  13.267 -0.2138 -0.3297  0.1519
 1728BOLB   C4B41460  24.940  13.054  13.011 -0.1167  0.2722  0.2534
 1728BOLB   NC241461  25.367  11.415  11.116 -0.0454 -0.1032  0.0413
 1728BOLB   PO241462  25.306  11.482  10.725 -0.1888 -0.3587 -0.2576
 1728BOLB   GL341463  25.336  11.892  10.992  0.3155  0.2210  0.1498
 1728BOLB   GL441464  25.189  11.828  11.347  0.4222 -0.0649 -0.1084
 1728BOLB   C1C41465  25.247  12.355  11.112 -0.0049  0.1213 -0.0598
 1728BOLB   C2C41466  24.976  12.660  11.410 -0.0776  0.0501  0.3623
 1728BOLB   C3C41467  24.765  12.952  11.656 -0.0382 -0.2867  0.1071
 1728BOLB   C4C41468  24.687  13.275  11.955  0.1152 -0.2134 -0.0126
 1728BOLB   C1D41469  24.988  12.186  11.556 -0.0457 -0.1242  0.1023
 1728BOLB   C2D41470  25.013  12.521  11.876 -0.0099  0.0325 -0.0994
 1728BOLB   C3D41471  24.670  12.572  12.163  0.1579  0.0012  0.2448
 1728BOLB   C4D41472  24.606  12.317  12.495 -0.2567  0.0809 -0.3348
 1729BOLB   NC141473  24.256  12.875  16.405 -0.1638 -0.0294 -0.0975
 1729BOLB   PO141474  24.709  12.717  16.560 -0.2986 -0.1049  0.1829
 1729BOLB   GL141475  24.987  12.400  16.566 -0.2491 -0.1628 -0.0378
 1729BOLB   GL241476  24.878  12.066  16.411 -0.1973  0.1821 -0.2187
 1729BOLB   C1A41477  25.347  12.150  16.488 -0.0172 -0.0218  0.0332
 1729BOLB   C2A41478  25.511  11.730  16.499  0.2703 -0.1570 -0.1505
 1729BOLB   C3A41479  25.595  11.401  16.337 -0.1646  0.1596  0.0631
 1729BOLB   C4A41480  25.825  11.104  16.337  0.0010  0.2306  0.1305
 1729BOLB   C1B41481  24.538  11.978  16.007 -0.0623 -0.2163 -0.1406
 1729BOLB   C2B41482  24.594  12.251  15.615 -0.0001  0.0897  0.0483
 1729BOLB   C3B41483  24.574  12.055  15.127  0.1958 -0.3585 -0.0985
 1729BOLB   C4B41484  24.874  12.049  14.871 -0.1282  0.1295  0.0196
 1729BOLB   NC241485  26.895   8.514  15.712  0.2063 -0.2925 -0.2562
 1729BOLB   PO241486  26.637   8.773  16.051  0.2939 -0.2159  0.0808
 1729BOLB   GL341487  26.600   9.257  16.049  0.1250 -0.0554 -0.1272
 1729BOLB   GL441488  26.727   9.511  16.181  0.2376 -0.5243  0.0262
 1729BOLB   C1C41489  26.341   9.528  15.847  0.1145 -0.1428  0.2444
 1729BOLB   C2C41490  26.002   9.870  15.965 -0.0648  0.0572 -0.1006
 1729BOLB   C3C41491  25.834  10.242  16.206 -0.2590  0.3311  0.0740
 1729BOLB   C4C41492  25.854  10.706  16.337 -0.1129  0.3025  0.5348
 1729BOLB   C1D41493  26.425   9.490  16.541  0.1859  0.1423 -0.3522
 1729BOLB   C2D41494  26.317   9.409  16.937  0.2232 -0.1641 -0.1919
 1729BOLB   C3D41495  26.397   9.183  17.293 -0.0508  0.1973 -0.0010
 1729BOLB   C4D41496  26.014   9.203  17.649  0.4885 -0.0304  0.0159
 1730BOLB   NC141497  23.962  11.804  16.485  0.1417  0.2164  0.1746
 1730BOLB   PO141498  23.617  11.589  16.589 -0.2239  0.5651 -0.4563
 1730BOLB   GL141499  23.716  11.296  16.804  0.0801 -0.1800  0.0314
 1730BOLB   GL241500  23.586  11.093  17.034  0.1510 -0.1311  0.1668
 1730BOLB   C1A41501  23.895  10.897  16.610 -0.0635  0.4042  0.3762
 1730BOLB   C2A41502  24.066  10.596  16.755  0.0982 -0.0278  0.1508
 1730BOLB   C3A41503  24.245  10.238  16.623 -0.1915 -0.4756  0.2811
 1730BOLB   C4A41504  24.186   9.762  16.561  0.1480  0.2399  0.0637
 1730BOLB   C1B41505  23.353  10.730  17.194 -0.0413  0.0653 -0.0287
 1730BOLB   C2B41506  23.496  10.467  17.481 -0.2051 -0.0409 -0.2730
 1730BOLB   C3B41507  23.544   9.946  17.588 -0.1779  0.1725  0.0834
 1730BOLB   C4B41508  23.522   9.447  17.647 -0.4319 -0.0554 -0.1055
 1730BOLB   NC241509  24.691   7.897  15.713  0.5090  0.0106  0.0456
 1730BOLB   PO241510  25.106   7.951  15.520 -0.3079  0.0756 -0.0786
 1730BOLB   GL341511  24.831   8.343  15.501  0.4699 -0.0601 -0.2846
 1730BOLB   GL441512  24.838   8.528  15.276 -0.1093  0.0874  0.1771
 1730BOLB   C1C41513  24.468   8.542  15.712  0.3840  0.0867 -0.0765
 1730BOLB   C2C41514  24.239   8.700  15.966  0.1021  0.0843 -0.0224
 1730BOLB   C3C41515  24.005   9.143  16.061 -0.1153  0.1019  0.3954
 1730BOLB   C4C41516  23.931   9.409  16.344 -0.0470  0.3885 -0.1031
 1730BOLB   C1D41517  24.634   8.949  15.351 -0.2231  0.0616 -0.0071
 1730BOLB   C2D41518  24.497   9.386  15.071  0.0804  0.1455 -0.3097
 1730BOLB   C3D41519  24.425   9.692  15.108  0.2552 -0.0770 -0.2049
 1730BOLB   C4D41520  24.149   9.995  15.201 -0.2063  0.2246  0.1735
 1731BOLB   NC141521  27.065  12.425  17.360  0.1679  0.0619  0.0932
 1731BOLB   PO141522  26.895  12.527  16.870 -0.0914  0.2161  0.4769
 1731BOLB   GL141523  26.764  12.351  16.462  0.1687  0.1519 -0.0831
 1731BOLB   GL241524  26.502  12.162  16.645  0.1650  0.1985  0.0194
 1731BOLB   C1A41525  26.536  12.063  16.200 -0.0336  0.0816 -0.2711
 1731BOLB   C2A41526  26.404  11.635  16.222 -0.2055  0.3742  0.0759
 1731BOLB   C3A41527  26.373  11.164  16.320  0.1085 -0.4292  0.2952
 1731BOLB   C4A41528  26.294  10.811  16.520  0.1033 -0.1671 -0.4254
 1731BOLB   C1B41529  26.198  11.867  16.662 -0.1330 -0.2072 -0.3442
 1731BOLB   C2B41530  26.057  11.465  16.601  0.3037  0.0614  0.4035
 1731BOLB   C3B41531  26.016  11.080  16.828  0.2925 -0.4651  0.2459
 1731BOLB   C4B41532  26.005  10.667  17.044 -0.0639 -0.1019 -0.0733
 1731BOLB   NC241533  26.912   9.047  15.757 -0.0672 -0.1117 -0.0374
 1731BOLB   PO241534  26.669   8.855  15.427 -0.1348 -0.0119 -0.0133
 1731BOLB   GL341535  26.343   9.050  15.552 -0.1433 -0.0999  0.0061
 1731BOLB   GL441536  26.147   9.298  15.349 -0.0845  0.0441 -0.1247
 1731BOLB   C1C41537  26.019   9.144  15.870  0.1200 -0.1416 -0.0727
 1731BOLB   C2C41538  26.017   9.450  16.256 -0.2340  0.0418  0.3608
 1731BOLB   C3C41539  26.172   9.965  16.442  0.3122 -0.0219 -0.4456
 1731BOLB   C4C41540  26.164  10.366  16.625  0.0192 -0.0340 -0.1858
 1731BOLB   C1D41541  25.933   9.633  15.555  0.2834  0.4653  0.1510
 1731BOLB   C2D41542  25.574   9.992  15.563  0.2765  0.1519 -0.1088
 1731BOLB   C3D41543  25.551  10.335  15.872 -0.0125 -0.0905  0.1009
 1731BOLB   C4D41544  25.709  10.768  15.770 -0.0941 -0.0688  0.2373
 1732BOLB   NC141545  23.189  15.388  12.565 -0.0214  0.1041 -0.0890
 1732BOLB   PO141546  22.977  14.883  12.561 -0.1244  0.0826  0.0303
 1732BOLB   GL141547  23.038  14.639  12.122 -0.3054 -0.2060 -0.1663
 1732BOLB   GL241548  22.885  14.435  12.211 -0.3766 -0.0343 -0.4422
 1732BOLB   C1A41549  23.377  14.566  11.884 -0.2064 -0.3125 -0.1191
 1732BOLB   C2A41550  23.708  14.828  11.727  0.0143  0.4133 -0.2190
 1732BOLB   C3A41551  23.956  15.182  11.574 -0.0247 -0.0457 -0.2480
 1732BOLB   C4A41552  24.110  15.111  11.074  0.1389  0.2124  0.0928
 1732BOLB   C1B41553  23.023  14.192  11.887 -0.0997 -0.4779  0.0836
 1732BOLB   C2B41554  23.176  14.258  11.511 -0.0434 -0.0846  0.0506
 1732BOLB   C3B41555  23.674  14.331  11.455 -0.0142 -0.0036  0.1828
 1732BOLB   C4B41556  24.049  14.042  11.343  0.1857  0.0530  0.2884
 1732BOLB   NC241557  24.312  15.728   8.628  0.1855  0.0508  0.0468
 1732BOLB   PO241558  24.567  15.567   8.938  0.1563 -0.2096  0.2045
 1732BOLB   GL341559  24.382  15.711   9.248 -0.1896 -0.1151 -0.1841
 1732BOLB   GL441560  24.094  15.862   9.100  0.1494 -0.6108 -0.0021
 1732BOLB   C1C41561  24.266  15.643   9.658 -0.4666  0.0154  0.2502
 1732BOLB   C2C41562  23.997  15.369   9.921  0.0087 -0.0200  0.1814
 1732BOLB   C3C41563  23.961  15.306  10.390 -0.2917  0.0628  0.0675
 1732BOLB   C4C41564  24.009  15.117  10.781 -0.1661  0.0311 -0.2274
 1732BOLB   C1D41565  23.915  15.443   9.247 -0.3274  0.0287 -0.2347
 1732BOLB   C2D41566  24.075  15.157   9.517  0.0680  0.2684 -0.1363
 1732BOLB   C3D41567  24.249  14.761   9.648 -0.1061  0.0202  0.0866
 1732BOLB   C4D41568  24.482  14.590   9.940  0.0058 -0.0302  0.0594
 1733BOLB   NC141569  24.903  13.347  15.850 -0.1998 -0.1395 -0.1926
 1733BOLB   PO141570  24.967  13.061  16.273  0.1901  0.1859  0.1755
 1733BOLB   GL141571  25.191  12.758  16.209 -0.0376 -0.0386  0.1654
 1733BOLB   GL241572  25.473  12.597  16.375  0.0067 -0.0806  0.0498
 1733BOLB   C1A41573  25.016  12.372  16.043  0.2197 -0.0475 -0.1931
 1733BOLB   C2A41574  25.088  11.989  15.888 -0.0009 -0.0546 -0.2874
 1733BOLB   C3A41575  25.175  11.545  15.562 -0.1272  0.1521  0.3141
 1733BOLB   C4A41576  25.401  11.270  15.450  0.1090 -0.0042 -0.0543
 1733BOLB   C1B41577  25.501  12.229  16.057  0.1209  0.3529  0.2764
 1733BOLB   C2B41578  25.698  12.090  15.706 -0.1552  0.3267  0.3404
 1733BOLB   C3B41579  25.616  11.868  15.384  0.1913 -0.3754  0.0755
 1733BOLB   C4B41580  25.753  11.910  14.949 -0.4260  0.1771 -0.4961
 1733BOLB   NC241581  27.427  10.377  13.420  0.1530 -0.0515 -0.2394
 1733BOLB   PO241582  26.960  10.453  13.611  0.0412 -0.0582 -0.3448
 1733BOLB   GL341583  26.623  10.545  13.944  0.0846 -0.0084  0.0134
 1733BOLB   GL441584  26.409  10.268  13.939  0.0398  0.1240  0.1040
 1733BOLB   C1C41585  26.392  10.661  14.273 -0.0448 -0.2122  0.0943
 1733BOLB   C2C41586  26.004  10.896  14.469  0.0579 -0.0303  0.2231
 1733BOLB   C3C41587  25.759  10.967  14.807  0.4198  0.4042  0.0185
 1733BOLB   C4C41588  25.573  10.987  15.261  0.0960 -0.2755 -0.2465
 1733BOLB   C1D41589  25.994  10.560  14.041  0.2400 -0.0193  0.1674
 1733BOLB   C2D41590  25.611  10.601  14.291  0.0684 -0.0142 -0.1336
 1733BOLB   C3D41591  25.500  10.509  14.744  0.2257  0.1286 -0.0944
 1733BOLB   C4D41592  25.278  10.751  14.890 -0.0993  0.2076 -0.2710
 1734BOLB   NC141593  22.620  11.929  15.496 -0.2789  0.1265 -0.0657
 1734BOLB   PO141594  22.285  11.896  15.179 -0.0416  0.2895 -0.0377
 1734BOLB   GL141595  22.207  11.653  14.851  0.4231 -0.1440 -0.2090
 1734BOLB   GL241596  22.305  11.846  14.547 -0.0429  0.0775 -0.1482
 1734BOLB   C1A41597  22.219  11.186  14.632  0.0536  0.0883  0.3284
 1734BOLB   C2A41598  22.491  10.758  14.564  0.0603  0.0377 -0.3652
 1734BOLB   C3A41599  22.824  10.440  14.486 -0.2613 -0.1816  0.0410
 1734BOLB   C4A41600  22.883  10.104  14.207 -0.0445 -0.1595  0.1032
 1734BOLB   C1B41601  22.430  11.426  14.264 -0.1293 -0.2017  0.0481
 1734BOLB   C2B41602  22.347  11.015  14.069 -0.1812  0.0239  0.2038
 1734BOLB   C3B41603  22.155  10.715  13.776  0.2820 -0.1877 -0.1271
 1734BOLB   C4B41604  22.038  10.488  13.419 -0.1164  0.0157 -0.1429
 1734BOLB   NC241605  23.020   7.755  12.557 -0.1418 -0.2954 -0.0263
 1734BOLB   PO241606  22.956   8.081  12.977 -0.0479  0.0973  0.1366
 1734BOLB   GL341607  22.944   8.328  13.271 -0.2187  0.0781 -0.0910
 1734BOLB   GL441608  23.255   8.318  13.354  0.3097 -0.0912 -0.0362
 1734BOLB   C1C41609  22.748   8.639  13.435  0.0420 -0.0279 -0.0346
 1734BOLB   C2C41610  22.786   9.064  13.573  0.3145  0.0353  0.1668
 1734BOLB   C3C41611  22.864   9.363  13.847  0.0730 -0.2862 -0.5656
 1734BOLB   C4C41612  22.888   9.721  14.116 -0.1249 -0.0350  0.0676
 1734BOLB   C1D41613  23.159   8.578  13.712  0.1428  0.1366 -0.1106
 1734BOLB   C2D41614  23.099   8.934  14.100 -0.4771  0.1501  0.2563
 1734BOLB   C3D41615  23.056   9.266  14.363 -0.1252  0.1939 -0.1246
 1734BOLB   C4D41616  23.339   9.594  14.531  0.2268 -0.4467  0.0130
 1735BOLB   NC141617  25.394  22.503  11.841  0.0505  0.1047  0.3108
 1735BOLB   PO141618  24.996  22.456  12.063 -0.0031 -0.1511 -0.0358
 1735BOLB   GL141619  24.963  22.121  11.767 -0.0880  0.2072 -0.2822
 1735BOLB   GL241620  24.823  22.079  11.449 -0.2758 -0.0320  0.0429
 1735BOLB   C1A41621  24.961  21.647  11.593  0.0444 -0.0524 -0.0603
 1735BOLB   C2A41622  25.210  21.237  11.471 -0.0314  0.1855  0.0931
 1735BOLB   C3A41623  25.346  20.860  11.376  0.0274 -0.3919 -0.0558
 1735BOLB   C4A41624  25.336  20.382  11.372 -0.1001  0.2025  0.2463
 1735BOLB   C1B41625  24.619  22.373  11.201  0.0432  0.0769  0.0203
 1735BOLB   C2B41626  24.511  22.356  10.821  0.2119  0.2684 -0.0220
 1735BOLB   C3B41627  24.073  22.513  10.584 -0.3137 -0.2846  0.0162
 1735BOLB   C4B41628  23.715  22.897  10.637 -0.3191  0.0800  0.0596
 1735BOLB   NC241629  26.378  20.564  10.642  0.2585 -0.0456  0.1359
 1735BOLB   PO241630  26.324  20.348  10.288  0.0448  0.0118  0.2070
 1735BOLB   GL341631  25.913  20.425  10.382 -0.2323  0.1363 -0.0483
 1735BOLB   GL441632  25.782  20.578  10.646  0.0450 -0.3110 -0.0261
 1735BOLB   C1C41633  25.372  20.470  10.347 -0.3506 -0.3103 -0.0057
 1735BOLB   C2C41634  25.035  20.169  10.487  0.3036 -0.0561  0.0939
 1735BOLB   C3C41635  24.896  20.007  10.832 -0.1020 -0.1628 -0.0093
 1735BOLB   C4C41636  25.201  20.043  11.198 -0.0431  0.3083  0.3189
 1735BOLB   C1D41637  25.402  20.495  10.871 -0.2353  0.1509  0.2794
 1735BOLB   C2D41638  24.987  20.492  10.878 -0.3514 -0.0184 -0.0095
 1735BOLB   C3D41639  24.592  20.809  10.824  0.1641  0.1183 -0.0411
 1735BOLB   C4D41640  24.152  20.671  10.785  0.1549 -0.0080  0.0547
 1736BOLB   NC141641  24.821  21.861  12.938 -0.0433 -0.2652 -0.1067
 1736BOLB   PO141642  24.416  22.025  12.848 -0.4022  0.3819 -0.0800
 1736BOLB   GL141643  24.438  21.593  13.052  0.3776 -0.3906 -0.1899
 1736BOLB   GL241644  24.341  21.518  13.354  0.4764 -0.3731  0.1284
 1736BOLB   C1A41645  24.466  21.093  12.833  0.0423  0.5637  0.1405
 1736BOLB   C2A41646  24.413  20.591  12.717  0.0467 -0.2047 -0.1669
 1736BOLB   C3A41647  24.515  20.326  12.452 -0.2303 -0.0406  0.1491
 1736BOLB   C4A41648  24.807  19.907  12.375  0.0524 -0.2270 -0.2883
 1736BOLB   C1B41649  24.456  21.114  13.434 -0.1317 -0.2007  0.0596
 1736BOLB   C2B41650  24.607  20.646  13.561 -0.2440 -0.1671  0.0218
 1736BOLB   C3B41651  24.791  20.255  13.586  0.0884 -0.0530 -0.0198
 1736BOLB   C4B41652  25.215  19.989  13.393 -0.0294 -0.3274 -0.1197
 1736BOLB   NC241653  26.425  19.650  10.701  0.0591 -0.5708 -0.1072
 1736BOLB   PO241654  26.534  19.609  11.072  0.0044 -0.2354  0.0565
 1736BOLB   GL341655  26.142  19.509  11.185 -0.1289  0.2813  0.0692
 1736BOLB   GL441656  25.985  19.597  10.893  0.0759  0.0137  0.2302
 1736BOLB   C1C41657  25.984  19.516  11.580 -0.0024  0.0152  0.1037
 1736BOLB   C2C41658  25.598  19.406  11.815 -0.0785 -0.0348  0.3606
 1736BOLB   C3C41659  25.267  19.428  12.047  0.1453  0.1360 -0.1961
 1736BOLB   C4C41660  25.195  19.676  12.285  0.0636 -0.0955  0.1534
 1736BOLB   C1D41661  25.673  19.421  10.582  0.2228  0.0981  0.1774
 1736BOLB   C2D41662  25.324  19.237  10.608  0.1472 -0.4068 -0.3236
 1736BOLB   C3D41663  25.209  18.888  10.456  0.0407  0.1659 -0.0244
 1736BOLB   C4D41664  25.320  18.669  10.045  0.2517  0.1154  0.1206
 1737BOLB   NC141665  22.587  14.611  13.811 -0.0717 -0.3117  0.1849
 1737BOLB   PO141666  22.752  14.324  13.381 -0.0381 -0.1721 -0.4243
 1737BOLB   GL141667  23.084  13.972  13.109  0.1988 -0.1738  0.3200
 1737BOLB   GL241668  22.824  13.794  12.973  0.3238  0.0292 -0.1581
 1737BOLB   C1A41669  23.305  13.854  12.786 -0.0075 -0.0967 -0.1036
 1737BOLB   C2A41670  23.330  13.589  12.473 -0.4801  0.0878 -0.1189
 1737BOLB   C3A41671  23.434  13.266  12.280 -0.2062 -0.1612 -0.0866
 1737BOLB   C4A41672  23.584  12.959  12.031 -0.0259  0.1034 -0.1559
 1737BOLB   C1B41673  22.819  13.939  12.597  0.0408 -0.1371  0.1596
 1737BOLB   C2B41674  22.976  13.816  12.237 -0.0070  0.4707 -0.2374
 1737BOLB   C3B41675  23.115  13.553  11.976  0.2386 -0.0106 -0.0651
 1737BOLB   C4B41676  23.523  13.423  11.867  0.2054 -0.0667  0.3743
 1737BOLB   NC241677  25.642  12.249  10.627 -0.0828  0.1161  0.1680
 1737BOLB   PO241678  25.210  12.218  10.423  0.0234  0.1672 -0.1706
 1737BOLB   GL341679  24.909  12.355  10.730 -0.1536  0.0837  0.4079
 1737BOLB   GL441680  24.606  12.238  10.633  0.1624  0.1631  0.1139
 1737BOLB   C1C41681  24.596  12.673  10.925 -0.4392 -0.1818  0.2907
 1737BOLB   C2C41682  24.441  12.724  11.347  0.2919  0.0052 -0.2340
 1737BOLB   C3C41683  24.278  12.857  11.649  0.1423  0.0776 -0.1971
 1737BOLB   C4C41684  23.841  13.014  11.842 -0.1153 -0.0733 -0.0562
 1737BOLB   C1D41685  24.332  12.557  10.380  0.0707  0.0735  0.2106
 1737BOLB   C2D41686  24.351  12.951  10.210 -0.1297  0.5347 -0.0828
 1737BOLB   C3D41687  24.342  13.383  10.292 -0.3653  0.2231  0.1149
 1737BOLB   C4D41688  24.078  13.689  10.334  0.1070 -0.1114 -0.1166
 1738BOLB   NC141689  22.001  19.821  11.632 -0.0468  0.0155 -0.0195
 1738BOLB   PO141690  21.709  19.648  11.367 -0.1725  0.0065  0.0223
 1738BOLB   GL141691  21.772  19.371  11.104  0.0215  0.0610 -0.0878
 1738BOLB   GL241692  21.494  19.140  11.027 -0.0190  0.0202 -0.1516
 1738BOLB   C1A41693  21.819  19.418  10.639  0.0620  0.2212  0.0506
 1738BOLB   C2A41694  22.222  19.311  10.376  0.0364 -0.1873 -0.3535
 1738BOLB   C3A41695  22.409  19.341   9.990 -0.1594 -0.2816  0.1911
 1738BOLB   C4A41696  22.491  19.045   9.760 -0.0996  0.1049  0.1171
 1738BOLB   C1B41697  21.703  18.940  10.744  0.1630  0.0987  0.2743
 1738BOLB   C2B41698  21.961  18.865  10.473 -0.2284 -0.1646 -0.0728
 1738BOLB   C3B41699  22.294  18.799  10.156  0.1752  0.2548 -0.0976
 1738BOLB   C4B41700  22.651  18.921  10.235 -0.1803 -0.0020  0.1018
 1738BOLB   NC241701  23.276  17.905   7.258  0.1345  0.0011 -0.0126
 1738BOLB   PO241702  22.947  18.123   7.481  0.2457 -0.0406  0.0658
 1738BOLB   GL341703  22.925  18.230   7.817  0.1546  0.1078 -0.2058
 1738BOLB   GL441704  23.037  17.974   8.000  0.4594 -0.4753  0.0868
 1738BOLB   C1C41705  22.711  18.537   8.195 -0.0607 -0.1100  0.1543
 1738BOLB   C2C41706  22.563  18.650   8.512  0.0520  0.3758  0.1419
 1738BOLB   C3C41707  22.470  18.645   8.957  0.1039  0.1009 -0.2078
 1738BOLB   C4C41708  22.523  18.785   9.392 -0.2884 -0.2323  0.2136
 1738BOLB   C1D41709  23.137  17.830   8.458  0.1568 -0.0272  0.0633
 1738BOLB   C2D41710  23.157  17.926   8.932 -0.1133  0.1392  0.0717
 1738BOLB   C3D41711  23.172  18.045   9.253  0.0226 -0.1586 -0.3749
 1738BOLB   C4D41712  22.944  17.782   9.649  0.0511 -0.0535  0.1255
 1739BOLB   NC141713  27.140  13.100  15.065  0.1645 -0.2088  0.1343
 1739BOLB   PO141714  27.118  13.354  15.523  0.2682  0.1133 -0.1262
 1739BOLB   GL141715  26.674  13.150  15.318  0.0825 -0.2377 -0.0429
 1739BOLB   GL241716  26.420  13.209  15.563 -0.1450 -0.1677 -0.1585
 1739BOLB   C1A41717  26.278  13.028  15.029 -0.3558  0.2428 -0.1845
 1739BOLB   C2A41718  26.096  12.817  14.905  0.0209 -0.1228 -0.3783
 1739BOLB   C3A41719  25.857  12.427  14.815 -0.1250  0.0269 -0.1539
 1739BOLB   C4A41720  25.956  12.060  14.505 -0.2121  0.1221  0.1552
 1739BOLB   C1B41721  26.473  12.787  15.584  0.0174 -0.0367 -0.0415
 1739BOLB   C2B41722  26.558  12.293  15.579 -0.1984 -0.0676  0.0329
 1739BOLB   C3B41723  26.326  11.886  15.790  0.0863  0.3478  0.2870
 1739BOLB   C4B41724  26.102  11.493  15.658 -0.3036 -0.0288  0.0326
 1739BOLB   NC241725  27.526   9.686  14.483  0.0313 -0.0485  0.1978
 1739BOLB   PO241726  27.530  10.215  14.413 -0.1194 -0.1736 -0.1413
 1739BOLB   GL341727  27.209  10.575  14.544  0.2742  0.1008 -0.0151
 1739BOLB   GL441728  27.089  10.758  14.857  0.3366 -0.0823 -0.0697
 1739BOLB   C1C41729  26.973  10.740  14.320  0.0261 -0.0034 -0.0491
 1739BOLB   C2C41730  26.651  11.069  14.148 -0.2330  0.2514 -0.2119
 1739BOLB   C3C41731  26.187  11.272  14.178  0.1522 -0.0522  0.1794
 1739BOLB   C4C41732  26.086  11.737  14.188  0.2391  0.0876 -0.2710
 1739BOLB   C1D41733  26.794  10.732  15.180  0.0305 -0.0033 -0.0710
 1739BOLB   C2D41734  26.439  10.469  15.239  0.2777 -0.0314 -0.2400
 1739BOLB   C3D41735  26.356  10.506  15.676 -0.2080 -0.2076 -0.1099
 1739BOLB   C4D41736  26.261  10.438  16.069  0.1270 -0.0208 -0.0492
 1740BOLB   NC141737  24.021  23.744  12.880  0.1566  0.0569  0.0848
 1740BOLB   PO141738  24.433  23.722  12.855 -0.0268 -0.0370 -0.2467
 1740BOLB   GL141739  24.262  23.664  12.468 -0.0556 -0.2395 -0.2106
 1740BOLB   GL241740  24.115  23.924  12.423  0.4057  0.1043 -0.0938
 1740BOLB   C1A41741  23.925  23.516  12.124  0.1768 -0.0857  0.0922
 1740BOLB   C2A41742  23.617  23.497  11.934 -0.3178  0.1199 -0.0461
 1740BOLB   C3A41743  23.586  23.479  11.454 -0.2159 -0.0470  0.2116
 1740BOLB   C4A41744  23.296  23.684  11.076  0.4336 -0.1015 -0.1384
 1740BOLB   C1B41745  23.767  23.991  12.219 -0.3545  0.0876  0.1151
 1740BOLB   C2B41746  23.625  24.052  11.867  0.0082 -0.0632  0.4547
 1740BOLB   C3B41747  23.270  23.933  11.551  0.0673 -0.0154  0.0749
 1740BOLB   C4B41748  23.094  24.179  11.256  0.0387  0.3553  0.1271
 1740BOLB   NC241749  24.947  22.912  10.156  0.0328 -0.0508  0.0355
 1740BOLB   PO241750  24.582  22.937   9.824  0.2367 -0.0009 -0.0969
 1740BOLB   GL341751  24.311  22.616   9.946  0.1739  0.2141  0.1576
 1740BOLB   GL441752  24.357  22.369  10.107  0.0038  0.2888  0.2847
 1740BOLB   C1C41753  23.947  22.654  10.134  0.1437  0.2513 -0.0565
 1740BOLB   C2C41754  23.589  22.984  10.133 -0.0445  0.1346  0.0953
 1740BOLB   C3C41755  23.349  23.158  10.414 -0.1823  0.1578 -0.0985
 1740BOLB   C4C41756  23.369  23.547  10.660  0.0872  0.2778  0.0305
 1740BOLB   C1D41757  24.085  21.992  10.296 -0.1978  0.2707  0.0079
 1740BOLB   C2D41758  24.001  21.528  10.510 -0.0070  0.0288  0.2683
 1740BOLB   C3D41759  23.988  21.151  10.349 -0.0701 -0.0559 -0.0309
 1740BOLB   C4D41760  23.771  20.740  10.454  0.0596  0.3043  0.0001
 1741BOLB   NC141761  27.168  13.541  11.265  0.1045 -0.1378  0.0301
 1741BOLB   PO141762  27.159  13.582  11.735  0.0707  0.0186  0.1863
 1741BOLB   GL141763  27.052  13.932  12.020 -0.0053 -0.1210  0.3104
 1741BOLB   GL241764  26.805  13.780  12.191 -0.1299  0.0592  0.3970
 1741BOLB   C1A41765  26.865  14.249  12.244  0.2904  0.2423 -0.1355
 1741BOLB   C2A41766  26.608  14.539  12.373  0.4108 -0.3177 -0.6291
 1741BOLB   C3A41767  26.191  14.461  12.524  0.2732  0.1238  0.1614
 1741BOLB   C4A41768  25.843  14.461  12.448  0.0902 -0.0258 -0.1148
 1741BOLB   C1B41769  26.555  13.551  12.495 -0.0426  0.0646  0.2424
 1741BOLB   C2B41770  26.374  13.242  12.818 -0.0087 -0.1176  0.0755
 1741BOLB   C3B41771  26.598  12.962  13.068 -0.0448 -0.1929  0.0384
 1741BOLB   C4B41772  26.834  12.754  13.183 -0.2381  0.2926  0.1460
 1741BOLB   NC241773  26.741  14.952  10.434  0.1396  0.0601 -0.1942
 1741BOLB   PO241774  26.507  14.604  10.608  0.1872  0.0574 -0.0064
 1741BOLB   GL341775  26.177  14.574  10.884  0.0572 -0.2594 -0.3182
 1741BOLB   GL441776  26.364  14.765  11.080 -0.1768  0.1631 -0.0677
 1741BOLB   C1C41777  25.837  14.341  11.012 -0.1429  0.3922  0.2215
 1741BOLB   C2C41778  25.504  14.216  11.252  0.1489 -0.2718 -0.0330
 1741BOLB   C3C41779  25.322  14.375  11.665 -0.2485  0.2025 -0.0186
 1741BOLB   C4C41780  25.557  14.369  12.094  0.1177  0.0087  0.0105
 1741BOLB   C1D41781  26.122  14.750  11.498 -0.0362  0.1010  0.0425
 1741BOLB   C2D41782  26.134  14.563  11.968 -0.2642 -0.1948 -0.1172
 1741BOLB   C3D41783  26.166  14.100  12.184  0.1344 -0.0775 -0.2187
 1741BOLB   C4D41784  26.075  13.788  12.540 -0.3150 -0.2243  0.0126
 1742BOLB   NC141785  24.047  12.899  15.461 -0.1840 -0.1922  0.5299
 1742BOLB   PO141786  24.127  12.838  15.937 -0.2410 -0.2086  0.0596
 1742BOLB   GL141787  24.194  12.395  15.877  0.0661  0.2081  0.3564
 1742BOLB   GL241788  23.995  12.118  15.856  0.1098  0.0162 -0.2482
 1742BOLB   C1A41789  24.138  12.286  15.410 -0.1672 -0.1068 -0.0722
 1742BOLB   C2A41790  24.070  12.171  14.991 -0.1635 -0.1925  0.0895
 1742BOLB   C3A41791  24.323  11.807  14.727  0.0788 -0.0843  0.0417
 1742BOLB   C4A41792  24.730  11.658  14.506  0.0882  0.1884 -0.0792
 1742BOLB   C1B41793  24.341  11.859  15.573  0.2139 -0.1766  0.0698
 1742BOLB   C2B41794  24.679  11.719  15.569 -0.0338  0.4041  0.2777
 1742BOLB   C3B41795  24.770  11.258  15.441 -0.0595  0.1206 -0.0004
 1742BOLB   C4B41796  25.042  11.065  15.174 -0.4284 -0.1622  0.4986
 1742BOLB   NC241797  25.048  10.173  12.564 -0.3043  0.1242 -0.2899
 1742BOLB   PO241798  25.374  10.366  12.601 -0.1437 -0.0948 -0.1120
 1742BOLB   GL341799  25.250  10.412  12.962  0.2062  0.2494  0.0322
 1742BOLB   GL441800  25.320  10.264  13.221  0.1320  0.4244 -0.5327
 1742BOLB   C1C41801  25.102  10.782  13.259  0.1152  0.3718  0.1992
 1742BOLB   C2C41802  24.851  10.788  13.617  0.0324  0.0197  0.0027
 1742BOLB   C3C41803  24.642  10.992  13.865 -0.0759 -0.1405  0.1744
 1742BOLB   C4C41804  24.702  11.374  14.191 -0.2530  0.1737  0.0856
 1742BOLB   C1D41805  25.097  10.204  13.524 -0.1200  0.1230 -0.1207
 1742BOLB   C2D41806  25.233  10.197  13.920 -0.0584 -0.0689 -0.4296
 1742BOLB   C3D41807  25.167  10.406  14.360  0.1591 -0.0353  0.0307
 1742BOLB   C4D41808  24.988  10.391  14.889 -0.0090  0.0754  0.0355
 1743BOLB   NC141809  21.584  22.610  13.146 -0.2974 -0.1095  0.2341
 1743BOLB   PO141810  21.267  22.925  13.127  0.0365 -0.0220 -0.0240
 1743BOLB   GL141811  21.503  23.122  12.838 -0.0388 -0.0476  0.2061
 1743BOLB   GL241812  21.860  23.200  12.740 -0.0592 -0.0342  0.0499
 1743BOLB   C1A41813  21.435  23.521  12.567 -0.0679 -0.0367  0.0531
 1743BOLB   C2A41814  21.488  23.840  12.237 -0.1876 -0.0141  0.1758
 1743BOLB   C3A41815  21.797  24.048  11.995  0.0217 -0.0442 -0.0592
 1743BOLB   C4A41816  22.121  24.315  11.787  0.0492 -0.0714  0.2848
 1743BOLB   C1B41817  21.836  23.312  12.277 -0.0201 -0.1914  0.0053
 1743BOLB   C2B41818  21.834  23.561  11.875 -0.0784  0.3304 -0.0165
 1743BOLB   C3B41819  21.745  23.790  11.572  0.1661 -0.1071 -0.0795
 1743BOLB   C4B41820  21.747  23.987  11.065  0.1410  0.0660  0.1152
 1743BOLB   NC241821  24.006  26.213  10.624 -0.2339 -0.0556 -0.2186
 1743BOLB   PO241822  23.534  26.199  10.674 -0.0577 -0.0303 -0.0428
 1743BOLB   GL341823  23.305  25.901  10.958 -0.1854  0.3072  0.1804
 1743BOLB   GL441824  23.074  26.010  11.115  0.0452 -0.1159  0.2093
 1743BOLB   C1C41825  23.079  25.526  11.006 -0.0678 -0.1335  0.3938
 1743BOLB   C2C41826  22.812  25.214  11.223  0.0997 -0.1687 -0.0361
 1743BOLB   C3C41827  22.484  24.910  11.180 -0.0618 -0.0643 -0.0057
 1743BOLB   C4C41828  22.119  24.687  11.491 -0.2302 -0.0320  0.0285
 1743BOLB   C1D41829  22.713  25.827  11.341 -0.3304  0.0369  0.1235
 1743BOLB   C2D41830  22.428  25.856  11.590  0.1699  0.1195 -0.0385
 1743BOLB   C3D41831  22.054  25.915  11.561  0.2183 -0.3130  0.0059
 1743BOLB   C4D41832  21.644  26.034  11.374  0.1188  0.0028 -0.0667
 1744BOLB   NC141833  27.963  11.006  15.703  0.1629 -0.1246 -0.0471
 1744BOLB   PO141834  27.563  10.836  15.754  0.0205 -0.3075  0.0746
 1744BOLB   GL141835  27.372  11.273  15.765 -0.1575  0.0523 -0.0004
 1744BOLB   GL241836  27.211  11.125  16.025 -0.0741 -0.0364  0.2837
 1744BOLB   C1A41837  27.044  11.661  15.859  0.1177  0.2374  0.0363
 1744BOLB   C2A41838  26.780  11.842  15.518  0.0258 -0.2772  0.3156
 1744BOLB   C3A41839  26.616  12.019  15.142  0.0191 -0.0879  0.0618
 1744BOLB   C4A41840  26.401  12.254  14.976  0.0787  0.1210 -0.2723
 1744BOLB   C1B41841  26.740  11.274  15.994 -0.2047 -0.1731  0.1542
 1744BOLB   C2B41842  26.453  11.248  15.851 -0.3905 -0.1465 -0.0821
 1744BOLB   C3B41843  26.545  10.966  15.585  0.1217 -0.0511  0.2280
 1744BOLB   C4B41844  26.954  10.732  15.627  0.2375 -0.0284  0.0733
 1744BOLB   NC241845  27.335  11.514  13.278  0.2869 -0.2268  0.2263
 1744BOLB   PO241846  27.015  11.226  13.171  0.0708 -0.1523  0.0826
 1744BOLB   GL341847  26.669  11.424  13.442 -0.2068  0.1348 -0.0467
 1744BOLB   GL441848  26.369  11.580  13.261 -0.0986 -0.1954  0.1260
 1744BOLB   C1C41849  26.473  11.464  13.790  0.0894 -0.1974 -0.0211
 1744BOLB   C2C41850  26.439  11.908  13.874 -0.1587 -0.1197  0.0575
 1744BOLB   C3C41851  26.408  12.252  14.198 -0.3393 -0.2025 -0.1256
 1744BOLB   C4C41852  26.274  12.431  14.573 -0.0173  0.1556 -0.0549
 1744BOLB   C1D41853  26.073  11.345  13.444 -0.3637  0.2874  0.0741
 1744BOLB   C2D41854  25.737  11.361  13.711 -0.5525  0.0719 -0.4025
 1744BOLB   C3D41855  25.594  11.518  14.136  0.2521  0.2909 -0.1998
 1744BOLB   C4D41856  25.760  11.568  14.550  0.1535  0.0270  0.0960
 1745BOLB   NC141857  25.529  21.684  12.421  0.0406  0.1802 -0.1578
 1745BOLB   PO141858  25.481  21.719  12.952  0.0629  0.2229 -0.0627
 1745BOLB   GL141859  25.213  21.341  13.244 -0.0666 -0.1483 -0.0222
 1745BOLB   GL241860  24.835  21.273  13.210  0.0993 -0.3039 -0.0182
 1745BOLB   C1A41861  25.021  21.055  13.606  0.1995 -0.1719  0.2795
 1745BOLB   C2A41862  25.061  20.612  13.788  0.1529 -0.2095 -0.2908
 1745BOLB   C3A41863  25.228  20.213  13.856 -0.1674 -0.0593 -0.0756
 1745BOLB   C4A41864  25.000  19.857  13.826  0.2004  0.0128 -0.2439
 1745BOLB   C1B41865  24.813  20.745  13.094  0.1641  0.1471  0.0914
 1745BOLB   C2B41866  24.764  20.327  13.059 -0.0375 -0.0629  0.0488
 1745BOLB   C3B41867  24.805  19.958  12.850 -0.0097  0.4745 -0.0755
 1745BOLB   C4B41868  24.770  19.517  12.692 -0.2504  0.0755 -0.2133
 1745BOLB   NC241869  25.892  20.985  12.018  0.1392 -0.0551  0.0687
 1745BOLB   PO241870  25.812  20.778  12.523  0.2331 -0.0429 -0.0581
 1745BOLB   GL341871  25.635  20.427  12.744 -0.0970  0.0277 -0.1013
 1745BOLB   GL441872  25.730  20.363  13.117 -0.0102  0.0569  0.0242
 1745BOLB   C1C41873  25.390  20.089  12.758 -0.0676 -0.1757 -0.0882
 1745BOLB   C2C41874  25.247  19.689  12.822  0.0804 -0.2114  0.2681
 1745BOLB   C3C41875  25.003  19.538  13.170 -0.0347 -0.1575 -0.0223
 1745BOLB   C4C41876  24.915  19.575  13.566  0.4070  0.0320 -0.0130
 1745BOLB   C1D41877  25.696  19.916  13.095 -0.0159 -0.0677 -0.1933
 1745BOLB   C2D41878  25.749  19.533  12.897  0.1074  0.0597 -0.2634
 1745BOLB   C3D41879  25.467  19.321  13.033  0.0037 -0.1180 -0.4422
 1745BOLB   C4D41880  25.527  19.584  13.420 -0.0553 -0.4003 -0.2286
 1746BOLB   NC141881  21.935  10.792  16.815  0.1322  0.3618 -0.0919
 1746BOLB   PO141882  21.675  10.719  16.445  0.1417  0.0251 -0.0798
 1746BOLB   GL141883  21.998  10.377  16.569 -0.2164 -0.2590 -0.0032
 1746BOLB   GL241884  21.975  10.077  16.453  0.0672  0.1267  0.0714
 1746BOLB   C1A41885  22.342   9.959  16.714 -0.2232  0.0681 -0.3479
 1746BOLB   C2A41886  22.660   9.538  16.728  0.2310  0.0009  0.0923
 1746BOLB   C3A41887  23.092   9.288  16.703  0.0287  0.3239  0.1120
 1746BOLB   C4A41888  23.439   9.166  16.548 -0.1376 -0.0588  0.1915
 1746BOLB   C1B41889  22.174   9.748  16.207 -0.1438  0.0031  0.0976
 1746BOLB   C2B41890  22.412   9.380  15.999 -0.3290 -0.1351  0.2555
 1746BOLB   C3B41891  22.730   9.497  15.732 -0.0347  0.2959 -0.1084
 1746BOLB   C4B41892  22.933   9.349  15.304 -0.2084  0.0413 -0.1420
 1746BOLB   NC241893  24.247   7.289  14.576  0.1146 -0.0765  0.0310
 1746BOLB   PO241894  24.287   7.556  15.003  0.0720 -0.3496 -0.1933
 1746BOLB   GL341895  24.019   7.780  15.200 -0.0443  0.0381 -0.2051
 1746BOLB   GL441896  23.889   8.033  14.995 -0.0676  0.0276  0.2272
 1746BOLB   C1C41897  23.803   8.035  15.490 -0.1558  0.0993  0.1191
 1746BOLB   C2C41898  23.848   8.378  15.796 -0.0946  0.1300  0.1363
 1746BOLB   C3C41899  23.721   8.753  16.017 -0.1065 -0.2378  0.0510
 1746BOLB   C4C41900  23.630   8.873  16.362 -0.0329 -0.0838  0.1512
 1746BOLB   C1D41901  23.460   8.192  15.098 -0.0326 -0.0946 -0.0399
 1746BOLB   C2D41902  23.025   7.964  15.201  0.2222  0.0849 -0.1934
 1746BOLB   C3D41903  22.590   8.082  15.188  0.3774 -0.1519 -0.0990
 1746BOLB   C4D41904  22.237   8.365  15.486 -0.1731 -0.0503  0.0553
 1747BOLB   NC141905  23.257  17.788  12.078 -0.1916 -0.0276 -0.0392
 1747BOLB   PO141906  23.137  18.244  11.954 -0.1959 -0.0570  0.2887
 1747BOLB   GL141907  23.408  18.311  11.649  0.1694 -0.0687 -0.0054
 1747BOLB   GL241908  23.643  18.046  11.696 -0.4848  0.1342 -0.0970
 1747BOLB   C1A41909  23.817  18.478  11.460  0.1566  0.1157 -0.1638
 1747BOLB   C2A41910  24.020  18.630  11.070  0.3057 -0.2653 -0.0727
 1747BOLB   C3A41911  24.408  18.955  10.982 -0.2901 -0.1863  0.0775
 1747BOLB   C4A41912  24.903  18.966  10.794 -0.2501 -0.1613 -0.0248
 1747BOLB   C1B41913  24.096  17.900  11.621  0.0942  0.0707  0.3176
 1747BOLB   C2B41914  24.327  17.507  11.501 -0.0462  0.1231  0.0418
 1747BOLB   C3B41915  24.730  17.452  11.240 -0.1333 -0.4192 -0.0801
 1747BOLB   C4B41916  25.247  17.507  11.135  0.3616  0.0480  0.1140
 1747BOLB   NC241917  25.128  18.211   8.780  0.2632  0.2955 -0.0137
 1747BOLB   PO241918  24.882  17.736   8.729  0.0366 -0.1351  0.0864
 1747BOLB   GL341919  24.849  17.898   9.091 -0.1140  0.3588 -0.1320
 1747BOLB   GL441920  24.855  17.587   9.217  0.0663  0.0582 -0.3629
 1747BOLB   C1C41921  24.937  17.987   9.583  0.1206 -0.0661 -0.1371
 1747BOLB   C2C41922  24.808  18.208   9.938  0.0580  0.1349  0.2917
 1747BOLB   C3C41923  24.951  18.455  10.308  0.5070  0.0011 -0.1841
 1747BOLB   C4C41924  24.963  18.536  10.696  0.1207 -0.0001  0.2960
 1747BOLB   C1D41925  24.516  17.833   9.465 -0.0993  0.1093 -0.0100
 1747BOLB   C2D41926  23.984  17.827   9.571  0.1019  0.1884  0.1199
 1747BOLB   C3D41927  23.867  17.801  10.020 -0.0241 -0.0609 -0.0329
 1747BOLB   C4D41928  23.492  17.847  10.214  0.0891  0.2255 -0.0161
 1748BOLB   NC141929  26.457  16.159  13.943  0.0769  0.2056 -0.0371
 1748BOLB   PO141930  26.521  16.493  13.658 -0.0667 -0.1895  0.2383
 1748BOLB   GL141931  26.314  16.785  13.428  0.0409  0.0180 -0.3021
 1748BOLB   GL241932  26.213  16.992  13.682  0.0114 -0.1570  0.4004
 1748BOLB   C1A41933  25.977  16.989  13.067  0.0571  0.4040 -0.3206
 1748BOLB   C2A41934  25.775  17.336  12.837 -0.0835  0.2493 -0.2817
 1748BOLB   C3A41935  25.388  17.612  12.739  0.0701  0.1598  0.0151
 1748BOLB   C4A41936  25.228  17.767  12.369  0.0594 -0.1501 -0.1843
 1748BOLB   C1B41937  25.982  17.324  13.430  0.0190 -0.0652  0.2771
 1748BOLB   C2B41938  25.882  17.621  13.301  0.0772 -0.1557 -0.0720
 1748BOLB   C3B41939  25.882  18.004  13.495  0.0200  0.2504  0.2264
 1748BOLB   C4B41940  26.100  18.371  13.594 -0.3546 -0.3063  0.1378
 1748BOLB   NC241941  27.286  17.570  10.920 -0.2743 -0.1939  0.4465
 1748BOLB   PO241942  27.106  17.937  10.902 -0.0793  0.1228  0.3243
 1748BOLB   GL341943  26.708  17.849  11.071 -0.0611  0.0095  0.0368
 1748BOLB   GL441944  26.753  17.480  11.115  0.0018 -0.3710  0.0501
 1748BOLB   C1C41945  26.247  18.127  11.324 -0.2308 -0.4697  0.1646
 1748BOLB   C2C41946  25.701  18.106  11.276 -0.1211 -0.0641 -0.1932
 1748BOLB   C3C41947  25.272  18.021  11.461 -0.0575 -0.1930  0.0404
 1748BOLB   C4C41948  25.243  17.978  11.982 -0.0405  0.0349 -0.0209
 1748BOLB   C1D41949  26.395  17.140  11.121  0.1800  0.0476 -0.0137
 1748BOLB   C2D41950  26.195  16.749  11.096 -0.2074  0.0011  0.0895
 1748BOLB   C3D41951  26.104  16.378  11.255  0.0003  0.0809  0.1292
 1748BOLB   C4D41952  25.863  16.107  11.307  0.1675 -0.0015  0.0964
 1749BOLB   NC141953  24.827  22.081  12.417  0.0982  0.0895  0.2125
 1749BOLB   PO141954  24.668  21.637  12.505 -0.0348  0.1055  0.0827
 1749BOLB   GL141955  24.345  21.354  12.347  0.3780  0.2148 -0.4184
 1749BOLB   GL241956  24.362  21.441  12.122  0.2460 -0.0557 -0.3430
 1749BOLB   C1A41957  24.260  20.904  12.307 -0.1209  0.1586  0.1229
 1749BOLB   C2A41958  24.255  20.531  12.063  0.2110 -0.0725  0.0225
 1749BOLB   C3A41959  24.167  20.287  11.724  0.2398 -0.1194 -0.1175
 1749BOLB   C4A41960  24.219  20.196  11.386 -0.1066 -0.0404  0.2069
 1749BOLB   C1B41961  24.387  21.017  11.842  0.0959  0.0064 -0.1134
 1749BOLB   C2B41962  24.481  20.679  11.616 -0.0271  0.3204  0.1251
 1749BOLB   C3B41963  24.782  20.617  11.379 -0.1987 -0.2908  0.4248
 1749BOLB   C4B41964  24.753  20.234  11.363  0.0617 -0.0819  0.0111
 1749BOLB   NC241965  25.785  21.311  11.099 -0.0779  0.0133 -0.1122
 1749BOLB   PO241966  25.772  21.502  10.584  0.3110  0.3240  0.1976
 1749BOLB   GL341967  25.353  21.256  10.557  0.3456 -0.0032 -0.0867
 1749BOLB   GL441968  25.401  21.027  10.723 -0.1417  0.2269 -0.1142
 1749BOLB   C1C41969  25.034  20.941  10.436 -0.0680 -0.0538 -0.0751
 1749BOLB   C2C41970  24.766  20.590  10.379  0.1003  0.3286 -0.3616
 1749BOLB   C3C41971  24.539  20.332  10.643  0.0704  0.1348 -0.0967
 1749BOLB   C4C41972  24.458  20.383  11.002 -0.1382 -0.1734  0.2288
 1749BOLB   C1D41973  25.063  20.953  10.999 -0.0741 -0.0711 -0.0264
 1749BOLB   C2D41974  24.678  21.078  11.237 -0.0953  0.0867 -0.1470
 1749BOLB   C3D41975  24.301  21.040  11.232  0.3242 -0.1403  0.0678
 1749BOLB   C4D41976  23.968  21.170  11.425 -0.1265 -0.1343  0.2111
 1750BOLB   NC141977  25.045  15.911  13.609  0.1629 -0.2255  0.3213
 1750BOLB   PO141978  24.739  15.729  13.455 -0.0122  0.3203 -0.0585
 1750BOLB   GL141979  25.020  15.671  13.163 -0.0341  0.0426  0.1090
 1750BOLB   GL241980  25.263  15.420  13.218 -0.3722  0.1182  0.1103
 1750BOLB   C1A41981  25.270  15.853  12.815 -0.0028 -0.0335  0.1880
 1750BOLB   C2A41982  25.138  16.219  12.498  0.2166  0.2853  0.0136
 1750BOLB   C3A41983  24.958  16.250  12.010 -0.0745 -0.0301 -0.1293
 1750BOLB   C4A41984  24.814  16.195  11.584 -0.0542  0.2539  0.0812
 1750BOLB   C1B41985  25.186  15.031  13.008 -0.2127 -0.3208  0.0773
 1750BOLB   C2B41986  24.953  14.808  12.621 -0.1239  0.2222  0.3720
 1750BOLB   C3B41987  25.273  14.806  12.185 -0.0045  0.0918 -0.0775
 1750BOLB   C4B41988  25.474  14.944  11.788 -0.1526  0.2890 -0.2133
 1750BOLB   NC241989  25.687  16.047   9.413  0.1814 -0.1786 -0.0985
 1750BOLB   PO241990  25.968  15.667   9.596  0.0256  0.2772 -0.1026
 1750BOLB   GL341991  25.624  15.736   9.822  0.2195  0.3457  0.1363
 1750BOLB   GL441992  25.534  15.447   9.803 -0.1442  0.1723 -0.2298
 1750BOLB   C1C41993  25.251  15.642  10.123  0.0099 -0.1569  0.0926
 1750BOLB   C2C41994  24.964  15.986  10.323  0.1093  0.2362  0.2527
 1750BOLB   C3C41995  24.787  15.886  10.734 -0.0850  0.0398  0.2126
 1750BOLB   C4C41996  24.610  16.011  11.238  0.0106 -0.0394  0.2380
 1750BOLB   C1D41997  25.129  15.327   9.765 -0.0487 -0.1015 -0.3692
 1750BOLB   C2D41998  24.662  15.208   9.840 -0.1311 -0.1725 -0.3936
 1750BOLB   C3D41999  24.370  15.076  10.111 -0.0592 -0.0366 -0.0152
 1750BOLB   C4D42000  23.999  14.864  10.260 -0.1665 -0.0231  0.4228
 1751BOLB   NC142001  27.546  15.384  12.028 -0.2440 -0.3683 -0.2137
 1751BOLB   PO142002  27.552  15.094  12.390 -0.1558 -0.0503 -0.1265
 1751BOLB   GL142003  27.155  15.162  12.172 -0.2403 -0.0603 -0.0902
 1751BOLB   GL242004  26.952  15.060  11.945 -0.1948 -0.0123 -0.2528
 1751BOLB   C1A42005  26.844  15.438  12.159 -0.0523 -0.3134 -0.0920
 1751BOLB   C2A42006  26.681  15.888  12.077  0.2855  0.2712  0.0991
 1751BOLB   C3A42007  26.525  16.356  12.104 -0.0378 -0.0051 -0.1351
 1751BOLB   C4A42008  26.426  16.723  12.126 -0.1286 -0.0009 -0.0924
 1751BOLB   C1B42009  26.661  15.418  11.689  0.0081 -0.2542 -0.3871
 1751BOLB   C2B42010  26.549  15.771  11.449  0.2717 -0.0955  0.2079
 1751BOLB   C3B42011  26.200  15.772  11.348  0.1095 -0.1510  0.1971
 1751BOLB   C4B42012  25.897  15.665  11.622 -0.1399  0.0884 -0.1096
 1751BOLB   NC242013  26.861  17.703  13.437 -0.1237  0.0713 -0.0525
 1751BOLB   PO242014  26.809  18.143  13.241  0.0022 -0.0364  0.1466
 1751BOLB   GL342015  26.697  18.457  12.969  0.1103 -0.0280  0.1323
 1751BOLB   GL442016  26.336  18.344  13.092  0.0062 -0.0809 -0.1601
 1751BOLB   C1C42017  26.456  18.168  12.648 -0.1763 -0.0986  0.0418
 1751BOLB   C2C42018  26.421  17.886  12.317 -0.0793  0.2344  0.1522
 1751BOLB   C3C42019  26.501  17.619  12.015  0.1009  0.4321 -0.4127
 1751BOLB   C4C42020  26.399  17.221  11.977 -0.0775 -0.4656  0.2148
 1751BOLB   C1D42021  25.953  18.156  13.023  0.3790  0.1543  0.0450
 1751BOLB   C2D42022  25.535  17.969  13.070  0.3405 -0.3007 -0.1861
 1751BOLB   C3D42023  25.185  18.047  12.764 -0.4584  0.3919 -0.1006
 1751BOLB   C4D42024  25.124  18.243  12.396  0.1280 -0.3273  0.0599
 1752BOLB   NC142025  22.213  18.766  11.825  0.2026  0.0453 -0.0531
 1752BOLB   PO142026  21.739  18.608  11.916  0.1368 -0.3231  0.1103
 1752BOLB   GL142027  21.901  18.550  11.395 -0.0961 -0.2268  0.3172
 1752BOLB   GL242028  21.608  18.512  11.178 -0.3099  0.1664  0.3273
 1752BOLB   C1A42029  22.286  18.559  11.049 -0.1697  0.0795  0.2836
 1752BOLB   C2A42030  22.624  18.678  10.753  0.1868 -0.1581 -0.2414
 1752BOLB   C3A42031  23.046  18.622  10.650  0.4074  0.2221 -0.0667
 1752BOLB   C4A42032  23.112  18.582  10.168 -0.0950  0.1835  0.1636
 1752BOLB   C1B42033  21.706  18.349  10.903 -0.0809 -0.3006  0.0132
 1752BOLB   C2B42034  21.983  18.394  10.578 -0.3471 -0.3169  0.0249
 1752BOLB   C3B42035  22.319  18.287  10.312  0.2183  0.1167  0.0893
 1752BOLB   C4B42036  22.654  18.433  10.343 -0.2222  0.1117 -0.0190
 1752BOLB   NC242037  23.311  19.222   7.836 -0.0741 -0.1560  0.0971
 1752BOLB   PO242038  23.816  19.228   7.921 -0.1960  0.1530 -0.1498
 1752BOLB   GL342039  23.748  19.153   8.345  0.1231  0.0865 -0.1369
 1752BOLB   GL442040  24.025  19.175   8.629  0.0843  0.0069  0.0123
 1752BOLB   C1C42041  23.419  19.155   8.749 -0.0352  0.5093  0.3193
 1752BOLB   C2C42042  23.373  18.923   9.116 -0.2986 -0.0796  0.1009
 1752BOLB   C3C42043  23.298  18.581   9.420 -0.0166 -0.3850 -0.2877
 1752BOLB   C4C42044  23.295  18.695   9.888 -0.0772 -0.1785  0.1898
 1752BOLB   C1D42045  23.933  19.359   8.978  0.0324 -0.0171 -0.3049
 1752BOLB   C2D42046  23.617  19.296   9.284 -0.2957  0.1358 -0.0015
 1752BOLB   C3D42047  23.268  19.136   9.658 -0.1852 -0.1241 -0.1086
 1752BOLB   C4D42048  22.965  18.903   9.598 -0.2080 -0.2315 -0.1985
 1753BOLB   NC142049  23.413  12.881  16.019  0.1980  0.1312 -0.0449
 1753BOLB   PO142050  23.677  12.711  15.733  0.0690  0.1717  0.1321
 1753BOLB   GL142051  23.681  12.563  15.267  0.1907  0.0389  0.0395
 1753BOLB   GL242052  23.910  12.685  14.942 -0.1896 -0.1678  0.3103
 1753BOLB   C1A42053  23.603  12.241  14.913  0.0251  0.2099 -0.2452
 1753BOLB   C2A42054  23.727  11.807  14.810  0.1447 -0.0025  0.4525
 1753BOLB   C3A42055  24.044  11.412  14.840 -0.1540  0.3508 -0.2760
 1753BOLB   C4A42056  24.418  11.299  14.636 -0.1587  0.2222  0.1650
 1753BOLB   C1B42057  23.879  12.452  14.528  0.1184 -0.1558  0.2562
 1753BOLB   C2B42058  23.856  11.955  14.352 -0.0649 -0.0080 -0.1081
 1753BOLB   C3B42059  23.772  11.544  14.363  0.1445  0.0055 -0.0313
 1753BOLB   C4B42060  23.814  11.150  14.472  0.3211 -0.1897  0.0468
 1753BOLB   NC242061  25.696   9.573  13.631 -0.1333 -0.0619 -0.1249
 1753BOLB   PO242062  25.524   9.710  13.231  0.0329 -0.2001  0.2079
 1753BOLB   GL342063  25.213   9.606  13.541 -0.0256 -0.0731 -0.1056
 1753BOLB   GL442064  25.194   9.443  13.752  0.2322  0.0609 -0.0862
 1753BOLB   C1C42065  24.828   9.771  13.743 -0.0895 -0.3282  0.0288
 1753BOLB   C2C42066  24.650  10.184  13.832 -0.1582 -0.0987  0.1478
 1753BOLB   C3C42067  24.733  10.507  14.011 -0.0119  0.2022 -0.0204
 1753BOLB   C4C42068  24.514  10.884  14.343 -0.0202  0.0191 -0.2351
 1753BOLB   C1D42069  24.893   9.397  14.122 -0.1196 -0.1648  0.2501
 1753BOLB   C2D42070  25.080   9.504  14.542 -0.0807 -0.0065 -0.0206
 1753BOLB   C3D42071  25.204   9.973  14.665 -0.0071 -0.1831  0.3234
 1753BOLB   C4D42072  25.388  10.108  15.129 -0.1053 -0.1548  0.1772
 1754BOLB   NC142073  28.153  11.875  14.949 -0.0712  0.1088 -0.0188
 1754BOLB   PO142074  27.944  12.209  15.106  0.1609  0.0064 -0.2152
 1754BOLB   GL142075  27.499  12.184  15.122 -0.1942  0.2563  0.1990
 1754BOLB   GL242076  27.385  12.200  14.744  0.2508 -0.0232 -0.1029
 1754BOLB   C1A42077  27.267  11.849  15.257 -0.3376  0.4746  0.0772
 1754BOLB   C2A42078  26.982  11.646  14.991 -0.4243 -0.1719  0.2164
 1754BOLB   C3A42079  26.735  11.475  14.785 -0.3367 -0.1251  0.3647
 1754BOLB   C4A42080  26.649  11.512  14.311  0.1019 -0.1329 -0.1437
 1754BOLB   C1B42081  27.086  12.453  14.494  0.3689  0.1541  0.4546
 1754BOLB   C2B42082  26.723  12.668  14.169  0.1602 -0.0434  0.2240
 1754BOLB   C3B42083  26.336  12.687  14.021 -0.1082 -0.1861  0.0530
 1754BOLB   C4B42084  25.991  12.812  13.765 -0.0368  0.2620  0.3969
 1754BOLB   NC242085  27.289  13.092  12.678  0.0065 -0.1248  0.0754
 1754BOLB   PO242086  27.012  12.899  12.567  0.0351 -0.3420  0.0387
 1754BOLB   GL342087  26.699  12.549  12.671 -0.2078  0.0855 -0.2862
 1754BOLB   GL442088  26.593  12.394  12.376 -0.4468 -0.3680 -0.0743
 1754BOLB   C1C42089  26.639  12.235  12.975  0.2870  0.0295  0.1701
 1754BOLB   C2C42090  26.679  12.062  13.363 -0.1099  0.2630  0.4812
 1754BOLB   C3C42091  26.886  11.791  13.658  0.1694  0.1022 -0.4520
 1754BOLB   C4C42092  26.956  11.546  14.034 -0.2139  0.4388  0.0269
 1754BOLB   C1D42093  26.290  12.134  12.580  0.0973 -0.1853 -0.3830
 1754BOLB   C2D42094  26.213  11.997  13.038  0.0771 -0.0614  0.4458
 1754BOLB   C3D42095  26.126  12.036  13.413  0.0430 -0.0450 -0.1557
 1754BOLB   C4D42096  26.160  12.286  13.712  0.0393  0.1631  0.1926
 1755BOLB   NC142097  23.202  13.616  14.502 -0.0875 -0.2449  0.0794
 1755BOLB   PO142098  23.555  13.476  14.522 -0.2074 -0.0197  0.0309
 1755BOLB   GL142099  23.813  13.290  14.232  0.0485 -0.2706  0.1089
 1755BOLB   GL242100  23.733  12.987  14.535 -0.1050  0.3272  0.0507
 1755BOLB   C1A42101  24.115  12.957  14.257 -0.0413  0.1227  0.3163
 1755BOLB   C2A42102  24.164  12.530  13.983  0.1054  0.0875 -0.0238
 1755BOLB   C3A42103  24.343  12.123  14.033  0.1121  0.0832  0.0101
 1755BOLB   C4A42104  24.295  11.673  14.212 -0.0391  0.0876 -0.1854
 1755BOLB   C1B42105  23.567  12.742  14.178  0.0086 -0.1055  0.2700
 1755BOLB   C2B42106  23.730  12.425  13.879  0.1955 -0.1842  0.0443
 1755BOLB   C3B42107  23.735  12.005  13.818  0.2813 -0.1731 -0.0630
 1755BOLB   C4B42108  23.734  11.613  13.499 -0.1592  0.3152  0.2893
 1755BOLB   NC242109  24.689   9.223  12.896 -0.1731  0.0809 -0.3025
 1755BOLB   PO242110  24.384   9.091  13.258  0.2391 -0.1024  0.1247
 1755BOLB   GL342111  24.188   9.520  13.420  0.1921 -0.0540 -0.1463
 1755BOLB   GL442112  24.003   9.529  13.574  0.3040 -0.1739 -0.1298
 1755BOLB   C1C42113  24.323   9.937  13.602  0.1995 -0.0082 -0.0341
 1755BOLB   C2C42114  24.325  10.413  13.589 -0.1690 -0.1466 -0.0876
 1755BOLB   C3C42115  24.170  10.747  13.897 -0.1936 -0.0722  0.0568
 1755BOLB   C4C42116  24.209  11.276  14.101 -0.3374 -0.0515 -0.2984
 1755BOLB   C1D42117  23.904   9.893  13.894  0.0472  0.1652 -0.1340
 1755BOLB   C2D42118  23.788  10.282  13.819  0.3219  0.2509  0.1483
 1755BOLB   C3D42119  23.625  10.625  14.055  0.3070 -0.1340  0.4019
 1755BOLB   C4D42120  23.363  10.896  14.003 -0.4520 -0.3326 -0.0682
 1756BOLB   NC142121  22.906  21.911  12.987  0.1956 -0.1062  0.0080
 1756BOLB   PO142122  22.423  21.912  12.696 -0.2861  0.2606 -0.3819
 1756BOLB   GL142123  22.482  21.963  12.296  0.2292  0.0830  0.3412
 1756BOLB   GL242124  22.822  21.916  12.061  0.1767 -0.1313 -0.1659
 1756BOLB   C1A42125  22.338  22.051  11.808  0.1781  0.1091 -0.0466
 1756BOLB   C2A42126  22.423  22.219  11.393  0.3429  0.3831  0.1836
 1756BOLB   C3A42127  22.548  22.497  11.133 -0.0005  0.0504  0.0303
 1756BOLB   C4A42128  22.590  22.831  10.848  0.1769 -0.3801  0.2598
 1756BOLB   C1B42129  23.267  21.930  12.025  0.2329  0.1121  0.0316
 1756BOLB   C2B42130  23.531  21.672  11.735 -0.2376 -0.2478  0.1933
 1756BOLB   C3B42131  23.730  21.642  11.347  0.0050 -0.0999  0.2515
 1756BOLB   C4B42132  23.777  21.429  11.058  0.3281  0.2006 -0.1435
 1756BOLB   NC242133  22.096  23.983   8.980  0.0349  0.0443  0.0846
 1756BOLB   PO242134  21.899  23.587   8.983  0.1431  0.2090 -0.1723
 1756BOLB   GL342135  21.821  23.799   9.335  0.0027  0.0505  0.1532
 1756BOLB   GL442136  21.607  23.964   9.268 -0.2355 -0.0731  0.1579
 1756BOLB   C1C42137  21.926  23.926   9.792  0.0186 -0.1622  0.0456
 1756BOLB   C2C42138  21.944  23.748  10.123 -0.2838 -0.1462  0.1083
 1756BOLB   C3C42139  21.913  23.401  10.563 -0.2421 -0.1653 -0.1445
 1756BOLB   C4C42140  22.182  23.119  10.669 -0.3474 -0.5308 -0.0928
 1756BOLB   C1D42141  21.345  23.841   9.656 -0.2584 -0.0050  0.2658
 1756BOLB   C2D42142  20.989  23.646   9.797 -0.0460 -0.2736  0.0849
 1756BOLB   C3D42143  20.782  23.754  10.126 -0.2327  0.0591  0.0205
 1756BOLB   C4D42144  20.338  23.742  10.299 -0.1451 -0.0478 -0.2167
 1757BOLB   NC142145  24.114  13.780  15.359 -0.0630  0.1514 -0.0205
 1757BOLB   PO142146  24.223  13.327  15.241  0.2668 -0.3418  0.0518
 1757BOLB   GL142147  24.421  13.038  15.034  0.1730 -0.0330 -0.1764
 1757BOLB   GL242148  24.582  13.146  14.720 -0.1738  0.1970  0.3488
 1757BOLB   C1A42149  24.447  12.563  14.860  0.1257  0.3866  0.2113
 1757BOLB   C2A42150  24.499  12.303  14.520 -0.0650  0.0173 -0.0815
 1757BOLB   C3A42151  24.804  12.098  14.334  0.0190  0.0658 -0.1250
 1757BOLB   C4A42152  25.091  11.905  14.100  0.2607 -0.0024  0.1051
 1757BOLB   C1B42153  24.933  13.107  14.610  0.2586 -0.1000 -0.1599
 1757BOLB   C2B42154  25.263  12.843  14.493  0.3908 -0.1342  0.0466
 1757BOLB   C3B42155  25.328  12.373  14.308  0.1883 -0.2173 -0.0725
 1757BOLB   C4B42156  25.528  11.977  14.280  0.3995  0.1948 -0.5476
 1757BOLB   NC242157  26.054  10.686  12.447  0.1197 -0.1471 -0.2543
 1757BOLB   PO242158  25.660  10.743  12.368  0.0951  0.0930 -0.1072
 1757BOLB   GL342159  25.524  10.947  12.637 -0.3004  0.0602 -0.0989
 1757BOLB   GL442160  25.331  10.895  12.800  0.0226 -0.2806 -0.0839
 1757BOLB   C1C42161  25.653  11.294  12.912  0.0255  0.1529 -0.1196
 1757BOLB   C2C42162  25.591  11.627  13.016  0.0476  0.3654  0.1884
 1757BOLB   C3C42163  25.460  11.625  13.376 -0.0704 -0.0544  0.1062
 1757BOLB   C4C42164  25.245  11.767  13.696  0.0971 -0.2786 -0.1921
 1757BOLB   C1D42165  25.174  11.313  13.039  0.0052  0.1924  0.0422
 1757BOLB   C2D42166  25.036  11.795  13.204  0.0340 -0.2996 -0.0824
 1757BOLB   C3D42167  24.984  12.198  13.574 -0.1501  0.0827  0.1812
 1757BOLB   C4D42168  24.857  12.398  13.965  0.2273 -0.1059  0.1078
 1758BOLB   NC142169  23.118  19.416  12.996 -0.0174  0.2716  0.0233
 1758BOLB   PO142170  23.417  19.764  12.759  0.1762  0.1704  0.1604
 1758BOLB   GL142171  23.801  19.729  12.502  0.2985 -0.1487 -0.1116
 1758BOLB   GL242172  23.840  19.431  12.260 -0.0401 -0.0697 -0.2099
 1758BOLB   C1A42173  24.265  19.729  12.431  0.1800 -0.2137  0.2562
 1758BOLB   C2A42174  24.516  19.498  12.102  0.1038 -0.0151  0.1497
 1758BOLB   C3A42175  24.858  19.526  11.819  0.0475 -0.1352  0.4871
 1758BOLB   C4A42176  25.081  19.196  11.592  0.1776 -0.0861  0.0933
 1758BOLB   C1B42177  24.118  19.175  12.002  0.2036  0.1379 -0.2310
 1758BOLB   C2B42178  24.500  19.097  11.859  0.1534 -0.0150 -0.0659
 1758BOLB   C3B42179  24.636  19.149  11.409 -0.0926  0.1187  0.2203
 1758BOLB   C4B42180  24.677  19.407  10.870  0.0520 -0.0175 -0.3511
 1758BOLB   NC242181  26.414  20.023   9.825 -0.0037  0.2535  0.3003
 1758BOLB   PO242182  26.132  19.669   9.670  0.1901  0.1418 -0.2028
 1758BOLB   GL342183  25.815  19.382   9.806  0.3106  0.0321 -0.3364
 1758BOLB   GL442184  25.696  19.525  10.100 -0.1101  0.0530  0.0138
 1758BOLB   C1C42185  25.673  18.996  10.082  0.2255 -0.0712  0.0306
 1758BOLB   C2C42186  25.712  18.918  10.558 -0.2503  0.2214 -0.0728
 1758BOLB   C3C42187  25.425  18.848  10.886 -0.1881 -0.2609  0.1241
 1758BOLB   C4C42188  25.126  18.929  11.257  0.2785  0.3886 -0.0628
 1758BOLB   C1D42189  25.292  19.632  10.239 -0.0250  0.0556  0.1266
 1758BOLB   C2D42190  25.001  19.597  10.477 -0.1123  0.0035 -0.0303
 1758BOLB   C3D42191  24.565  19.417  10.394  0.2575  0.0595  0.1053
 1758BOLB   C4D42192  24.103  19.464  10.536  0.2746 -0.2997  0.1785
 1759BOLB   NC142193  27.188  16.845  13.928  0.0770 -0.0188  0.3073
 1759BOLB   PO142194  27.098  16.752  13.516  0.0209  0.1068 -0.1544
 1759BOLB   GL142195  26.822  16.980  13.166  0.0955  0.2295  0.3437
 1759BOLB   GL242196  26.587  17.169  13.196  0.3045 -0.2025  0.0954
 1759BOLB   C1A42197  26.409  16.718  12.969 -0.1142 -0.0385 -0.0745
 1759BOLB   C2A42198  25.926  16.455  12.839 -0.3015 -0.0472  0.0667
 1759BOLB   C3A42199  25.645  16.381  12.509  0.2638  0.1775  0.1791
 1759BOLB   C4A42200  25.474  16.362  12.136  0.1727  0.1104  0.2884
 1759BOLB   C1B42201  26.330  17.275  12.913 -0.1685 -0.2872 -0.0841
 1759BOLB   C2B42202  26.269  17.399  12.474  0.0054 -0.1933  0.1379
 1759BOLB   C3B42203  25.804  17.376  12.355  0.2913 -0.1049 -0.0597
 1759BOLB   C4B42204  25.454  17.229  11.953  0.0869 -0.2392 -0.2660
 1759BOLB   NC242205  26.728  15.956  10.252  0.1785 -0.1381 -0.1904
 1759BOLB   PO242206  26.489  16.112   9.993  0.1638  0.1264 -0.0402
 1759BOLB   GL342207  26.231  16.246  10.268 -0.0189 -0.1516  0.0294
 1759BOLB   GL442208  26.083  16.010  10.332  0.0781 -0.0886 -0.1261
 1759BOLB   C1C42209  26.049  16.560  10.672 -0.2000  0.0795  0.3890
 1759BOLB   C2C42210  25.724  16.525  10.942 -0.0656  0.1182 -0.1617
 1759BOLB   C3C42211  25.410  16.519  11.314  0.0599 -0.1722 -0.0730
 1759BOLB   C4C42212  25.402  16.616  11.706 -0.1468 -0.0779 -0.1941
 1759BOLB   C1D42213  25.642  15.888  10.267  0.0547  0.3889  0.1143
 1759BOLB   C2D42214  25.388  15.690  10.615 -0.1876  0.1013 -0.2724
 1759BOLB   C3D42215  25.036  15.410  10.658  0.0618 -0.1640  0.4305
 1759BOLB   C4D42216  24.841  15.335  10.304  0.0071  0.2808  0.0158
 1760BOLB   NC142217  22.127  14.883  12.245 -0.0815 -0.3101  0.0751
 1760BOLB   PO142218  22.149  15.235  11.862 -0.2705 -0.0240  0.2493
 1760BOLB   GL142219  22.377  15.003  11.731  0.1421  0.0877 -0.1294
 1760BOLB   GL242220  22.694  15.135  11.607 -0.3770  0.0032 -0.1451
 1760BOLB   C1A42221  22.549  14.674  11.433 -0.1889  0.0166 -0.1659
 1760BOLB   C2A42222  22.878  14.455  11.201 -0.3000 -0.0237 -0.5217
 1760BOLB   C3A42223  22.986  13.995  11.117  0.0902  0.0784  0.2321
 1760BOLB   C4A42224  23.131  13.613  11.306 -0.1547  0.0986  0.2545
 1760BOLB   C1B42225  22.853  15.043  11.235  0.2814 -0.2968  0.1964
 1760BOLB   C2B42226  22.927  14.926  10.816  0.0856 -0.1084  0.1452
 1760BOLB   C3B42227  22.977  14.770  10.435  0.3721  0.3867  0.1120
 1760BOLB   C4B42228  22.952  14.483  10.161 -0.2013 -0.2316 -0.0131
 1760BOLB   NC242229  24.139  12.609   9.467  0.2855 -0.2176 -0.0387
 1760BOLB   PO242230  23.962  12.162   9.510  0.1201 -0.1977 -0.0151
 1760BOLB   GL342231  23.635  12.339   9.904  0.0755 -0.0519 -0.1134
 1760BOLB   GL442232  23.810  12.503  10.071  0.1043 -0.2048  0.4283
 1760BOLB   C1C42233  23.283  12.409  10.152 -0.0876 -0.2870 -0.5097
 1760BOLB   C2C42234  22.970  12.490  10.451  0.4423 -0.1144 -0.1067
 1760BOLB   C3C42235  23.114  12.766  10.862  0.0709 -0.3341 -0.0162
 1760BOLB   C4C42236  23.176  13.256  11.138 -0.0745  0.2696  0.0532
 1760BOLB   C1D42237  23.704  12.989  10.117 -0.0803 -0.1115  0.2582
 1760BOLB   C2D42238  23.849  13.267  10.408 -0.1226  0.0760  0.3200
 1760BOLB   C3D42239  23.701  13.500  10.640 -0.2485  0.0333 -0.0319
 1760BOLB   C4D42240  23.616  13.456  11.107 -0.3464  0.2548 -0.2695
 1761BOLB   NC142241  22.399  14.095  13.074 -0.3524 -0.1391 -0.0755
 1761BOLB   PO142242  22.533  13.770  13.360  0.0803  0.0650  0.1013
 1761BOLB   GL142243  22.587  13.342  13.196  0.0330  0.3417 -0.2506
 1761BOLB   GL242244  22.802  13.087  13.395 -0.0375 -0.2203 -0.2121
 1761BOLB   C1A42245  22.746  13.015  12.847  0.0354 -0.0263  0.0890
 1761BOLB   C2A42246  22.725  12.765  12.481  0.0799 -0.0712  0.3745
 1761BOLB   C3A42247  22.699  12.469  12.070 -0.1537 -0.1407 -0.0560
 1761BOLB   C4A42248  22.541  12.294  11.688 -0.1059  0.1802 -0.2524
 1761BOLB   C1B42249  23.227  12.826  13.102 -0.2962  0.2418 -0.4387
 1761BOLB   C2B42250  23.333  12.575  12.870 -0.0663  0.1816  0.2736
 1761BOLB   C3B42251  22.936  12.390  12.744  0.3441  0.2033 -0.4483
 1761BOLB   C4B42252  22.597  12.262  12.559 -0.0254  0.3024  0.3957
 1761BOLB   NC242253  23.013  11.678   9.550  0.3352 -0.2766  0.0144
 1761BOLB   PO242254  22.939  11.266   9.663 -0.1464 -0.2102  0.0193
 1761BOLB   GL342255  22.928  11.493  10.059  0.2189  0.0033  0.0052
 1761BOLB   GL442256  22.798  11.820  10.020 -0.1614  0.0976  0.0627
 1761BOLB   C1C42257  23.072  11.422  10.436 -0.3106 -0.1442  0.0669
 1761BOLB   C2C42258  22.781  11.553  10.848  0.0183  0.3175  0.2671
 1761BOLB   C3C42259  22.867  11.830  11.123 -0.4911  0.1156 -0.0640
 1761BOLB   C4C42260  22.821  12.220  11.375 -0.0106  0.0025  0.3466
 1761BOLB   C1D42261  22.627  12.207  10.096 -0.0609  0.0697  0.0438
 1761BOLB   C2D42262  22.450  12.599  10.290 -0.0248 -0.3244  0.0155
 1761BOLB   C3D42263  22.269  12.944  10.544 -0.0215  0.2061 -0.1131
 1761BOLB   C4D42264  22.310  13.280  10.667 -0.0716  0.0713  0.0206
 1762BOLB   NC142265  27.222  14.864  11.363 -0.0522 -0.0513  0.0853
 1762BOLB   PO142266  27.001  15.295  11.189  0.3501  0.4265  0.1953
 1762BOLB   GL142267  26.713  14.997  11.451 -0.0648  0.0070  0.1396
 1762BOLB   GL242268  26.751  14.647  11.411  0.0293 -0.1413 -0.1734
 1762BOLB   C1A42269  26.501  14.975  11.789  0.5398  0.3307 -0.2489
 1762BOLB   C2A42270  26.086  15.137  11.878  0.1140 -0.1848  0.0345
 1762BOLB   C3A42271  25.820  15.205  11.561  0.1141  0.0171 -0.1709
 1762BOLB   C4A42272  25.574  15.176  11.252  0.1948  0.3866 -0.0767
 1762BOLB   C1B42273  26.644  14.377  11.778 -0.1351  0.1402  0.1407
 1762BOLB   C2B42274  26.533  13.935  11.809  0.0338 -0.0859  0.0382
 1762BOLB   C3B42275  26.234  13.653  11.929 -0.2777 -0.1231  0.2260
 1762BOLB   C4B42276  26.179  13.369  12.315  0.0007  0.0702  0.0499
 1762BOLB   NC242277  26.893  16.597  11.364  0.3970  0.0273  0.0321
 1762BOLB   PO242278  27.190  16.374  11.325 -0.0836 -0.0424  0.1553
 1762BOLB   GL342279  26.823  16.107  11.142  0.2669  0.1330 -0.0991
 1762BOLB   GL442280  26.648  16.296  11.072 -0.1936  0.3016 -0.0999
 1762BOLB   C1C42281  26.568  15.734  10.892 -0.1146  0.0187 -0.2165
 1762BOLB   C2C42282  26.280  15.612  10.540  0.1408 -0.0364 -0.0230
 1762BOLB   C3C42283  25.854  15.471  10.455 -0.1881 -0.4062 -0.1230
 1762BOLB   C4C42284  25.503  15.263  10.777 -0.0895  0.4092  0.1430
 1762BOLB   C1D42285  26.294  16.192  10.852 -0.2224  0.2343 -0.0485
 1762BOLB   C2D42286  25.961  15.959  10.833  0.0451 -0.0416 -0.0087
 1762BOLB   C3D42287  25.575  15.639  11.106  0.1695 -0.2559  0.2107
 1762BOLB   C4D42288  25.094  15.710  11.158  0.4750 -0.0019 -0.1579
 1763BOLB   NC142289  22.975  18.697  12.242 -0.0020  0.0028 -0.1819
 1763BOLB   PO142290  23.353  18.689  12.572  0.2581 -0.2047 -0.4187
 1763BOLB   GL142291  23.470  18.474  12.227 -0.1836 -0.1605  0.0457
 1763BOLB   GL242292  23.537  18.133  12.236 -0.0589  0.1688 -0.0814
 1763BOLB   C1A42293  23.838  18.566  11.944 -0.0309  0.2474 -0.0783
 1763BOLB   C2A42294  24.157  18.748  11.696  0.1277  0.1112  0.0679
 1763BOLB   C3A42295  24.173  19.192  11.497  0.0426  0.1876  0.3367
 1763BOLB   C4A42296  24.278  19.538  11.269  0.2056  0.0526 -0.1692
 1763BOLB   C1B42297  23.910  18.120  12.118 -0.0926  0.4076  0.1270
 1763BOLB   C2B42298  24.299  18.311  11.899 -0.2024 -0.0344  0.5032
 1763BOLB   C3B42299  24.653  18.406  11.787 -0.3827  0.2846 -0.0448
 1763BOLB   C4B42300  25.006  18.375  11.740  0.0587  0.1238 -0.1370
 1763BOLB   NC242301  25.425  19.103   9.096 -0.1741 -0.0094 -0.1109
 1763BOLB   PO242302  25.580  19.473   9.247  0.2346 -0.2372  0.0233
 1763BOLB   GL342303  25.220  19.498   9.523 -0.2084 -0.0003 -0.0209
 1763BOLB   GL442304  25.317  19.277   9.835  0.1222  0.0987  0.0531
 1763BOLB   C1C42305  24.864  19.574   9.808 -0.2412 -0.0947 -0.1211
 1763BOLB   C2C42306  24.730  19.850  10.148  0.1982 -0.0757 -0.1236
 1763BOLB   C3C42307  24.506  19.881  10.536  0.1841  0.1697  0.0035
 1763BOLB   C4C42308  24.433  19.879  11.011  0.0359  0.1686 -0.1740
 1763BOLB   C1D42309  25.025  19.232  10.122  0.3571 -0.0171  0.0939
 1763BOLB   C2D42310  24.662  18.957  10.368 -0.0398  0.0501  0.3504
 1763BOLB   C3D42311  24.443  18.533  10.377  0.0516  0.2097  0.0874
 1763BOLB   C4D42312  24.114  18.719  10.011 -0.1633 -0.3807  0.3343
 1764BOLB   NC142313  27.041  15.602  13.304  0.1303 -0.1443  0.3428
 1764BOLB   PO142314  26.834  15.850  12.998  0.2295 -0.0844  0.1810
 1764BOLB   GL142315  26.532  15.833  12.863  0.2974  0.0537 -0.3838
 1764BOLB   GL242316  26.575  15.596  12.557  0.2162 -0.1799  0.0376
 1764BOLB   C1A42317  26.375  16.240  12.699  0.1227 -0.3046  0.3188
 1764BOLB   C2A42318  26.068  16.451  12.321  0.0445  0.4509 -0.0107
 1764BOLB   C3A42319  25.949  16.725  11.968  0.0996  0.0222  0.0451
 1764BOLB   C4A42320  25.870  17.004  11.828  0.0191 -0.0718  0.0493
 1764BOLB   C1B42321  26.304  15.898  12.340  0.0274  0.1791  0.1057
 1764BOLB   C2B42322  25.883  16.009  12.101  0.0825  0.1221  0.0466
 1764BOLB   C3B42323  25.770  16.304  11.759 -0.3343 -0.2177  0.0487
 1764BOLB   C4B42324  25.838  16.736  11.464  0.2994  0.1772 -0.0868
 1764BOLB   NC242325  27.647  17.696  12.181 -0.3164 -0.0892  0.0888
 1764BOLB   PO242326  27.278  17.580  11.962  0.1358 -0.1979  0.0218
 1764BOLB   GL342327  26.947  17.802  11.785  0.2076 -0.0095  0.1082
 1764BOLB   GL442328  26.895  18.033  12.053 -0.1296 -0.1123  0.0780
 1764BOLB   C1C42329  26.536  18.017  11.679 -0.1477  0.2382 -0.2751
 1764BOLB   C2C42330  26.242  18.036  11.836  0.0221 -0.0896  0.0192
 1764BOLB   C3C42331  26.025  17.716  11.702  0.1498  0.2848  0.1908
 1764BOLB   C4C42332  25.929  17.413  11.672  0.0127  0.1842 -0.0600
 1764BOLB   C1D42333  26.536  18.334  12.105 -0.1911  0.3633  0.1323
 1764BOLB   C2D42334  26.172  18.339  12.233 -0.1503 -0.0371  0.1608
 1764BOLB   C3D42335  25.972  18.355  12.580  0.1298 -0.1025 -0.0764
 1764BOLB   C4D42336  25.587  18.396  12.768  0.1118  0.0280 -0.1381
 1765BOLB   NC142337  23.597  14.273  13.949  0.0550 -0.0271 -0.1267
 1765BOLB   PO142338  23.424  14.024  13.640  0.0737 -0.1770  0.0301
 1765BOLB   GL142339  23.710  13.808  13.500  0.2569 -0.2434  0.1272
 1765BOLB   GL242340  23.944  14.081  13.536 -0.1068 -0.0796 -0.0659
 1765BOLB   C1A42341  23.771  13.459  13.306  0.0390 -0.0375 -0.1899
 1765BOLB   C2A42342  23.673  13.026  13.319  0.0053 -0.0931 -0.1709
 1765BOLB   C3A42343  23.770  12.717  13.040 -0.2851 -0.3397 -0.1051
 1765BOLB   C4A42344  23.728  12.344  12.735 -0.2316  0.0816  0.4989
 1765BOLB   C1B42345  24.214  14.019  13.236  0.1303 -0.1397  0.1485
 1765BOLB   C2B42346  24.474  13.966  12.981  0.2582 -0.0969  0.1401
 1765BOLB   C3B42347  24.603  13.752  12.630  0.0470 -0.0232 -0.0513
 1765BOLB   C4B42348  24.492  13.430  12.363  0.1033 -0.0487  0.2018
 1765BOLB   NC242349  24.080  10.328  11.765 -0.0558  0.0489  0.2351
 1765BOLB   PO242350  24.315  10.502  11.445 -0.0147  0.2504 -0.2882
 1765BOLB   GL342351  24.104  10.870  11.358  0.1594 -0.0851 -0.0781
 1765BOLB   GL442352  23.869  10.959  11.183  0.0106 -0.1188 -0.0737
 1765BOLB   C1C42353  23.890  11.270  11.603  0.1517  0.0728  0.0020
 1765BOLB   C2C42354  23.484  11.417  11.744  0.2244  0.2142 -0.0462
 1765BOLB   C3C42355  23.503  11.644  12.143  0.1947 -0.0260  0.0796
 1765BOLB   C4C42356  23.598  11.965  12.420  0.1242 -0.0229  0.0867
 1765BOLB   C1D42357  23.443  10.999  11.263 -0.1573  0.0880  0.1137
 1765BOLB   C2D42358  23.184  11.032  11.555  0.0097 -0.1091  0.0268
 1765BOLB   C3D42359  22.954  11.258  11.833 -0.0451  0.0088 -0.0896
 1765BOLB   C4D42360  22.932  11.509  12.286 -0.0153 -0.0976 -0.1162
 1766BOLB   NC142361  26.003  14.946  14.836 -0.1718 -0.4552 -0.0535
 1766BOLB   PO142362  26.002  15.110  14.376  0.2006 -0.3060  0.0171
 1766BOLB   GL142363  26.016  14.872  13.948 -0.0058 -0.1459 -0.3611
 1766BOLB   GL242364  25.997  14.570  14.090 -0.3888 -0.1973 -0.1515
 1766BOLB   C1A42365  26.109  14.693  13.558  0.0015 -0.0112 -0.0865
 1766BOLB   C2A42366  26.184  14.232  13.395  0.1951 -0.3352 -0.2203
 1766BOLB   C3A42367  26.037  14.162  12.974  0.2363 -0.0557 -0.1449
 1766BOLB   C4A42368  25.662  14.071  12.914 -0.0927  0.0739  0.0155
 1766BOLB   C1B42369  25.615  14.421  13.824  0.3142  0.0883  0.2122
 1766BOLB   C2B42370  25.677  14.408  13.372  0.1960 -0.0712  0.1109
 1766BOLB   C3B42371  25.887  14.648  13.121  0.1717  0.0051 -0.1893
 1766BOLB   C4B42372  26.245  14.594  13.032  0.2346 -0.0333  0.2034
 1766BOLB   NC242373  26.542  13.346  10.886  0.0594  0.1985 -0.1109
 1766BOLB   PO242374  26.268  13.747  10.701 -0.1418 -0.1376 -0.1150
 1766BOLB   GL342375  25.916  13.799  10.871 -0.1630 -0.2747  0.2287
 1766BOLB   GL442376  25.665  13.941  10.789 -0.0308  0.0845  0.0636
 1766BOLB   C1C42377  25.782  13.844  11.333 -0.1429 -0.1014  0.2860
 1766BOLB   C2C42378  25.644  13.869  11.717 -0.0526 -0.0055 -0.2028
 1766BOLB   C3C42379  25.445  13.822  12.148 -0.0395  0.1249  0.2910
 1766BOLB   C4C42380  25.593  13.936  12.518  0.0659 -0.0979  0.0215
 1766BOLB   C1D42381  25.544  14.280  10.529 -0.2074 -0.2252 -0.2651
 1766BOLB   C2D42382  25.161  14.481  10.472  0.3005  0.1448  0.5066
 1766BOLB   C3D42383  24.811  14.374  10.689  0.3447  0.0910 -0.0614
 1766BOLB   C4D42384  24.453  14.359  10.966  0.2674 -0.0239  0.5422
 1767BOLB   NC142385  27.672  13.114  13.630  0.3567 -0.2998  0.1950
 1767BOLB   PO142386  27.680  12.811  13.315 -0.1269  0.2890 -0.1308
 1767BOLB   GL142387  27.244  12.759  13.481  0.1274  0.1794  0.2393
 1767BOLB   GL242388  27.141  12.435  13.496 -0.1947 -0.2043  0.1707
 1767BOLB   C1A42389  26.874  12.863  13.762 -0.0488 -0.1324 -0.0264
 1767BOLB   C2A42390  26.489  12.846  13.587  0.1390 -0.0384  0.5139
 1767BOLB   C3A42391  26.237  12.547  13.279 -0.1763  0.4474 -0.3137
 1767BOLB   C4A42392  26.225  12.714  12.859  0.1700 -0.0423  0.2698
 1767BOLB   C1B42393  26.808  12.293  13.819  0.0083  0.1111  0.2972
 1767BOLB   C2B42394  26.860  12.054  14.149  0.1573 -0.0604 -0.2516
 1767BOLB   C3B42395  27.050  11.744  14.485  0.1149 -0.0779 -0.1067
 1767BOLB   C4B42396  27.400  11.649  14.732 -0.1724 -0.2627  0.0509
 1767BOLB   NC242397  26.563  14.107  10.639  0.3344  0.3538 -0.2075
 1767BOLB   PO242398  26.642  13.801  10.984  0.0020 -0.1466  0.0444
 1767BOLB   GL342399  26.500  13.848  11.216  0.4257  0.1119 -0.1543
 1767BOLB   GL442400  26.251  14.024  11.317 -0.3207 -0.0173 -0.1662
 1767BOLB   C1C42401  26.183  13.517  11.412 -0.1303  0.2016  0.0274
 1767BOLB   C2C42402  26.164  13.200  11.726 -0.0394  0.2325  0.2716
 1767BOLB   C3C42403  26.399  13.017  12.028  0.0106 -0.1095 -0.0132
 1767BOLB   C4C42404  26.368  12.848  12.378  0.1764  0.0243  0.0576
 1767BOLB   C1D42405  26.119  14.181  11.674  0.0131  0.0478  0.3175
 1767BOLB   C2D42406  25.784  14.405  11.661 -0.2667  0.0717  0.1748
 1767BOLB   C3D42407  25.550  14.674  11.359 -0.1403 -0.0400  0.1230
 1767BOLB   C4D42408  25.479  14.739  10.912  0.2653 -0.0702 -0.0255
 1768BOLB   NC142409  22.402  20.248  12.276  0.0070 -0.1180  0.2122
 1768BOLB   PO142410  22.637  19.909  12.334  0.3368 -0.2113  0.0587
 1768BOLB   GL142411  22.821  19.991  12.010 -0.2078  0.1899  0.3818
 1768BOLB   GL242412  23.010  20.162  12.045  0.0005  0.1636  0.3405
 1768BOLB   C1A42413  23.090  19.773  11.744  0.2978 -0.0336  0.1183
 1768BOLB   C2A42414  23.437  19.750  11.510  0.3102 -0.0348 -0.0319
 1768BOLB   C3A42415  23.687  19.616  11.220 -0.1911 -0.0158  0.1250
 1768BOLB   C4A42416  23.766  19.770  10.824  0.1204  0.1487  0.1504
 1768BOLB   C1B42417  23.215  20.217  11.590 -0.4599 -0.0827  0.1117
 1768BOLB   C2B42418  23.389  20.044  11.160  0.1490 -0.2034  0.0981
 1768BOLB   C3B42419  23.485  20.190  10.685 -0.2626 -0.1138  0.1477
 1768BOLB   C4B42420  23.475  20.349  10.231 -0.0896 -0.3777 -0.0011
 1768BOLB   NC242421  24.680  20.234   8.259  0.0179 -0.0743  0.1832
 1768BOLB   PO242422  24.269  20.261   8.313 -0.0300  0.0359 -0.0301
 1768BOLB   GL342423  24.041  20.484   8.684  0.0049 -0.2869  0.1691
 1768BOLB   GL442424  23.910  20.251   8.681 -0.1141  0.0532 -0.0058
 1768BOLB   C1C42425  23.963  20.315   9.162 -0.1304  0.2178 -0.2448
 1768BOLB   C2C42426  23.873  20.188   9.528  0.2282 -0.0598 -0.0206
 1768BOLB   C3C42427  23.628  19.969   9.868 -0.0393 -0.3884 -0.1755
 1768BOLB   C4C42428  23.678  19.793  10.414 -0.0780 -0.1291 -0.0393
 1768BOLB   C1D42429  23.882  19.764   8.650 -0.2649  0.3341  0.0325
 1768BOLB   C2D42430  23.514  19.590   8.465 -0.1655 -0.0411 -0.2458
 1768BOLB   C3D42431  22.928  19.660   8.380 -0.2496  0.1598 -0.0067
 1768BOLB   C4D42432  22.495  19.836   8.356  0.0721  0.0897 -0.2334
 1769BOLB   NC142433  21.772  20.121  12.172 -0.1038  0.1607 -0.0207
 1769BOLB   PO142434  22.094  20.163  11.930  0.1480 -0.0495  0.3697
 1769BOLB   GL142435  22.393  20.142  11.688 -0.1069 -0.0084 -0.1745
 1769BOLB   GL242436  22.681  20.446  11.676 -0.1404 -0.0617  0.1975
 1769BOLB   C1A42437  22.790  20.043  11.360  0.4015  0.0299  0.2743
 1769BOLB   C2A42438  23.002  20.205  10.989  0.0262  0.0404  0.2015
 1769BOLB   C3A42439  23.017  20.101  10.482 -0.1353 -0.0360 -0.3051
 1769BOLB   C4A42440  22.932  20.003  10.093 -0.1950  0.2391 -0.1838
 1769BOLB   C1B42441  22.872  20.569  11.283 -0.1129  0.1962 -0.2890
 1769BOLB   C2B42442  23.274  20.615  11.187  0.1920  0.0089  0.0331
 1769BOLB   C3B42443  23.572  20.683  10.948  0.1639 -0.1551  0.0742
 1769BOLB   C4B42444  23.873  21.041  10.881  0.2275  0.0019 -0.0661
 1769BOLB   NC242445  24.959  19.486   8.520 -0.1469 -0.2625  0.0217
 1769BOLB   PO242446  24.982  19.456   9.100 -0.3030  0.1820  0.2419
 1769BOLB   GL342447  24.623  19.557   8.924  0.2607  0.1300  0.2720
 1769BOLB   GL442448  24.384  19.256   9.051  0.1281 -0.1129 -0.2357
 1769BOLB   C1C42449  24.277  19.735   9.001  0.0598 -0.3477  0.3674
 1769BOLB   C2C42450  23.912  19.804   9.159 -0.0126 -0.3122 -0.0650
 1769BOLB   C3C42451  23.471  19.861   9.363  0.0419 -0.2080 -0.4834
 1769BOLB   C4C42452  23.144  19.794   9.725 -0.0864 -0.1131 -0.0718
 1769BOLB   C1D42453  24.221  19.579   9.428 -0.2263  0.1614  0.3588
 1769BOLB   C2D42454  24.306  19.904   9.733  0.0206 -0.2218  0.4157
 1769BOLB   C3D42455  24.439  20.286  10.058  0.0859 -0.1568  0.1372
 1769BOLB   C4D42456  24.290  20.660  10.349 -0.1821  0.1709  0.1760
 1770BOLB   NC142457  24.507  15.369  14.146  0.0974 -0.2569 -0.4251
 1770BOLB   PO142458  24.370  15.497  13.765 -0.2337  0.0225 -0.1087
 1770BOLB   GL142459  24.531  15.284  13.345  0.0679  0.3678  0.1602
 1770BOLB   GL242460  24.857  15.214  13.463 -0.1197  0.2277  0.0530
 1770BOLB   C1A42461  24.761  15.325  12.915 -0.0643  0.1006 -0.2369
 1770BOLB   C2A42462  24.740  15.291  12.502  0.0212  0.0205 -0.1646
 1770BOLB   C3A42463  24.650  14.957  12.162  0.2289  0.1421 -0.2719
 1770BOLB   C4A42464  24.919  14.874  11.795  0.0467 -0.1377  0.1223
 1770BOLB   C1B42465  24.733  14.851  13.079  0.0469 -0.0602  0.0008
 1770BOLB   C2B42466  24.447  14.941  12.747 -0.1740  0.0917  0.1107
 1770BOLB   C3B42467  24.347  14.689  12.429 -0.0849 -0.4668 -0.2459
 1770BOLB   C4B42468  24.343  14.445  12.183 -0.1992 -0.2339  0.1888
 1770BOLB   NC242469  25.239  12.581  10.104 -0.2862  0.0014  0.0657
 1770BOLB   PO242470  25.428  12.986  10.073  0.4305 -0.0843 -0.0509
 1770BOLB   GL342471  25.228  13.179  10.418 -0.0122 -0.0284 -0.3605
 1770BOLB   GL442472  25.359  13.476  10.520  0.2103  0.3375  0.0661
 1770BOLB   C1C42473  24.976  13.442  10.790  0.0202 -0.3165 -0.0466
 1770BOLB   C2C42474  24.948  13.898  10.833 -0.0786 -0.3657  0.1961
 1770BOLB   C3C42475  25.016  14.158  11.223 -0.1122 -0.0994 -0.0089
 1770BOLB   C4C42476  24.904  14.623  11.459 -0.0676 -0.1337  0.2717
 1770BOLB   C1D42477  25.455  13.379  11.007 -0.0076 -0.4294 -0.2127
 1770BOLB   C2D42478  25.299  13.760  11.326  0.1009  0.1040  0.1948
 1770BOLB   C3D42479  25.109  13.943  11.726  0.1974 -0.0928  0.2012
 1770BOLB   C4D42480  24.781  13.761  11.985 -0.1329  0.2405 -0.1487
 1771BOLB   NC142481  23.492  15.678  13.246  0.0830 -0.0709  0.2517
 1771BOLB   PO142482  23.576  15.420  12.826  0.1437  0.1800 -0.1568
 1771BOLB   GL142483  23.625  15.226  12.400 -0.0390  0.1661  0.0064
 1771BOLB   GL242484  23.438  14.962  12.333  0.1126 -0.0404  0.1437
 1771BOLB   C1A42485  23.846  15.350  12.036  0.1091  0.5297  0.0650
 1771BOLB   C2A42486  23.924  15.686  11.829 -0.1618 -0.2622  0.1759
 1771BOLB   C3A42487  23.924  16.044  11.620 -0.2384 -0.0899 -0.3084
 1771BOLB   C4A42488  24.144  16.237  11.234 -0.0800  0.2642 -0.2824
 1771BOLB   C1B42489  23.771  14.706  12.253  0.1061  0.1572  0.1204
 1771BOLB   C2B42490  23.870  14.331  11.929  0.2912 -0.0619 -0.3210
 1771BOLB   C3B42491  23.863  13.926  11.853 -0.1764  0.1339 -0.2017
 1771BOLB   C4B42492  23.865  13.573  11.519 -0.2092 -0.3636 -0.0274
 1771BOLB   NC242493  24.950  15.903   8.820 -0.1457 -0.1210  0.1615
 1771BOLB   PO242494  24.540  16.057   8.887 -0.1063 -0.0662 -0.0564
 1771BOLB   GL342495  24.381  16.279   9.165 -0.3129 -0.0298  0.2414
 1771BOLB   GL442496  24.277  16.657   9.154  0.0281 -0.1310  0.2240
 1771BOLB   C1C42497  24.380  16.154   9.536 -0.1855 -0.1139  0.1600
 1771BOLB   C2C42498  24.446  16.105   9.932  0.1472 -0.2391 -0.2004
 1771BOLB   C3C42499  24.466  16.054  10.384  0.1425 -0.1967 -0.1280
 1771BOLB   C4C42500  24.299  16.201  10.808 -0.1516 -0.4820  0.0493
 1771BOLB   C1D42501  24.215  16.697   9.579  0.1854  0.0410  0.3184
 1771BOLB   C2D42502  24.151  16.485   9.950 -0.2086 -0.2988 -0.1278
 1771BOLB   C3D42503  23.954  16.594  10.278  0.1062 -0.1286  0.4907
 1771BOLB   C4D42504  23.785  16.907  10.505  0.3919  0.1577 -0.2908
 1772BOLB   NC142505  25.465  14.149  15.983 -0.1681 -0.1413  0.0985
 1772BOLB   PO142506  25.575  13.670  15.774  0.0379 -0.3915 -0.1471
 1772BOLB   GL142507  25.752  13.288  15.466  0.3239  0.1758 -0.2612
 1772BOLB   GL242508  25.945  13.012  15.478 -0.1811  0.1877  0.1500
 1772BOLB   C1A42509  25.521  12.827  15.229 -0.0852 -0.0365 -0.0273
 1772BOLB   C2A42510  25.627  12.405  15.209 -0.0302 -0.0239  0.1117
 1772BOLB   C3A42511  25.337  12.179  14.868 -0.0303 -0.2922 -0.3699
 1772BOLB   C4A42512  25.215  11.768  14.601  0.0242  0.0587 -0.2520
 1772BOLB   C1B42513  26.153  12.520  15.330 -0.0366  0.1119 -0.0450
 1772BOLB   C2B42514  26.067  12.142  15.356  0.1293  0.1402  0.1823
 1772BOLB   C3B42515  26.190  11.724  15.216 -0.1272  0.1707 -0.1486
 1772BOLB   C4B42516  25.867  11.377  15.104 -0.1476  0.0006 -0.1926
 1772BOLB   NC242517  26.625  10.438  13.183 -0.0732 -0.1007 -0.2506
 1772BOLB   PO242518  26.295  10.642  12.961  0.0928  0.0540 -0.2824
 1772BOLB   GL342519  26.030  10.697  13.268 -0.0256  0.3021 -0.2001
 1772BOLB   GL442520  26.274  10.662  13.561  0.0895  0.1209 -0.0173
 1772BOLB   C1C42521  25.662  10.944  13.328  0.2619 -0.2153  0.0116
 1772BOLB   C2C42522  25.301  11.145  13.516  0.1330  0.0320 -0.3858
 1772BOLB   C3C42523  25.139  11.269  13.903 -0.1066  0.2824  0.1763
 1772BOLB   C4C42524  25.135  11.479  14.275  0.1285  0.0963  0.2952
 1772BOLB   C1D42525  26.104  11.007  13.758 -0.3532 -0.1570  0.1218
 1772BOLB   C2D42526  25.650  10.982  13.958 -0.0600 -0.1977 -0.0001
 1772BOLB   C3D42527  25.448  11.078  14.358  0.2824  0.0516 -0.2448
 1772BOLB   C4D42528  25.407  11.266  14.857  0.3282 -0.1056 -0.0842
 1773BOLB   NC142529  24.057  21.658  12.675 -0.0701  0.0232 -0.1017
 1773BOLB   PO142530  23.648  21.525  12.714 -0.3039  0.0582 -0.0150
 1773BOLB   GL142531  23.833  21.225  12.389  0.1680  0.1202  0.3343
 1773BOLB   GL242532  23.771  20.898  12.430  0.3700  0.1224  0.2385
 1773BOLB   C1A42533  23.945  21.086  11.955 -0.0090 -0.2235  0.1342
 1773BOLB   C2A42534  23.996  20.760  11.665  0.1849  0.0210  0.1878
 1773BOLB   C3A42535  23.927  20.634  11.242  0.2319 -0.0102  0.3900
 1773BOLB   C4A42536  23.971  20.239  10.934  0.3529  0.0438  0.2292
 1773BOLB   C1B42537  23.756  20.563  12.108 -0.2351 -0.0442 -0.4058
 1773BOLB   C2B42538  23.508  20.276  11.969 -0.1230 -0.0446 -0.0820
 1773BOLB   C3B42539  23.507  19.846  12.035 -0.1384  0.2233 -0.1419
 1773BOLB   C4B42540  23.689  19.450  11.781 -0.1241  0.3454  0.0280
 1773BOLB   NC242541  25.268  20.732   9.438 -0.0429 -0.0130  0.0641
 1773BOLB   PO242542  25.564  20.378   9.315  0.0817  0.1328 -0.1198
 1773BOLB   GL342543  25.189  20.263   9.575  0.0058  0.0937  0.1684
 1773BOLB   GL442544  25.213  20.017   9.740  0.0561 -0.0279 -0.1236
 1773BOLB   C1C42545  24.872  20.464   9.843 -0.0104 -0.0193 -0.2510
 1773BOLB   C2C42546  24.370  20.505   9.661  0.0797  0.3359  0.0720
 1773BOLB   C3C42547  23.971  20.376  10.011  0.0761 -0.0044 -0.1565
 1773BOLB   C4C42548  23.919  20.276  10.468 -0.0165  0.1580 -0.1027
 1773BOLB   C1D42549  25.451  20.084  10.112  0.1594 -0.2680  0.0236
 1773BOLB   C2D42550  25.653  19.949  10.468  0.2745 -0.3910 -0.0742
 1773BOLB   C3D42551  25.529  19.774  10.893  0.0211  0.0570 -0.2096
 1773BOLB   C4D42552  25.556  19.723  11.404 -0.0601  0.1880  0.2126
 1774BOLB   NC142553  26.192  12.658  17.563  0.2631 -0.2610  0.0295
 1774BOLB   PO142554  25.918  12.462  17.440  0.3530 -0.1577 -0.4368
 1774BOLB   GL142555  25.778  12.079  17.334 -0.2200  0.1055 -0.0218
 1774BOLB   GL242556  25.514  11.970  17.293 -0.2035 -0.0853 -0.0761
 1774BOLB   C1A42557  25.767  11.696  16.957 -0.2626  0.0223  0.0679
 1774BOLB   C2A42558  25.597  11.321  16.877 -0.1287  0.0443  0.0058
 1774BOLB   C3A42559  25.505  10.969  16.749  0.1767  0.3320 -0.0746
 1774BOLB   C4A42560  25.586  10.503  16.837 -0.1730 -0.1379  0.1016
 1774BOLB   C1B42561  25.635  11.561  17.441  0.0199  0.0136 -0.2344
 1774BOLB   C2B42562  25.579  11.144  17.414 -0.5559 -0.2671 -0.1069
 1774BOLB   C3B42563  25.618  10.759  17.272  0.1231 -0.0678 -0.0226
 1774BOLB   C4B42564  25.790  10.310  17.303 -0.2194 -0.1663  0.3779
 1774BOLB   NC242565  26.482   8.277  17.102  0.1162  0.1745  0.0974
 1774BOLB   PO242566  26.332   8.438  16.778  0.2730  0.0027 -0.0011
 1774BOLB   GL342567  25.971   8.613  16.560 -0.0743  0.1193  0.1841
 1774BOLB   GL442568  26.214   8.855  16.413  0.1579  0.2588 -0.0237
 1774BOLB   C1C42569  25.629   8.842  16.300  0.0887 -0.0211 -0.1136
 1774BOLB   C2C42570  25.578   9.314  16.380 -0.2670 -0.2574  0.0434
 1774BOLB   C3C42571  25.682   9.662  16.553  0.0691  0.1067  0.0122
 1774BOLB   C4C42572  25.720  10.101  16.675  0.1275 -0.2250 -0.1797
 1774BOLB   C1D42573  25.939   9.137  16.633 -0.1530  0.2175  0.0961
 1774BOLB   C2D42574  25.937   9.249  17.129 -0.3530  0.2096  0.2218
 1774BOLB   C3D42575  25.645   9.449  17.436 -0.0528  0.0384 -0.0631
 1774BOLB   C4D42576  25.271   9.625  17.594  0.0982  0.1232 -0.1595
 1775BOLB   NC142577  23.504  17.002  12.817 -0.2548  0.4844 -0.0093
 1775BOLB   PO142578  23.380  16.615  12.985 -0.1684 -0.1384  0.1268
 1775BOLB   GL142579  23.733  16.516  12.696  0.1292  0.1780  0.0951
 1775BOLB   GL242580  23.711  16.193  12.516 -0.0296  0.0366 -0.2634
 1775BOLB   C1A42581  24.110  16.701  12.630  0.5970  0.0788  0.1247
 1775BOLB   C2A42582  24.329  16.752  12.259 -0.2110 -0.0640  0.0873
 1775BOLB   C3A42583  24.614  16.608  12.006  0.2030  0.0920 -0.0539
 1775BOLB   C4A42584  24.811  16.797  11.568  0.1054  0.2048  0.0935
 1775BOLB   C1B42585  23.903  16.307  12.111 -0.2523 -0.3019  0.1405
 1775BOLB   C2B42586  24.145  16.458  11.906 -0.0820  0.1348  0.2973
 1775BOLB   C3B42587  24.346  16.549  11.526  0.1375  0.1703  0.0291
 1775BOLB   C4B42588  24.318  16.662  11.024 -0.2192  0.2461  0.1308
 1775BOLB   NC242589  26.794  17.150  10.264  0.1159  0.1707 -0.0397
 1775BOLB   PO242590  26.561  17.442  10.192  0.0702  0.1970  0.0182
 1775BOLB   GL342591  26.210  17.288  10.335 -0.1731 -0.0327  0.2041
 1775BOLB   GL442592  26.020  17.478  10.427  0.2789 -0.3390 -0.2407
 1775BOLB   C1C42593  26.075  17.069  10.708  0.3221  0.2116  0.2501
 1775BOLB   C2C42594  25.798  17.061  11.080 -0.1678  0.0663  0.0264
 1775BOLB   C3C42595  25.522  17.099  11.463  0.4007  0.2113 -0.0273
 1775BOLB   C4C42596  25.081  16.999  11.560 -0.3873 -0.0874  0.0475
 1775BOLB   C1D42597  25.681  17.747  10.335 -0.1873  0.0021  0.1248
 1775BOLB   C2D42598  25.299  17.609  10.400 -0.0842 -0.1017  0.1492
 1775BOLB   C3D42599  25.016  17.325  10.672  0.2999 -0.0908  0.0123
 1775BOLB   C4D42600  24.715  17.001  10.531 -0.2057 -0.0869  0.2140
 1776BOLB   NC142601  26.709  13.848  14.705 -0.0458  0.0259  0.2082
 1776BOLB   PO142602  27.088  13.915  14.447  0.2288 -0.0841  0.2656
 1776BOLB   GL142603  26.687  13.818  14.198  0.0771  0.1964  0.0012
 1776BOLB   GL242604  26.697  13.850  13.789  0.0255  0.1495  0.1185
 1776BOLB   C1A42605  26.217  13.776  14.112 -0.1345 -0.2351 -0.1006
 1776BOLB   C2A42606  25.936  14.019  13.903  0.0568 -0.3428  0.1757
 1776BOLB   C3A42607  25.751  13.960  13.556  0.3875  0.2224 -0.0709
 1776BOLB   C4A42608  25.961  13.743  13.216 -0.0334  0.1918 -0.2813
 1776BOLB   C1B42609  26.334  13.804  13.602 -0.3815 -0.3209  0.0259
 1776BOLB   C2B42610  26.231  13.241  13.463 -0.1085 -0.1773 -0.1200
 1776BOLB   C3B42611  25.966  12.950  13.203  0.2626  0.0983 -0.0793
 1776BOLB   C4B42612  25.552  12.844  13.074  0.1579 -0.2411 -0.1966
 1776BOLB   NC242613  26.019  12.838  10.663 -0.0415 -0.1743 -0.2785
 1776BOLB   PO242614  26.206  12.489  10.986  0.2963  0.2326 -0.2830
 1776BOLB   GL342615  25.957  12.513  11.349 -0.0684 -0.3537 -0.0627
 1776BOLB   GL442616  26.219  12.555  11.631 -0.0343 -0.3692  0.0375
 1776BOLB   C1C42617  25.802  12.798  11.751  0.2094  0.1880 -0.3082
 1776BOLB   C2C42618  25.875  12.918  12.228 -0.2177  0.0098  0.0731
 1776BOLB   C3C42619  25.923  13.111  12.642 -0.1452  0.1138 -0.3560
 1776BOLB   C4C42620  25.903  13.494  12.897  0.2352 -0.0427  0.1175
 1776BOLB   C1D42621  26.098  12.434  12.095  0.1669 -0.1509 -0.1204
 1776BOLB   C2D42622  25.857  12.457  12.438  0.0959  0.0399  0.0989
 1776BOLB   C3D42623  25.612  12.601  12.638  0.2116 -0.0734 -0.0553
 1776BOLB   C4D42624  25.318  12.907  12.585 -0.1020  0.2202 -0.1904
 1777BOLB   NC142625  26.052  15.416  13.946  0.0172 -0.3806 -0.3330
 1777BOLB   PO142626  25.960  15.449  13.550 -0.2871 -0.0882  0.1583
 1777BOLB   GL142627  26.097  15.464  13.136 -0.0066  0.1200  0.4004
 1777BOLB   GL242628  26.282  15.200  13.139 -0.1016 -0.2669  0.2239
 1777BOLB   C1A42629  26.177  15.391  12.582  0.1652 -0.2159  0.0681
 1777BOLB   C2A42630  25.903  15.549  12.292  0.1094  0.2224 -0.2000
 1777BOLB   C3A42631  25.574  15.481  11.952 -0.1153 -0.2503 -0.0210
 1777BOLB   C4A42632  25.364  15.486  11.539  0.0606 -0.1165  0.2298
 1777BOLB   C1B42633  25.815  15.115  12.912 -0.2768 -0.2482  0.2203
 1777BOLB   C2B42634  25.500  14.752  12.772 -0.0651 -0.0201  0.1368
 1777BOLB   C3B42635  25.277  14.369  12.531  0.2175  0.1205 -0.2633
 1777BOLB   C4B42636  25.045  14.005  12.381  0.0033  0.1195  0.2163
 1777BOLB   NC242637  25.713  14.338   9.634  0.0872  0.1523  0.2694
 1777BOLB   PO242638  25.955  14.799   9.443  0.1503  0.1850  0.1802
 1777BOLB   GL342639  25.632  14.891   9.859  0.1695 -0.1657  0.0146
 1777BOLB   GL442640  25.440  14.595  10.066  0.0531  0.1407  0.0769
 1777BOLB   C1C42641  25.378  15.159  10.169  0.1133 -0.1949 -0.1136
 1777BOLB   C2C42642  25.194  14.983  10.476 -0.1970 -0.2215 -0.0469
 1777BOLB   C3C42643  25.073  14.961  10.920  0.1100  0.1229  0.0754
 1777BOLB   C4C42644  25.049  15.152  11.352  0.0371  0.1975  0.2309
 1777BOLB   C1D42645  25.705  14.799  10.435  0.0968  0.1404  0.2195
 1777BOLB   C2D42646  25.959  15.002  10.740 -0.1039  0.2329  0.0049
 1777BOLB   C3D42647  26.041  15.233  11.127  0.1717 -0.1109 -0.3520
 1777BOLB   C4D42648  26.290  15.240  11.355 -0.1229  0.2015  0.1593
 1778BOLB   NC142649  25.088  12.953  16.747 -0.2008  0.2229  0.2966
 1778BOLB   PO142650  25.118  12.604  17.008 -0.0748 -0.4312  0.0606
 1778BOLB   GL142651  25.120  12.182  16.976  0.2265 -0.3256  0.1503
 1778BOLB   GL242652  25.044  12.023  17.333 -0.0238  0.2344 -0.0179
 1778BOLB   C1A42653  25.089  11.805  16.791  0.2459  0.2282 -0.2878
 1778BOLB   C2A42654  25.158  11.376  16.675 -0.2855 -0.0984 -0.0104
 1778BOLB   C3A42655  25.117  10.941  16.459  0.0187 -0.2293  0.4344
 1778BOLB   C4A42656  25.357  10.683  16.133  0.1133 -0.3253 -0.0599
 1778BOLB   C1B42657  25.140  11.609  17.224 -0.0055 -0.3051  0.1280
 1778BOLB   C2B42658  25.137  11.100  17.243  0.0342 -0.0961  0.0160
 1778BOLB   C3B42659  25.167  10.732  17.059 -0.3876  0.1987 -0.1916
 1778BOLB   C4B42660  25.173  10.311  16.938 -0.0865 -0.1262 -0.3807
 1778BOLB   NC242661  25.355   8.380  15.385  0.0824  0.2734 -0.0947
 1778BOLB   PO242662  25.344   8.576  14.969 -0.2089  0.0521  0.1286
 1778BOLB   GL342663  25.194   8.907  15.167  0.1912 -0.0503 -0.0300
 1778BOLB   GL442664  25.394   9.055  15.369  0.0120  0.2858 -0.1137
 1778BOLB   C1C42665  24.984   9.253  15.038  0.1373 -0.3288  0.1666
 1778BOLB   C2C42666  24.913   9.809  15.238 -0.1907  0.0484  0.1927
 1778BOLB   C3C42667  24.959  10.260  15.530 -0.0726  0.0239  0.0323
 1778BOLB   C4C42668  25.048  10.432  15.905 -0.1418 -0.0490 -0.3734
 1778BOLB   C1D42669  25.076   9.214  15.554  0.1496  0.0260  0.3716
 1778BOLB   C2D42670  24.726   9.411  15.483 -0.0363 -0.2812 -0.2884
 1778BOLB   C3D42671  24.575   9.760  15.643 -0.2306 -0.3606  0.1265
 1778BOLB   C4D42672  24.447  10.197  15.537 -0.0619  0.0587  0.6175
 1779BOLB   NC142673  22.955  25.117  13.899 -0.0428 -0.1758 -0.2834
 1779BOLB   PO142674  22.831  24.669  14.009 -0.0318 -0.1599 -0.4644
 1779BOLB   GL142675  22.442  24.774  13.841 -0.3609 -0.2609 -0.0672
 1779BOLB   GL242676  22.602  24.773  13.566  0.0439  0.2852  0.0892
 1779BOLB   C1A42677  22.047  24.723  13.551  0.0480 -0.0239 -0.0444
 1779BOLB   C2A42678  21.916  24.842  13.134  0.0715  0.0378  0.0185
 1779BOLB   C3A42679  21.787  25.153  12.807  0.0105  0.1271 -0.0329
 1779BOLB   C4A42680  21.555  25.387  12.488  0.3729 -0.0504  0.1256
 1779BOLB   C1B42681  22.484  24.922  13.135 -0.0000 -0.4849  0.4531
 1779BOLB   C2B42682  22.233  25.129  12.863 -0.4114  0.2547  0.0661
 1779BOLB   C3B42683  22.151  25.387  12.530 -0.1020  0.3527  0.0695
 1779BOLB   C4B42684  21.902  25.139  12.242 -0.0322  0.1533 -0.1482
 1779BOLB   NC242685  22.260  27.132  10.750 -0.1200  0.3760 -0.1852
 1779BOLB   PO242686  22.437  26.825  10.459  0.1841 -0.0611  0.1832
 1779BOLB   GL342687  22.301  26.622  10.845  0.2821  0.0492  0.1346
 1779BOLB   GL442688  22.247  26.303  10.715  0.0597  0.0456  0.2165
 1779BOLB   C1C42689  22.275  26.302  11.243  0.2169 -0.3219 -0.1513
 1779BOLB   C2C42690  21.963  26.379  11.614  0.0470  0.4601 -0.1543
 1779BOLB   C3C42691  21.616  26.158  11.865  0.1162  0.1079  0.2250
 1779BOLB   C4C42692  21.387  25.783  12.243 -0.2677  0.1044 -0.2574
 1779BOLB   C1D42693  22.123  25.905  10.931  0.1023 -0.1103  0.0513
 1779BOLB   C2D42694  21.848  25.592  11.258 -0.0131 -0.4374  0.0667
 1779BOLB   C3D42695  21.673  25.607  11.642 -0.1352  0.4004 -0.3058
 1779BOLB   C4D42696  21.588  25.399  11.960  0.0482  0.2256 -0.2504
 1780BOLB   NC142697  23.917  13.798  14.464  0.1564  0.0224 -0.2929
 1780BOLB   PO142698  23.589  13.970  14.352 -0.0549 -0.0202  0.0992
 1780BOLB   GL142699  23.677  13.768  14.026 -0.0458 -0.3289  0.0190
 1780BOLB   GL242700  23.405  13.448  14.017 -0.3053 -0.2521 -0.4225
 1780BOLB   C1A42701  23.988  13.597  13.793  0.2369  0.1747  0.0599
 1780BOLB   C2A42702  24.303  13.256  13.817  0.0573  0.1842 -0.3960
 1780BOLB   C3A42703  24.549  12.802  13.815 -0.1643 -0.3799 -0.0759
 1780BOLB   C4A42704  24.491  12.398  13.572  0.2328  0.2811 -0.1974
 1780BOLB   C1B42705  23.716  13.107  13.807 -0.2065 -0.0665 -0.3052
 1780BOLB   C2B42706  24.089  12.802  13.546  0.2305 -0.2466  0.3188
 1780BOLB   C3B42707  24.215  12.581  13.205  0.3011  0.0329  0.2796
 1780BOLB   C4B42708  24.569  12.711  12.948 -0.4331 -0.2303  0.1098
 1780BOLB   NC242709  25.255  10.428  12.134 -0.1282  0.0150 -0.2760
 1780BOLB   PO242710  25.149  10.682  11.848  0.3041  0.2076  0.2754
 1780BOLB   GL342711  25.283  11.035  12.171 -0.3460  0.1580  0.2958
 1780BOLB   GL442712  25.280  11.258  11.981  0.1615  0.1264 -0.2994
 1780BOLB   C1C42713  25.033  11.239  12.521  0.4176  0.1780  0.0801
 1780BOLB   C2C42714  24.595  11.394  12.667  0.1441 -0.0650  0.6208
 1780BOLB   C3C42715  24.607  11.651  12.984 -0.0825 -0.2307  0.1911
 1780BOLB   C4C42716  24.521  11.915  13.376 -0.1930  0.1047  0.0991
 1780BOLB   C1D42717  25.118  11.639  12.175 -0.0598 -0.1309 -0.1915
 1780BOLB   C2D42718  24.627  11.793  12.377  0.4814  0.1325 -0.3786
 1780BOLB   C3D42719  24.360  11.919  12.672 -0.1003  0.1320  0.2299
 1780BOLB   C4D42720  24.194  12.096  12.953 -0.0608 -0.1865  0.3216
 1781BOLB   NC142721  23.379  20.196  13.017 -0.3328  0.2811 -0.0306
 1781BOLB   PO142722  23.342  20.558  12.920 -0.2420  0.0750 -0.1010
 1781BOLB   GL142723  23.700  20.610  12.828 -0.0567  0.0976 -0.1490
 1781BOLB   GL242724  24.033  20.512  13.066  0.1157  0.1210  0.1540
 1781BOLB   C1A42725  23.985  20.426  12.523  0.2442  0.1489 -0.1656
 1781BOLB   C2A42726  23.966  20.115  12.153  0.0586  0.2377  0.1151
 1781BOLB   C3A42727  24.436  19.973  12.042  0.1456  0.2497 -0.0240
 1781BOLB   C4A42728  24.493  19.826  11.641 -0.0629 -0.1220  0.3013
 1781BOLB   C1B42729  24.254  20.143  12.844  0.2797 -0.1499  0.1264
 1781BOLB   C2B42730  24.251  19.686  12.952  0.1951 -0.1420 -0.1349
 1781BOLB   C3B42731  24.433  19.219  13.026 -0.0820  0.1020 -0.0205
 1781BOLB   C4B42732  24.581  18.825  13.073  0.1701 -0.2604 -0.1262
 1781BOLB   NC242733  26.929  19.278  11.061 -0.1875  0.0174  0.1798
 1781BOLB   PO242734  26.724  19.280  10.680 -0.0916 -0.1905 -0.0341
 1781BOLB   GL342735  26.342  19.199  10.861  0.0825 -0.0397  0.1875
 1781BOLB   GL442736  26.427  19.118  11.201  0.0896  0.0357  0.0367
 1781BOLB   C1C42737  25.919  19.091  10.919  0.2485 -0.0692 -0.0753
 1781BOLB   C2C42738  25.506  19.306  11.040 -0.0500 -0.1295 -0.0335
 1781BOLB   C3C42739  25.137  19.466  11.157  0.0681 -0.4312  0.0407
 1781BOLB   C4C42740  24.810  19.737  11.326 -0.1121 -0.1667 -0.1230
 1781BOLB   C1D42741  26.105  19.051  11.451 -0.0652  0.0256  0.0660
 1781BOLB   C2D42742  25.817  18.973  11.792  0.0976 -0.0295 -0.0780
 1781BOLB   C3D42743  25.463  18.907  11.932  0.1007 -0.0768  0.0032
 1781BOLB   C4D42744  25.067  18.928  12.036  0.1180  0.0077  0.0706
 1782BOLB   NC142745  23.435  12.237  15.927 -0.2041  0.3955  0.0334
 1782BOLB   PO142746  23.193  12.531  15.765 -0.0586  0.1722 -0.0574
 1782BOLB   GL142747  23.379  12.207  15.447 -0.0145 -0.0060 -0.1007
 1782BOLB   GL242748  23.077  12.084  15.281 -0.3363 -0.0111 -0.1346
 1782BOLB   C1A42749  23.739  12.049  15.394 -0.1475 -0.1748  0.1480
 1782BOLB   C2A42750  24.100  11.742  15.205 -0.1627  0.1020 -0.2795
 1782BOLB   C3A42751  24.435  11.445  15.168 -0.2167 -0.0849  0.0764
 1782BOLB   C4A42752  24.466  10.966  15.099  0.0797  0.1013  0.1795
 1782BOLB   C1B42753  23.391  11.841  15.114 -0.0127  0.2082 -0.1794
 1782BOLB   C2B42754  23.530  11.443  15.232 -0.0878 -0.0559 -0.1406
 1782BOLB   C3B42755  23.653  11.176  14.976 -0.0663 -0.0339  0.1744
 1782BOLB   C4B42756  23.375  10.989  14.605  0.1612 -0.2707  0.0199
 1782BOLB   NC242757  25.738   9.025  14.394 -0.0736 -0.1409  0.0151
 1782BOLB   PO242758  25.849   9.181  13.985  0.1092 -0.0581  0.2126
 1782BOLB   GL342759  25.403   9.319  14.165  0.2892  0.0820 -0.0359
 1782BOLB   GL442760  25.173   9.037  14.259  0.1332 -0.2200  0.0615
 1782BOLB   C1C42761  25.247   9.756  14.094  0.3322 -0.1749 -0.0470
 1782BOLB   C2C42762  24.836  10.003  14.263 -0.3172 -0.0358 -0.1239
 1782BOLB   C3C42763  24.603  10.270  14.506 -0.0426  0.1152 -0.0043
 1782BOLB   C4C42764  24.478  10.625  14.769 -0.0326  0.0146 -0.4260
 1782BOLB   C1D42765  24.900   8.980  14.614  0.0713  0.2461  0.0323
 1782BOLB   C2D42766  24.453   8.921  14.876 -0.1702 -0.1289 -0.0419
 1782BOLB   C3D42767  24.092   9.146  15.049 -0.1247  0.3871  0.2673
 1782BOLB   C4D42768  24.049   9.445  15.479  0.0384  0.0230 -0.0863
 1783BOLB   NC142769  23.062  12.673  15.272  0.0429 -0.0343 -0.2274
 1783BOLB   PO142770  22.668  12.384  15.049  0.1762  0.0118  0.0901
 1783BOLB   GL142771  22.747  11.959  14.955  0.2207  0.0449  0.1322
 1783BOLB   GL242772  22.771  11.622  15.151  0.2633 -0.1642 -0.0406
 1783BOLB   C1A42773  22.825  11.660  14.671  0.0290 -0.3060 -0.2170
 1783BOLB   C2A42774  22.938  11.299  14.539 -0.1754  0.0246 -0.0842
 1783BOLB   C3A42775  22.922  10.924  14.278  0.1163 -0.1100 -0.1968
 1783BOLB   C4A42776  22.987  10.598  14.011  0.3896 -0.0575  0.0055
 1783BOLB   C1B42777  23.075  11.368  15.008 -0.1977 -0.0432  0.0573
 1783BOLB   C2B42778  23.342  11.543  14.711  0.0186  0.0841  0.1847
 1783BOLB   C3B42779  23.364  11.348  14.288  0.0295  0.1168  0.0539
 1783BOLB   C4B42780  23.682  11.264  13.951 -0.2131  0.4610  0.2119
 1783BOLB   NC242781  24.524   9.810  12.225  0.2809 -0.5277 -0.0430
 1783BOLB   PO242782  24.443   9.530  12.619 -0.2427 -0.0195  0.1259
 1783BOLB   GL342783  24.226   9.801  12.937 -0.0764  0.0165 -0.1166
 1783BOLB   GL442784  24.045  10.089  12.689 -0.0258  0.2484 -0.0403
 1783BOLB   C1C42785  23.935   9.926  13.333 -0.1520 -0.0483  0.0086
 1783BOLB   C2C42786  23.608   9.835  13.502  0.1628 -0.1142  0.3105
 1783BOLB   C3C42787  23.313   9.927  13.636 -0.0299  0.0496  0.3740
 1783BOLB   C4C42788  23.281  10.354  13.883 -0.0235 -0.0737  0.2149
 1783BOLB   C1D42789  23.703  10.363  12.849 -0.1397  0.2190  0.0970
 1783BOLB   C2D42790  23.338  10.531  13.025  0.1284 -0.2132  0.0473
 1783BOLB   C3D42791  22.911  10.597  12.788 -0.1361  0.1179 -0.1215
 1783BOLB   C4D42792  22.564  10.728  12.672  0.0394  0.0796 -0.2196
 1784BOLB   NC142793  24.967  14.875  14.673 -0.1952  0.2537  0.0564
 1784BOLB   PO142794  25.270  14.710  14.272  0.0637 -0.0371  0.0947
 1784BOLB   GL142795  25.143  14.321  14.074 -0.0545 -0.0744  0.0574
 1784BOLB   GL242796  24.957  14.332  13.959 -0.0568  0.1152 -0.0677
 1784BOLB   C1A42797  25.372  14.016  13.895  0.0442  0.2697  0.1608
 1784BOLB   C2A42798  25.303  13.653  13.805 -0.0198  0.0092  0.0777
 1784BOLB   C3A42799  25.482  13.238  13.704 -0.0252 -0.1162  0.0576
 1784BOLB   C4A42800  25.523  12.936  13.531 -0.1929  0.0357 -0.2797
 1784BOLB   C1B42801  24.932  14.020  13.674 -0.0990 -0.0134 -0.1888
 1784BOLB   C2B42802  24.779  13.814  13.304 -0.0337  0.0231  0.0944
 1784BOLB   C3B42803  24.681  13.543  13.075 -0.1056 -0.1135  0.0915
 1784BOLB   C4B42804  24.496  13.187  12.819 -0.1092 -0.1776  0.2389
 1784BOLB   NC242805  26.461  10.857  11.677  0.2235 -0.1779  0.1099
 1784BOLB   PO242806  26.166  10.953  12.040 -0.1275 -0.0840 -0.1879
 1784BOLB   GL342807  25.879  11.189  12.370 -0.1213 -0.0482 -0.0644
 1784BOLB   GL442808  25.730  11.343  12.148 -0.0460  0.1781 -0.2252
 1784BOLB   C1C42809  25.968  11.560  12.616 -0.1461 -0.0736  0.2528
 1784BOLB   C2C42810  25.861  11.968  12.709  0.1284  0.0664 -0.0215
 1784BOLB   C3C42811  25.839  12.390  13.079 -0.1242 -0.0174  0.2213
 1784BOLB   C4C42812  25.719  12.524  13.468 -0.1574 -0.1527 -0.0378
 1784BOLB   C1D42813  25.503  11.463  12.470  0.3110  0.1461 -0.1195
 1784BOLB   C2D42814  25.159  11.674  12.712  0.0865  0.0973 -0.2239
 1784BOLB   C3D42815  24.910  12.061  12.830  0.0624  0.3749 -0.2505
 1784BOLB   C4D42816  24.645  12.272  13.058  0.1349  0.0092 -0.0147
 1785BOLB   NC142817  24.637  12.311  16.880 -0.2122 -0.0032  0.1133
 1785BOLB   PO142818  24.428  12.015  16.663  0.1609 -0.1370 -0.1597
 1785BOLB   GL142819  24.417  11.591  16.394 -0.0616  0.2032  0.4003
 1785BOLB   GL242820  24.177  11.617  16.098  0.0822  0.0175 -0.1200
 1785BOLB   C1A42821  24.638  11.265  16.339  0.1117 -0.2361  0.0762
 1785BOLB   C2A42822  24.739  10.902  15.993 -0.0771 -0.0857  0.1925
 1785BOLB   C3A42823  25.097  10.909  15.759 -0.2892  0.2989 -0.0133
 1785BOLB   C4A42824  25.277  10.623  15.444  0.0598  0.1737 -0.0359
 1785BOLB   C1B42825  24.463  11.374  15.907  0.1115 -0.1276  0.2763
 1785BOLB   C2B42826  24.869  11.349  15.915  0.2156  0.2501  0.2036
 1785BOLB   C3B42827  25.310  11.281  16.000 -0.1995  0.2470 -0.1148
 1785BOLB   C4B42828  25.671  11.286  15.849  0.1173 -0.0397 -0.3058
 1785BOLB   NC242829  27.748  10.131  15.353  0.0536 -0.0870  0.0625
 1785BOLB   PO242830  27.336   9.923  15.347  0.1858 -0.0286 -0.4088
 1785BOLB   GL342831  26.981   9.813  15.480  0.0895  0.0544  0.0339
 1785BOLB   GL442832  26.844   9.941  15.759 -0.2412  0.1028 -0.4259
 1785BOLB   C1C42833  26.607   9.981  15.330 -0.2821  0.3613  0.0760
 1785BOLB   C2C42834  26.287  10.079  15.521  0.2526  0.1666  0.2238
 1785BOLB   C3C42835  25.959  10.200  15.371  0.1333 -0.0177 -0.1548
 1785BOLB   C4C42836  25.725  10.524  15.277  0.3163  0.0344 -0.0634
 1785BOLB   C1D42837  26.491   9.990  16.060 -0.0839 -0.1021  0.1271
 1785BOLB   C2D42838  26.643  10.302  16.436  0.0882  0.1053 -0.2047
 1785BOLB   C3D42839  26.859  10.698  16.446  0.1158  0.1392 -0.0252
 1785BOLB   C4D42840  26.830  11.109  16.425  0.2305  0.0044 -0.0512
 1786BOLB   NC142841  22.417  19.359  12.415  0.3824  0.1144 -0.0504
 1786BOLB   PO142842  22.488  18.937  12.210 -0.1674 -0.2071 -0.1157
 1786BOLB   GL142843  22.569  19.102  11.832  0.2190 -0.1708 -0.2014
 1786BOLB   GL242844  22.923  18.958  11.876  0.1787 -0.1955  0.1861
 1786BOLB   C1A42845  22.711  19.509  11.438  0.0683  0.0792 -0.2184
 1786BOLB   C2A42846  23.038  19.662  11.162 -0.3615  0.1038 -0.3197
 1786BOLB   C3A42847  23.234  19.728  10.812 -0.3465 -0.0528  0.0477
 1786BOLB   C4A42848  23.213  19.643  10.440  0.1198  0.0377  0.1650
 1786BOLB   C1B42849  23.051  18.774  11.491  0.1918 -0.1828 -0.4242
 1786BOLB   C2B42850  23.390  18.695  11.221  0.0272 -0.4575 -0.2210
 1786BOLB   C3B42851  23.474  18.809  10.814 -0.2869 -0.0031 -0.0231
 1786BOLB   C4B42852  23.592  18.711  10.345  0.1016 -0.2300  0.0374
 1786BOLB   NC242853  24.237  19.072   8.188  0.0100 -0.4647 -0.3430
 1786BOLB   PO242854  24.499  18.729   8.504 -0.0067 -0.1886 -0.0557
 1786BOLB   GL342855  24.262  18.689   8.841 -0.0649  0.1740  0.2113
 1786BOLB   GL442856  24.467  18.741   9.046  0.0268  0.0284  0.0224
 1786BOLB   C1C42857  23.994  18.911   9.184  0.1069  0.0322 -0.1253
 1786BOLB   C2C42858  24.084  19.129   9.539  0.1587  0.0757  0.3169
 1786BOLB   C3C42859  23.839  19.468   9.714 -0.0306  0.0340  0.0346
 1786BOLB   C4C42860  23.441  19.477  10.039 -0.0864  0.0092  0.0697
 1786BOLB   C1D42861  24.512  18.834   9.471  0.4623 -0.0753 -0.0503
 1786BOLB   C2D42862  24.469  18.496   9.761 -0.3124  0.0679  0.0832
 1786BOLB   C3D42863  24.333  18.051   9.883  0.1057 -0.0029  0.0259
 1786BOLB   C4D42864  24.456  17.697   9.919  0.3193 -0.3653 -0.0014
 1787BOLB   NC142865  26.649  17.779  14.118 -0.0063 -0.1033  0.2342
 1787BOLB   PO142866  26.677  18.020  14.502  0.2953  0.0031 -0.3143
 1787BOLB   GL142867  26.284  18.073  14.515 -0.2140 -0.2223 -0.0358
 1787BOLB   GL242868  26.260  18.393  14.518  0.2749  0.3771  0.2656
 1787BOLB   C1A42869  25.819  17.943  14.518 -0.1080  0.1361 -0.0666
 1787BOLB   C2A42870  25.377  17.932  14.424  0.1748 -0.2610  0.1281
 1787BOLB   C3A42871  25.011  18.113  14.459 -0.0339  0.0167  0.2959
 1787BOLB   C4A42872  24.857  18.421  14.032 -0.0174 -0.0939 -0.1281
 1787BOLB   C1B42873  26.143  18.285  14.924  0.0103  0.0292 -0.3165
 1787BOLB   C2B42874  25.856  17.873  15.005 -0.0049 -0.2247 -0.2234
 1787BOLB   C3B42875  25.439  17.849  14.967 -0.0471 -0.1407  0.1214
 1787BOLB   C4B42876  25.078  17.684  14.780 -0.0400  0.1375  0.0301
 1787BOLB   NC242877  26.269  20.377  14.346  0.0728  0.0536 -0.3263
 1787BOLB   PO242878  26.161  20.197  14.001  0.2731  0.0956  0.1385
 1787BOLB   GL342879  25.811  20.155  14.139 -0.0970  0.3360 -0.0402
 1787BOLB   GL442880  25.880  19.997  14.490 -0.0546  0.1686 -0.0282
 1787BOLB   C1C42881  25.402  19.879  14.284 -0.1197  0.1529 -0.3333
 1787BOLB   C2C42882  25.381  19.510  14.010  0.2024  0.2569  0.1707
 1787BOLB   C3C42883  25.366  19.021  14.080  0.1420 -0.3375  0.1154
 1787BOLB   C4C42884  25.060  18.814  13.973 -0.1941  0.2150 -0.0059
 1787BOLB   C1D42885  25.770  19.767  14.871  0.2599  0.1901  0.1775
 1787BOLB   C2D42886  25.867  19.629  15.247 -0.3435 -0.1243  0.2871
 1787BOLB   C3D42887  25.730  19.638  15.671  0.0313  0.2734 -0.1724
 1787BOLB   C4D42888  25.804  19.314  16.034  0.0519 -0.0824 -0.1217
 1788BOLB   NC142889  27.482  14.597  13.890 -0.2702 -0.0895 -0.2340
 1788BOLB   PO142890  27.059  14.645  13.797 -0.1380 -0.0705 -0.1374
 1788BOLB   GL142891  27.029  14.574  13.410  0.0566  0.0350  0.1027
 1788BOLB   GL242892  26.674  14.661  13.417 -0.0510 -0.1589 -0.2412
 1788BOLB   C1A42893  27.131  14.631  12.848  0.1078 -0.1413 -0.3102
 1788BOLB   C2A42894  26.920  14.962  12.602  0.1427  0.0429 -0.2126
 1788BOLB   C3A42895  26.612  15.026  12.257 -0.1833  0.0492 -0.0898
 1788BOLB   C4A42896  26.425  15.349  12.123  0.0181  0.0793 -0.0967
 1788BOLB   C1B42897  26.695  14.753  13.027  0.1132  0.0057  0.1305
 1788BOLB   C2B42898  26.383  14.893  12.644  0.1598  0.0220 -0.0754
 1788BOLB   C3B42899  26.099  14.928  12.335  0.2775  0.0309  0.0356
 1788BOLB   C4B42900  25.719  15.099  12.287 -0.1973 -0.1134 -0.2851
 1788BOLB   NC242901  27.633  17.052  11.244 -0.0532 -0.7001  0.0284
 1788BOLB   PO242902  27.163  16.976  11.189 -0.1710  0.2050  0.0420
 1788BOLB   GL342903  26.821  17.086  11.453  0.1048  0.1832 -0.2302
 1788BOLB   GL442904  26.823  17.317  11.677  0.2172  0.0342 -0.0116
 1788BOLB   C1C42905  26.351  16.943  11.578 -0.0721  0.1579 -0.0970
 1788BOLB   C2C42906  26.305  16.555  11.639  0.0365  0.2588  0.1253
 1788BOLB   C3C42907  26.319  16.050  11.744 -0.1507  0.4778 -0.0087
 1788BOLB   C4C42908  26.288  15.627  11.910 -0.1894 -0.1028 -0.0851
 1788BOLB   C1D42909  26.437  17.483  11.543 -0.0872  0.0009  0.2239
 1788BOLB   C2D42910  26.210  17.639  11.170  0.1059 -0.1475  0.0738
 1788BOLB   C3D42911  25.835  17.498  10.869  0.2770  0.1958  0.0003
 1788BOLB   C4D42912  25.529  17.218  10.695  0.0086  0.0306 -0.1011
 1789BOLB   NC142913  25.030  23.384  12.284 -0.2588  0.0347 -0.1239
 1789BOLB   PO142914  24.847  22.994  12.243  0.0503  0.1797  0.3652
 1789BOLB   GL142915  24.550  22.785  11.974  0.1944 -0.1752  0.0147
 1789BOLB   GL242916  24.457  22.442  12.127 -0.0102 -0.0626 -0.3333
 1789BOLB   C1A42917  24.241  22.659  11.678  0.1710  0.1306  0.2015
 1789BOLB   C2A42918  23.812  22.582  11.589  0.2476  0.0349  0.0068
 1789BOLB   C3A42919  23.468  22.632  11.332  0.1039 -0.0307 -0.2156
 1789BOLB   C4A42920  23.252  22.726  10.905 -0.0268 -0.3836 -0.3075
 1789BOLB   C1B42921  24.476  22.184  11.790 -0.0615 -0.0366 -0.0550
 1789BOLB   C2B42922  24.591  21.782  11.886 -0.0524 -0.0175 -0.2074
 1789BOLB   C3B42923  24.838  21.318  11.951  0.2370 -0.1218  0.2039
 1789BOLB   C4B42924  24.907  20.935  11.737  0.0812  0.1688 -0.1077
 1789BOLB   NC242925  23.420  22.795   8.009  0.2469  0.0509 -0.4147
 1789BOLB   PO242926  23.420  22.882   8.444 -0.0417  0.0760 -0.2714
 1789BOLB   GL342927  23.060  22.915   8.761  0.0113 -0.0703  0.1896
 1789BOLB   GL442928  23.250  23.064   8.965  0.1856  0.0617 -0.0848
 1789BOLB   C1C42929  22.814  22.838   9.147  0.2611  0.0415 -0.1136
 1789BOLB   C2C42930  22.851  22.826   9.617 -0.0059 -0.1757  0.1538
 1789BOLB   C3C42931  22.849  22.778  10.130  0.1177  0.0964 -0.1561
 1789BOLB   C4C42932  23.042  22.757  10.490  0.0541 -0.0529 -0.1683
 1789BOLB   C1D42933  23.270  23.325   9.421  0.0234 -0.0035  0.0215
 1789BOLB   C2D42934  23.059  23.190   9.876 -0.1951 -0.3540  0.0904
 1789BOLB   C3D42935  22.710  23.307   9.962  0.1672  0.1328 -0.3090
 1789BOLB   C4D42936  22.315  23.348   9.722 -0.3489 -0.1727 -0.1122
 1790BOLB   NC142937  22.876  11.162  17.689 -0.0836  0.0135 -0.1786
 1790BOLB   PO142938  23.328  11.368  17.726  0.2585  0.3329  0.0190
 1790BOLB   GL142939  23.631  11.066  17.552  0.1614  0.3797  0.0830
 1790BOLB   GL242940  23.806  11.258  17.474 -0.1860 -0.2216 -0.2294
 1790BOLB   C1A42941  23.895  10.754  17.301 -0.2824  0.1682  0.0318
 1790BOLB   C2A42942  23.805  10.359  17.115 -0.0758  0.0011 -0.2957
 1790BOLB   C3A42943  23.880   9.942  16.850 -0.1119 -0.1375  0.0805
 1790BOLB   C4A42944  23.965   9.501  16.966 -0.1612  0.1562 -0.0677
 1790BOLB   C1B42945  24.241  11.175  17.406  0.1361 -0.2381  0.1471
 1790BOLB   C2B42946  24.357  10.807  17.102  0.0194  0.0146  0.3153
 1790BOLB   C3B42947  24.295  10.361  17.152 -0.3214  0.1580  0.1066
 1790BOLB   C4B42948  24.389   9.904  17.036 -0.0448 -0.0904 -0.1071
 1790BOLB   NC242949  24.067   7.179  16.645  0.1535  0.2885 -0.1467
 1790BOLB   PO242950  24.261   7.275  16.303  0.0874  0.1863  0.1777
 1790BOLB   GL342951  24.047   7.711  16.467  0.0095  0.2481  0.0445
 1790BOLB   GL442952  24.244   8.021  16.566 -0.2557 -0.0534  0.1911
 1790BOLB   C1C42953  23.815   8.008  16.202  0.0281 -0.2134  0.2152
 1790BOLB   C2C42954  23.917   8.394  16.386 -0.1470  0.1990  0.0947
 1790BOLB   C3C42955  24.085   8.774  16.589  0.0592 -0.0407  0.3503
 1790BOLB   C4C42956  23.966   9.146  16.760  0.2595  0.1091  0.1613
 1790BOLB   C1D42957  24.513   8.393  16.322  0.3914 -0.3650  0.0806
 1790BOLB   C2D42958  24.805   8.717  16.228  0.2535 -0.3185 -0.1409
 1790BOLB   C3D42959  24.982   8.979  16.209  0.3235 -0.1455 -0.1327
 1790BOLB   C4D42960  25.030   9.389  16.173 -0.1578  0.2197  0.3884
 1791BOLB   NC142961  23.949  15.865  13.733 -0.1882 -0.0660  0.1835
 1791BOLB   PO142962  23.868  16.235  13.509  0.0960  0.0895  0.4447
 1791BOLB   GL142963  24.096  16.297  13.032  0.2304  0.0960 -0.2923
 1791BOLB   GL242964  24.407  16.530  12.986 -0.0170  0.0156 -0.1517
 1791BOLB   C1A42965  24.184  16.152  12.599 -0.1468  0.2283  0.1423
 1791BOLB   C2A42966  24.431  16.097  12.239 -0.1628  0.2638 -0.0093
 1791BOLB   C3A42967  24.396  15.963  11.777 -0.3843  0.1234 -0.2950
 1791BOLB   C4A42968  24.193  15.620  11.432 -0.4610 -0.1596 -0.2672
 1791BOLB   C1B42969  24.538  16.941  12.824 -0.2094 -0.4624 -0.1449
 1791BOLB   C2B42970  24.459  17.460  12.745  0.0859  0.1050 -0.2549
 1791BOLB   C3B42971  24.654  17.909  12.662  0.1958 -0.0479 -0.1549
 1791BOLB   C4B42972  24.308  18.207  12.453  0.0762  0.2307  0.3526
 1791BOLB   NC242973  25.339  15.241   9.158 -0.1293  0.3643  0.2367
 1791BOLB   PO242974  25.364  15.728   9.297  0.2035  0.2579  0.3153
 1791BOLB   GL342975  25.228  15.924   9.642  0.2839  0.3678 -0.1864
 1791BOLB   GL442976  25.275  16.211   9.642 -0.1045 -0.3663 -0.1215
 1791BOLB   C1C42977  24.807  15.798   9.783 -0.0692  0.3494 -0.0435
 1791BOLB   C2C42978  24.515  15.622  10.073 -0.1569  0.1194 -0.0590
 1791BOLB   C3C42979  24.401  15.568  10.495  0.0622  0.0168  0.1531
 1791BOLB   C4C42980  24.253  15.651  10.926 -0.0710 -0.2280  0.2932
 1791BOLB   C1D42981  24.889  16.349   9.787 -0.2554 -0.1461 -0.2457
 1791BOLB   C2D42982  24.628  16.510  10.134  0.1443  0.2087 -0.3071
 1791BOLB   C3D42983  24.781  16.403  10.539  0.0746  0.0131  0.0961
 1791BOLB   C4D42984  25.006  16.418  10.991 -0.1250  0.3965  0.0498
 1792BOLB   NC142985  22.393  11.878  17.632 -0.0102  0.2098 -0.1035
 1792BOLB   PO142986  22.621  11.394  17.366 -0.0730  0.0151 -0.0411
 1792BOLB   GL142987  22.719  10.944  17.183 -0.1940 -0.1551 -0.0999
 1792BOLB   GL242988  22.479  10.727  17.059  0.2730  0.1403 -0.1205
 1792BOLB   C1A42989  22.950  10.506  17.181  0.0467 -0.0282 -0.0997
 1792BOLB   C2A42990  23.258  10.221  17.086  0.2341 -0.1129 -0.0501
 1792BOLB   C3A42991  23.429   9.803  17.142  0.0064 -0.0749  0.3109
 1792BOLB   C4A42992  23.510   9.356  17.137  0.0173  0.1621 -0.0562
 1792BOLB   C1B42993  22.592  10.496  16.728  0.4103 -0.2064  0.2877
 1792BOLB   C2B42994  22.957  10.270  16.653  0.2120 -0.1093  0.1261
 1792BOLB   C3B42995  23.396   9.987  16.618  0.1782  0.0081 -0.3277
 1792BOLB   C4B42996  23.543   9.569  16.739 -0.2956  0.3989 -0.2551
 1792BOLB   NC242997  24.503   7.278  17.562 -0.0142  0.1165  0.4147
 1792BOLB   PO242998  24.778   7.680  17.574 -0.1432 -0.1298  0.0198
 1792BOLB   GL342999  24.446   7.797  17.717 -0.0733 -0.1626  0.1892
 1792BOLB   GL443000  24.582   8.155  17.610 -0.1225  0.0481  0.2105
 1792BOLB   C1C43001  23.992   7.882  17.539 -0.0934  0.0760  0.2624
 1792BOLB   C2C43002  23.705   8.278  17.469  0.1321 -0.2094  0.1321
 1792BOLB   C3C43003  23.797   8.720  17.354 -0.0347 -0.1468 -0.0122
 1792BOLB   C4C43004  23.808   9.121  17.254  0.0073 -0.1558 -0.1456
 1792BOLB   C1D43005  24.277   8.238  17.931 -0.1508 -0.1167 -0.3037
 1792BOLB   C2D43006  24.102   8.486  18.239 -0.0305  0.0680  0.1911
 1792BOLB   C3D43007  23.724   8.616  18.371 -0.0141 -0.0501 -0.1590
 1792BOLB   C4D43008  23.482   8.905  18.569  0.1306  0.2596 -0.1282
 1793BOLB   NC143009  25.464  13.532  15.090 -0.3843 -0.0540 -0.0650
 1793BOLB   PO143010  25.669  13.929  14.839  0.4362 -0.1372 -0.0217
 1793BOLB   GL143011  25.678  13.551  14.570  0.0848 -0.3484 -0.0232
 1793BOLB   GL243012  25.659  13.268  14.667 -0.3673  0.3106 -0.5458
 1793BOLB   C1A43013  25.676  13.448  14.166 -0.0119 -0.2004 -0.3185
 1793BOLB   C2A43014  25.761  13.101  14.106  0.2236 -0.0597  0.2017
 1793BOLB   C3A43015  25.536  12.726  14.029  0.3083 -0.0353  0.1279
 1793BOLB   C4A43016  25.410  12.337  13.790 -0.0829 -0.0401 -0.0139
 1793BOLB   C1B43017  25.786  12.897  14.561  0.1724  0.0857 -0.0299
 1793BOLB   C2B43018  25.884  12.603  14.310 -0.2758  0.0869  0.1087
 1793BOLB   C3B43019  25.835  12.260  14.071  0.1544 -0.2419  0.2182
 1793BOLB   C4B43020  25.731  11.875  13.816  0.0761  0.1498  0.0914
 1793BOLB   NC243021  26.875  11.860  11.971  0.3565 -0.0119  0.0927
 1793BOLB   PO243022  26.551  11.775  11.616 -0.0930 -0.1650 -0.0642
 1793BOLB   GL343023  26.082  11.781  11.823 -0.1481 -0.2040 -0.0231
 1793BOLB   GL443024  25.923  12.118  11.747  0.4221 -0.1161  0.0268
 1793BOLB   C1C43025  25.832  11.876  12.141  0.1149 -0.0326  0.1547
 1793BOLB   C2C43026  25.423  12.014  12.372  0.2116 -0.0149  0.0637
 1793BOLB   C3C43027  25.413  12.163  12.874 -0.0789 -0.0485  0.1969
 1793BOLB   C4C43028  25.463  12.088  13.337  0.1213  0.0001 -0.2798
 1793BOLB   C1D43029  25.574  12.328  12.066 -0.1524 -0.0005  0.2473
 1793BOLB   C2D43030  25.418  12.692  12.068  0.1048 -0.0387  0.1052
 1793BOLB   C3D43031  25.055  12.947  12.103  0.0144 -0.0965  0.1994
 1793BOLB   C4D43032  24.701  12.939  12.449 -0.0914 -0.0033 -0.0783
 1794BOLB   NC143033  23.576  23.517  13.445 -0.1553 -0.0210  0.4590
 1794BOLB   PO143034  23.192  23.267  13.257  0.0828 -0.0090  0.0337
 1794BOLB   GL143035  22.922  23.584  13.060 -0.0484  0.2270  0.0930
 1794BOLB   GL243036  22.807  23.883  13.169 -0.0528  0.2309 -0.4337
 1794BOLB   C1A43037  22.535  23.501  12.822 -0.0528 -0.1679 -0.1363
 1794BOLB   C2A43038  22.275  23.396  12.549  0.1909  0.2007  0.1033
 1794BOLB   C3A43039  22.316  23.534  12.116 -0.1371 -0.1607  0.0535
 1794BOLB   C4A43040  22.218  23.863  11.792  0.2615  0.1761 -0.0598
 1794BOLB   C1B43041  22.861  24.112  12.822 -0.1114  0.3343  0.0547
 1794BOLB   C2B43042  22.725  24.497  12.648  0.1131 -0.1413 -0.0279
 1794BOLB   C3B43043  22.576  24.955  12.546 -0.1575 -0.0621  0.0389
 1794BOLB   C4B43044  22.689  25.403  12.586  0.0717 -0.1947  0.0706
 1794BOLB   NC243045  22.535  25.383   9.908  0.1604  0.3016  0.1317
 1794BOLB   PO243046  22.951  25.183   9.990 -0.1700  0.1907 -0.0551
 1794BOLB   GL343047  23.119  24.883  10.327  0.1372 -0.1512 -0.0518
 1794BOLB   GL443048  23.288  24.663  10.142  0.0551  0.3105  0.1767
 1794BOLB   C1C43049  23.059  24.518  10.572 -0.1799 -0.1383  0.1607
 1794BOLB   C2C43050  22.740  24.419  10.849  0.1158  0.0104 -0.0971
 1794BOLB   C3C43051  22.426  24.408  11.152  0.2216 -0.1241 -0.2470
 1794BOLB   C4C43052  22.200  24.030  11.402 -0.0599 -0.1288 -0.2997
 1794BOLB   C1D43053  23.264  24.267  10.210 -0.0819 -0.1530 -0.2576
 1794BOLB   C2D43054  23.188  23.972  10.469 -0.0641  0.2554 -0.1441
 1794BOLB   C3D43055  22.905  23.622  10.401  0.1654 -0.0051  0.2567
 1794BOLB   C4D43056  22.875  23.224  10.427  0.1564  0.0208 -0.1537
 1795BOLB   NC143057  23.806  18.751  12.980 -0.2061  0.1091 -0.0123
 1795BOLB   PO143058  23.788  18.332  13.164 -0.1993 -0.1353 -0.1684
 1795BOLB   GL143059  24.081  18.558  13.449  0.3061 -0.0996  0.2503
 1795BOLB   GL243060  24.201  18.947  13.367  0.0638 -0.0182  0.0574
 1795BOLB   C1A43061  24.013  18.843  13.810  0.0183  0.1471 -0.0080
 1795BOLB   C2A43062  24.103  19.202  13.967  0.1190 -0.1882  0.1584
 1795BOLB   C3A43063  24.291  19.483  14.123  0.0084 -0.2419 -0.1627
 1795BOLB   C4A43064  24.391  19.565  14.541 -0.0823  0.3529 -0.2114
 1795BOLB   C1B43065  24.365  19.376  13.501  0.1511  0.1686  0.1649
 1795BOLB   C2B43066  24.458  19.802  13.762  0.1009  0.5081 -0.0941
 1795BOLB   C3B43067  24.379  19.958  14.174  0.0729  0.0287 -0.0224
 1795BOLB   C4B43068  24.316  20.276  14.397 -0.0261 -0.2480  0.3739
 1795BOLB   NC243069  26.519  21.645  15.069 -0.0430  0.5449  0.1680
 1795BOLB   PO243070  26.362  21.228  15.108  0.1281 -0.1100  0.5066
 1795BOLB   GL343071  26.051  20.925  15.220  0.2718  0.1337 -0.3173
 1795BOLB   GL443072  26.090  20.728  15.441 -0.1127 -0.0902  0.3238
 1795BOLB   C1C43073  25.648  20.702  15.188 -0.1195  0.2387 -0.0181
 1795BOLB   C2C43074  25.236  20.438  15.057  0.0476  0.1586  0.3879
 1795BOLB   C3C43075  24.747  20.304  14.702 -0.0339  0.0219  0.0025
 1795BOLB   C4C43076  24.516  19.933  14.687 -0.0373 -0.0718 -0.2147
 1795BOLB   C1D43077  25.700  20.725  15.743  0.0653  0.2770  0.1482
 1795BOLB   C2D43078  25.366  20.736  16.043  0.0426 -0.1757 -0.1894
 1795BOLB   C3D43079  25.107  20.685  16.266 -0.3954 -0.0539  0.1768
 1795BOLB   C4D43080  24.760  20.642  16.609  0.0321  0.0965  0.0322
 1796BOLB   NC143081  25.857  12.795  16.592 -0.0878 -0.1082 -0.1158
 1796BOLB   PO143082  25.833  12.960  16.185  0.2843 -0.0757 -0.1437
 1796BOLB   GL143083  25.545  12.756  15.835 -0.0533  0.0486 -0.0157
 1796BOLB   GL243084  25.841  12.606  15.799 -0.3328 -0.1640  0.2096
 1796BOLB   C1A43085  25.299  12.404  15.620  0.0264 -0.0322 -0.0895
 1796BOLB   C2A43086  25.122  12.023  15.378  0.0231 -0.3269 -0.0497
 1796BOLB   C3A43087  25.045  11.659  15.115  0.0046 -0.0221 -0.1171
 1796BOLB   C4A43088  24.826  11.404  14.915 -0.4164 -0.1332  0.1314
 1796BOLB   C1B43089  26.034  12.223  16.101 -0.2199  0.2170  0.0153
 1796BOLB   C2B43090  25.865  11.791  16.107 -0.0680  0.0581 -0.0469
 1796BOLB   C3B43091  25.478  11.725  15.992 -0.2138 -0.4134 -0.2373
 1796BOLB   C4B43092  25.044  11.612  16.266 -0.3449  0.1089 -0.2677
 1796BOLB   NC243093  25.818  10.163  13.172 -0.0176  0.0658  0.2396
 1796BOLB   PO243094  26.136  10.203  13.288  0.2721  0.2884  0.2900
 1796BOLB   GL343095  25.870  10.371  13.587 -0.1894 -0.0990 -0.1673
 1796BOLB   GL443096  25.620  10.064  13.631 -0.0217 -0.1026  0.0590
 1796BOLB   C1C43097  25.496  10.589  13.621  0.0815  0.1716 -0.1928
 1796BOLB   C2C43098  25.182  10.748  13.986 -0.1031 -0.1242  0.1148
 1796BOLB   C3C43099  24.995  10.901  14.293  0.0331  0.0219 -0.0543
 1796BOLB   C4C43100  24.842  11.022  14.712 -0.2254 -0.3314  0.1879
 1796BOLB   C1D43101  25.733  10.061  14.083 -0.1069 -0.3923 -0.0349
 1796BOLB   C2D43102  25.618  10.098  14.436 -0.1171  0.0472 -0.1054
 1796BOLB   C3D43103  25.705  10.057  14.807 -0.1421  0.0877 -0.1298
 1796BOLB   C4D43104  25.868   9.812  15.050  0.1060 -0.3403  0.1091
 1797BOLB   NC143105  26.423  16.127  13.347 -0.0579 -0.1307  0.1834
 1797BOLB   PO143106  26.207  15.898  13.661  0.0157 -0.2581 -0.2084
 1797BOLB   GL143107  25.960  15.931  13.319  0.1887 -0.0464  0.3946
 1797BOLB   GL243108  25.579  15.788  13.436 -0.0000 -0.1233  0.1051
 1797BOLB   C1A43109  26.038  15.945  12.884 -0.1253  0.4193 -0.0543
 1797BOLB   C2A43110  25.790  15.885  12.608 -0.3113 -0.0423 -0.2834
 1797BOLB   C3A43111  25.452  15.855  12.333 -0.0631  0.0506 -0.0475
 1797BOLB   C4A43112  25.344  15.933  11.839  0.1631  0.1044 -0.0255
 1797BOLB   C1B43113  25.656  15.644  13.008 -0.2551 -0.1373 -0.1009
 1797BOLB   C2B43114  25.528  15.411  12.651  0.0734  0.3739 -0.1059
 1797BOLB   C3B43115  25.275  15.311  12.349 -0.1256 -0.5617  0.0992
 1797BOLB   C4B43116  25.081  15.293  11.935  0.0709  0.1684  0.1385
 1797BOLB   NC243117  26.002  16.662   9.216  0.2130  0.4692  0.1030
 1797BOLB   PO243118  25.834  16.615   9.582 -0.0878 -0.3263 -0.0008
 1797BOLB   GL343119  25.553  16.564   9.995 -0.3391 -0.0438 -0.0481
 1797BOLB   GL443120  25.766  16.444  10.264  0.1161 -0.3729 -0.1604
 1797BOLB   C1C43121  25.287  16.326  10.165  0.3235 -0.0052 -0.3562
 1797BOLB   C2C43122  25.385  16.178  10.567  0.0787 -0.4128 -0.2988
 1797BOLB   C3C43123  25.463  16.084  10.973 -0.1303 -0.3453  0.1780
 1797BOLB   C4C43124  25.407  16.017  11.407  0.0944  0.1295 -0.0966
 1797BOLB   C1D43125  25.750  16.859  10.436 -0.1402 -0.0184  0.2942
 1797BOLB   C2D43126  25.550  17.201  10.185 -0.2127  0.6490 -0.3096
 1797BOLB   C3D43127  25.494  17.447   9.931  0.0511 -0.2214 -0.2102
 1797BOLB   C4D43128  25.281  17.610   9.495  0.0352  0.0956 -0.3058
 1798BOLB   NC143129  24.954  12.357  17.801 -0.0340 -0.1470 -0.1375
 1798BOLB   PO143130  24.603  12.007  17.612 -0.1241  0.0115 -0.1421
 1798BOLB   GL143131  24.656  11.632  17.536 -0.0643 -0.1425 -0.0155
 1798BOLB   GL243132  24.414  11.493  17.709  0.1487 -0.1383 -0.0079
 1798BOLB   C1A43133  24.681  11.181  17.404 -0.0980  0.1709 -0.2365
 1798BOLB   C2A43134  24.824  10.663  17.365 -0.2671 -0.1199 -0.1093
 1798BOLB   C3A43135  24.773  10.209  17.264 -0.0390 -0.1582 -0.0983
 1798BOLB   C4A43136  24.909   9.764  17.259  0.1788  0.2300  0.4433
 1798BOLB   C1B43137  24.653  11.261  18.076 -0.0928 -0.0644 -0.1598
 1798BOLB   C2B43138  25.069  11.109  18.128 -0.1478 -0.0044  0.1911
 1798BOLB   C3B43139  25.179  10.697  18.259  0.2012 -0.3627 -0.0919
 1798BOLB   C4B43140  25.568  10.541  18.414  0.1725 -0.2060  0.0336
 1798BOLB   NC243141  24.758   7.445  16.177 -0.0669  0.2072  0.1163
 1798BOLB   PO243142  25.064   7.631  16.550  0.0366 -0.3163 -0.0000
 1798BOLB   GL343143  24.816   7.960  16.766  0.2595 -0.2239  0.2066
 1798BOLB   GL443144  24.662   7.921  17.100  0.0530 -0.2014  0.1287
 1798BOLB   C1C43145  24.893   8.388  16.712 -0.0286 -0.0169 -0.0915
 1798BOLB   C2C43146  24.941   8.743  16.804  0.2979  0.0890 -0.1566
 1798BOLB   C3C43147  24.763   9.049  17.181 -0.1029  0.1235 -0.0660
 1798BOLB   C4C43148  24.770   9.374  17.317 -0.3394 -0.0430 -0.2427
 1798BOLB   C1D43149  24.307   8.057  17.187  0.1342  0.0105 -0.1261
 1798BOLB   C2D43150  24.209   8.404  17.462 -0.0227 -0.2746  0.1034
 1798BOLB   C3D43151  24.259   8.923  17.404  0.0276 -0.2319 -0.0353
 1798BOLB   C4D43152  24.315   9.279  17.227 -0.1533 -0.0804  0.0845
 1799BOLB   NC143153  22.328  13.325  14.317 -0.2751 -0.0606 -0.1338
 1799BOLB   PO143154  22.360  12.863  14.319 -0.2405 -0.3254  0.3652
 1799BOLB   GL143155  22.757  12.816  14.285  0.0096 -0.2431 -0.0782
 1799BOLB   GL243156  22.857  13.102  14.120  0.2039  0.0859  0.0861
 1799BOLB   C1A43157  23.061  12.550  14.106 -0.0122 -0.3062  0.2249
 1799BOLB   C2A43158  23.209  12.240  13.759 -0.1502  0.0794 -0.5212
 1799BOLB   C3A43159  23.413  11.940  13.471 -0.1040 -0.1295  0.2485
 1799BOLB   C4A43160  23.358  11.567  13.164  0.0296 -0.4722 -0.5005
 1799BOLB   C1B43161  23.193  12.916  13.823  0.1146  0.2328  0.1614
 1799BOLB   C2B43162  23.429  12.619  13.571  0.0357 -0.2893 -0.1531
 1799BOLB   C3B43163  23.769  12.351  13.351 -0.1752 -0.1987 -0.0360
 1799BOLB   C4B43164  24.046  12.131  13.419 -0.0052 -0.1566 -0.3185
 1799BOLB   NC243165  25.217   9.433  12.931  0.0903  0.0763 -0.2943
 1799BOLB   PO243166  25.053   9.797  12.892  0.0029  0.0318  0.0595
 1799BOLB   GL343167  24.814  10.142  13.119  0.1486 -0.1881  0.0659
 1799BOLB   GL443168  24.771  10.406  12.898  0.0931  0.0190  0.0073
 1799BOLB   C1C43169  24.299  10.208  13.095  0.0551  0.2296  0.2267
 1799BOLB   C2C43170  24.006  10.440  13.226  0.0893 -0.2969 -0.1059
 1799BOLB   C3C43171  23.830  10.813  13.033  0.1417  0.2874  0.2090
 1799BOLB   C4C43172  23.650  11.253  13.023  0.0992 -0.0804 -0.1410
 1799BOLB   C1D43173  24.600  10.621  13.242 -0.2317 -0.0313  0.0861
 1799BOLB   C2D43174  24.308  10.892  13.398 -0.2960 -0.3060  0.3318
 1799BOLB   C3D43175  24.302  11.296  13.612 -0.5629  0.0758  0.2527
 1799BOLB   C4D43176  24.194  11.712  13.740  0.1042 -0.3748  0.0974
 1800BOLB   NC143177  23.192  11.668  16.301 -0.0062  0.1432 -0.2611
 1800BOLB   PO143178  22.898  11.420  16.350  0.1650 -0.0257 -0.1258
 1800BOLB   GL143179  22.962  11.272  15.941 -0.0386  0.0149  0.3604
 1800BOLB   GL243180  22.733  11.055  15.948  0.2555  0.2822  0.1739
 1800BOLB   C1A43181  23.201  10.788  15.681  0.1507  0.0631 -0.1838
 1800BOLB   C2A43182  23.437  10.487  15.684 -0.0130  0.4799  0.0068
 1800BOLB   C3A43183  23.526  10.092  15.632  0.0684  0.2333  0.2168
 1800BOLB   C4A43184  23.689   9.812  15.332 -0.3404  0.1729 -0.1470
 1800BOLB   C1B43185  22.764  10.650  16.084 -0.1979  0.1398 -0.2560
 1800BOLB   C2B43186  23.180  10.455  16.192  0.4447  0.0684 -0.0525
 1800BOLB   C3B43187  23.545  10.063  16.135  0.1453 -0.2668 -0.1027
 1800BOLB   C4B43188  23.761   9.674  15.926  0.3007  0.0465 -0.2142
 1800BOLB   NC243189  24.038   8.807  13.112  0.0011  0.1689  0.0720
 1800BOLB   PO243190  23.757   8.954  12.877  0.2290 -0.1042 -0.0680
 1800BOLB   GL343191  23.551   8.976  13.301  0.1390  0.0790 -0.0526
 1800BOLB   GL443192  23.181   8.772  13.216  0.0806 -0.0671  0.0686
 1800BOLB   C1C43193  23.583   8.941  13.787  0.0656  0.1633 -0.0331
 1800BOLB   C2C43194  23.544   9.164  14.151  0.0131  0.3120 -0.2666
 1800BOLB   C3C43195  23.622   9.201  14.522  0.1363  0.0044  0.1395
 1800BOLB   C4C43196  23.757   9.497  14.911  0.0377 -0.0286  0.0835
 1800BOLB   C1D43197  22.968   9.220  13.079  0.2878  0.0666  0.0381
 1800BOLB   C2D43198  22.900   9.553  13.356  0.1753  0.2366  0.1677
 1800BOLB   C3D43199  22.718   9.836  13.516  0.2899  0.0130 -0.2548
 1800BOLB   C4D43200  22.887  10.084  13.717 -0.2166 -0.1549 -0.2339
 1801BOLB   NC143201  24.486  14.461  14.073  0.0375  0.0792 -0.1214
 1801BOLB   PO143202  24.774  14.386  14.452 -0.0237 -0.2476  0.2162
 1801BOLB   GL143203  24.651  13.962  14.176 -0.1646 -0.0864 -0.0343
 1801BOLB   GL243204  24.964  13.818  14.121  0.1717 -0.0030  0.2204
 1801BOLB   C1A43205  24.461  13.809  13.768 -0.1922 -0.4044 -0.0652
 1801BOLB   C2A43206  24.268  13.541  13.367 -0.0566 -0.3739 -0.3670
 1801BOLB   C3A43207  24.161  13.597  13.017 -0.0583 -0.0294 -0.0527
 1801BOLB   C4A43208  24.058  13.408  12.682 -0.0369  0.0934 -0.2039
 1801BOLB   C1B43209  24.865  13.437  13.831 -0.0810 -0.0702 -0.2176
 1801BOLB   C2B43210  24.749  13.197  13.629  0.1401 -0.2294  0.4689
 1801BOLB   C3B43211  24.487  13.013  13.327  0.1155 -0.1086 -0.3185
 1801BOLB   C4B43212  24.123  13.067  13.126 -0.1584  0.1214  0.0993
 1801BOLB   NC243213  24.965  11.829  10.615 -0.0999 -0.1723  0.0380
 1801BOLB   PO243214  24.915  11.511  11.038  0.2250 -0.0425 -0.1645
 1801BOLB   GL343215  24.778  11.910  11.079 -0.0111  0.0153  0.1329
 1801BOLB   GL443216  24.436  11.923  10.982  0.1067  0.0787 -0.0231
 1801BOLB   C1C43217  24.519  12.176  11.434 -0.0461  0.1956 -0.3983
 1801BOLB   C2C43218  24.205  12.390  11.691  0.2430  0.0792  0.0314
 1801BOLB   C3C43219  24.182  12.627  12.128 -0.0853 -0.1055  0.4912
 1801BOLB   C4C43220  24.113  13.067  12.325  0.1046 -0.0668  0.1726
 1801BOLB   C1D43221  24.086  12.027  11.286 -0.1274  0.2851  0.0510
 1801BOLB   C2D43222  23.716  12.237  11.229  0.0777  0.1978 -0.2850
 1801BOLB   C3D43223  23.580  12.647  11.059 -0.1085 -0.0848  0.1559
 1801BOLB   C4D43224  23.644  13.029  10.800  0.2348  0.1166  0.0590
 1802BOLB   NC143225  22.874  13.885  13.677  0.1068  0.1840  0.0383
 1802BOLB   PO143226  23.073  13.554  13.405  0.0056 -0.3521  0.0387
 1802BOLB   GL143227  23.227  13.424  13.175  0.0052  0.1142  0.2118
 1802BOLB   GL243228  23.089  13.383  12.901  0.0632  0.0327  0.1394
 1802BOLB   C1A43229  23.580  13.349  12.862  0.0692 -0.0150 -0.1589
 1802BOLB   C2A43230  23.684  12.933  12.615  0.0383 -0.1567 -0.1220
 1802BOLB   C3A43231  23.686  12.485  12.246  0.0322  0.0323 -0.0539
 1802BOLB   C4A43232  23.752  12.147  12.011 -0.1100  0.0380 -0.2453
 1802BOLB   C1B43233  23.213  13.065  12.684 -0.2926 -0.0567 -0.1560
 1802BOLB   C2B43234  23.258  12.680  12.404 -0.5047  0.3924  0.0733
 1802BOLB   C3B43235  23.213  12.277  12.225 -0.2930  0.0517 -0.0624
 1802BOLB   C4B43236  23.011  11.965  12.454 -0.0271  0.5527 -0.0391
 1802BOLB   NC243237  23.918  11.199  10.024 -0.1881 -0.0828 -0.0530
 1802BOLB   PO243238  23.679  10.997   9.805  0.1051  0.1097 -0.2236
 1802BOLB   GL343239  23.511  11.166  10.275 -0.0766 -0.0965  0.0761
 1802BOLB   GL443240  23.632  11.564  10.303 -0.0498 -0.1807  0.1027
 1802BOLB   C1C43241  23.520  11.185  10.699 -0.2319  0.1757  0.0154
 1802BOLB   C2C43242  23.734  11.427  11.021  0.1594 -0.0214 -0.3075
 1802BOLB   C3C43243  23.757  11.654  11.352 -0.4150  0.4863  0.2722
 1802BOLB   C4C43244  23.843  11.878  11.713 -0.0654 -0.0955 -0.0128
 1802BOLB   C1D43245  23.410  11.701  10.692 -0.0068  0.3309  0.0929
 1802BOLB   C2D43246  23.272  11.475  11.159  0.1139  0.1297  0.0070
 1802BOLB   C3D43247  23.088  11.641  11.497 -0.0356  0.1335 -0.1543
 1802BOLB   C4D43248  22.669  11.710  11.574  0.1757 -0.2548 -0.0671
 1803BOLB   NC143249  28.180  17.468  16.335 -0.0540 -0.1944  0.2255
 1803BOLB   PO143250  27.792  17.511  16.557 -0.1064 -0.1135 -0.1219
 1803BOLB   GL143251  27.398  17.569  16.395  0.0315 -0.2359  0.2384
 1803BOLB   GL243252  27.276  17.594  16.760  0.2992  0.0474  0.0396
 1803BOLB   C1A43253  26.962  17.717  16.234 -0.0922  0.0443 -0.2108
 1803BOLB   C2A43254  26.620  18.034  16.105 -0.1269 -0.4625  0.2579
 1803BOLB   C3A43255  26.314  18.291  16.108  0.1090  0.2485  0.1740
 1803BOLB   C4A43256  26.261  18.680  16.152  0.0567 -0.3059  0.1238
 1803BOLB   C1B43257  26.924  17.597  17.074  0.0121 -0.1319 -0.1065
 1803BOLB   C2B43258  26.543  17.779  17.166  0.0093  0.0933  0.0483
 1803BOLB   C3B43259  26.147  17.925  17.391 -0.3652  0.0142 -0.0040
 1803BOLB   C4B43260  25.663  17.778  17.455 -0.1205  0.1768  0.1678
 1803BOLB   NC243261  27.728  19.104  17.691 -0.1142  0.0175  0.5748
 1803BOLB   PO243262  27.378  19.305  17.321  0.0084  0.3108 -0.2043
 1803BOLB   GL343263  26.953  19.453  17.116 -0.1132  0.1962 -0.2403
 1803BOLB   GL443264  26.922  19.512  16.800  0.0845  0.0799  0.0967
 1803BOLB   C1C43265  26.461  19.432  17.088  0.2913  0.0389  0.1692
 1803BOLB   C2C43266  26.123  19.624  16.889  0.0944  0.0491 -0.1857
 1803BOLB   C3C43267  25.905  19.395  16.528  0.0874 -0.1205 -0.1716
 1803BOLB   C4C43268  26.148  19.054  16.295  0.2249  0.2259  0.3829
 1803BOLB   C1D43269  26.601  19.828  16.808 -0.3744 -0.0152  0.0753
 1803BOLB   C2D43270  26.349  20.092  16.972 -0.1322  0.1053  0.2274
 1803BOLB   C3D43271  25.931  20.319  17.008 -0.2816  0.1576 -0.0213
 1803BOLB   C4D43272  25.636  20.470  17.289 -0.4410  0.3847  0.1402
 1804BOLB   NC143273  24.424  24.765  11.616 -0.2631  0.3645 -0.1726
 1804BOLB   PO143274  24.747  24.585  11.362 -0.0080 -0.0018 -0.0189
 1804BOLB   GL143275  24.533  24.157  11.092 -0.1044 -0.0053 -0.3528
 1804BOLB   GL243276  24.129  24.147  10.988  0.2500 -0.2787  0.4620
 1804BOLB   C1A43277  24.444  23.708  10.959 -0.1795 -0.0919  0.1104
 1804BOLB   C2A43278  24.327  23.376  11.116  0.2716  0.0376 -0.1266
 1804BOLB   C3A43279  24.044  23.104  11.338 -0.1352 -0.0415  0.1650
 1804BOLB   C4A43280  23.944  22.768  11.104 -0.1135 -0.1380  0.3862
 1804BOLB   C1B43281  23.861  24.470  11.000  0.2155 -0.0204 -0.2586
 1804BOLB   C2B43282  23.371  24.588  11.076  0.1146 -0.4274  0.4107
 1804BOLB   C3B43283  22.959  24.704  11.237 -0.2287 -0.0754  0.2174
 1804BOLB   C4B43284  22.673  24.538  11.532  0.1872 -0.0928 -0.2953
 1804BOLB   NC243285  25.524  21.397  10.066  0.2827  0.5102  0.2594
 1804BOLB   PO243286  25.395  21.867   9.935 -0.1299  0.1883  0.0264
 1804BOLB   GL343287  25.087  21.772  10.289  0.2791  0.0597  0.0843
 1804BOLB   GL443288  25.004  21.391  10.202 -0.1543 -0.2793 -0.2351
 1804BOLB   C1C43289  24.674  21.950  10.443  0.0204 -0.0098  0.1097
 1804BOLB   C2C43290  24.384  21.859  10.693  0.3179 -0.0406  0.3742
 1804BOLB   C3C43291  23.920  21.945  10.922 -0.0244  0.2967  0.0372
 1804BOLB   C4C43292  23.895  22.362  11.023 -0.0607  0.0822  0.0046
 1804BOLB   C1D43293  24.838  21.482  10.666  0.3427 -0.3124  0.2848
 1804BOLB   C2D43294  24.770  21.635  11.086 -0.1607 -0.1818  0.1150
 1804BOLB   C3D43295  24.505  21.472  11.485  0.1168  0.0303 -0.0653
 1804BOLB   C4D43296  24.054  21.570  11.746  0.1097  0.1500 -0.1434
 1805BOLB   NC143297  22.589  20.518  12.651  0.1917  0.1951 -0.0654
 1805BOLB   PO143298  22.790  20.619  12.279 -0.1509  0.1493 -0.0914
 1805BOLB   GL143299  22.963  20.843  12.016  0.0072  0.1440 -0.1518
 1805BOLB   GL243300  23.197  20.634  11.879 -0.0047 -0.3806 -0.0525
 1805BOLB   C1A43301  22.989  20.976  11.609  0.1450 -0.0127 -0.2433
 1805BOLB   C2A43302  22.827  21.008  11.062  0.0095 -0.0048 -0.0068
 1805BOLB   C3A43303  22.783  21.073  10.569 -0.1049 -0.2349  0.0166
 1805BOLB   C4A43304  23.142  21.307  10.278 -0.0427 -0.1740  0.0688
 1805BOLB   C1B43305  23.562  20.560  11.578  0.1662 -0.0061 -0.3890
 1805BOLB   C2B43306  23.732  20.230  11.454 -0.0285 -0.1589 -0.2200
 1805BOLB   C3B43307  23.892  19.895  11.558  0.0485  0.2966 -0.3733
 1805BOLB   C4B43308  24.095  19.677  11.809  0.0014 -0.0215 -0.1381
 1805BOLB   NC243309  22.232  22.397   8.301 -0.3212 -0.1062  0.0317
 1805BOLB   PO243310  22.659  22.166   8.393  0.1566  0.0973  0.1030
 1805BOLB   GL343311  22.532  22.178   8.855  0.1275 -0.3093  0.0008
 1805BOLB   GL443312  22.206  21.989   8.601 -0.0290 -0.1689 -0.1539
 1805BOLB   C1C43313  22.255  22.051   9.193 -0.2815 -0.0648  0.2605
 1805BOLB   C2C43314  22.327  21.979   9.588  0.5261 -0.2096  0.0727
 1805BOLB   C3C43315  22.745  21.906   9.816  0.1469  0.0713  0.2347
 1805BOLB   C4C43316  23.074  21.721  10.079  0.1055  0.0263 -0.0327
 1805BOLB   C1D43317  21.943  21.716   8.822 -0.0068  0.1830 -0.2631
 1805BOLB   C2D43318  22.012  21.284   8.884  0.0129 -0.1158 -0.0199
 1805BOLB   C3D43319  21.878  20.927   9.046 -0.1222 -0.3757  0.1642
 1805BOLB   C4D43320  21.497  20.718   9.055  0.3401 -0.1558  0.2108
 1806BOLB   NC143321  27.317  13.392  14.408 -0.1351  0.2282 -0.0107
 1806BOLB   PO143322  26.983  13.390  14.618  0.2718  0.1487 -0.1455
 1806BOLB   GL143323  26.615  13.338  14.327  0.1066  0.1814 -0.0374
 1806BOLB   GL243324  26.833  13.202  14.201  0.3187  0.1082  0.2108
 1806BOLB   C1A43325  26.236  13.305  13.969  0.0768  0.4597  0.0098
 1806BOLB   C2A43326  25.900  13.498  13.738  0.3067 -0.0156 -0.0530
 1806BOLB   C3A43327  25.670  13.319  13.273 -0.0448  0.0962 -0.1202
 1806BOLB   C4A43328  25.464  13.283  12.868 -0.0782 -0.1704  0.2166
 1806BOLB   C1B43329  26.665  13.289  13.737  0.0011 -0.1629 -0.1461
 1806BOLB   C2B43330  26.587  13.503  13.243  0.0538 -0.0076 -0.0201
 1806BOLB   C3B43331  26.404  13.818  12.998  0.0435  0.3911 -0.0088
 1806BOLB   C4B43332  26.543  14.091  12.619  0.0002 -0.2312  0.0503
 1806BOLB   NC243333  25.846  12.731   9.905 -0.0347  0.1720 -0.1830
 1806BOLB   PO243334  25.760  12.558  10.271  0.0602  0.2950  0.0006
 1806BOLB   GL343335  25.479  12.759  10.614  0.2159 -0.0580 -0.1146
 1806BOLB   GL443336  25.251  12.716  10.575  0.1501 -0.2351 -0.4202
 1806BOLB   C1C43337  25.639  12.919  11.112 -0.1073  0.1504 -0.1833
 1806BOLB   C2C43338  25.719  13.277  11.436  0.0797  0.2522 -0.3747
 1806BOLB   C3C43339  25.731  13.359  11.963  0.0718  0.3030 -0.2774
 1806BOLB   C4C43340  25.500  13.414  12.486 -0.4290 -0.0353  0.3283
 1806BOLB   C1D43341  25.171  12.863  11.015 -0.2089  0.1923 -0.0749
 1806BOLB   C2D43342  25.033  13.170  11.268  0.0307  0.0340  0.2332
 1806BOLB   C3D43343  24.851  13.589  11.364  0.2060  0.0256 -0.1810
 1806BOLB   C4D43344  24.576  13.888  11.201  0.0965  0.1262  0.0196
 1807BOLB   NC143345  24.727  13.999  14.712  0.1304  0.0782 -0.2476
 1807BOLB   PO143346  25.109  13.923  14.939  0.0123  0.1726 -0.2261
 1807BOLB   GL143347  25.120  13.557  14.591 -0.0525 -0.3991  0.2682
 1807BOLB   GL243348  24.798  13.532  14.474 -0.1469  0.1389 -0.2093
 1807BOLB   C1A43349  25.213  13.305  14.194 -0.1991  0.1022  0.0464
 1807BOLB   C2A43350  25.097  12.957  13.897  0.4398  0.4273 -0.0782
 1807BOLB   C3A43351  25.107  12.671  13.577  0.0628  0.0377 -0.1387
 1807BOLB   C4A43352  25.147  12.475  13.196 -0.2760 -0.2345 -0.0741
 1807BOLB   C1B43353  24.608  13.242  14.266 -0.0805 -0.0400  0.1112
 1807BOLB   C2B43354  24.842  12.748  14.300  0.2359 -0.1655  0.0890
 1807BOLB   C3B43355  24.938  12.523  14.677 -0.1289 -0.1362  0.3146
 1807BOLB   C4B43356  25.008  12.453  15.119 -0.0688 -0.0695 -0.0527
 1807BOLB   NC243357  25.627  10.861  11.835 -0.0778 -0.0498  0.0661
 1807BOLB   PO243358  25.643  11.094  11.408  0.0991  0.2339  0.1563
 1807BOLB   GL343359  25.517  11.526  11.625  0.1878  0.3199 -0.1133
 1807BOLB   GL443360  25.657  11.796  11.425  0.1589 -0.2984 -0.0330
 1807BOLB   C1C43361  25.380  11.908  11.834  0.1391  0.0315 -0.0189
 1807BOLB   C2C43362  24.998  12.103  12.136  0.1574 -0.0670 -0.0537
 1807BOLB   C3C43363  25.163  12.424  12.387  0.1209 -0.1484 -0.1989
 1807BOLB   C4C43364  25.033  12.569  12.780 -0.0198  0.1400 -0.2379
 1807BOLB   C1D43365  25.600  12.124  11.399  0.0158  0.0842 -0.1442
 1807BOLB   C2D43366  25.428  12.502  11.563 -0.2438 -0.1106 -0.1401
 1807BOLB   C3D43367  25.294  12.980  11.686  0.0970  0.1956  0.0431
 1807BOLB   C4D43368  25.234  13.442  11.741  0.1026 -0.4161 -0.0011
 1808BOLB   NC143369  25.512  16.309  14.183 -0.1664 -0.0538  0.2122
 1808BOLB   PO143370  25.359  16.194  13.786 -0.1426  0.1711  0.2061
 1808BOLB   GL143371  25.253  16.291  13.401 -0.1976 -0.2021 -0.5634
 1808BOLB   GL243372  25.513  16.173  13.147  0.4441 -0.1305 -0.3164
 1808BOLB   C1A43373  25.015  16.494  13.068  0.0965  0.1737 -0.1615
 1808BOLB   C2A43374  24.962  16.942  12.992  0.0180  0.1578 -0.1261
 1808BOLB   C3A43375  25.051  17.427  13.036  0.1283  0.2188 -0.1083
 1808BOLB   C4A43376  24.851  17.808  13.140  0.1516 -0.0284  0.0758
 1808BOLB   C1B43377  25.475  16.611  12.982  0.1605 -0.0430  0.2208
 1808BOLB   C2B43378  25.436  17.040  12.963 -0.0136  0.1518  0.1857
 1808BOLB   C3B43379  25.301  17.176  12.597  0.1198  0.0320  0.4418
 1808BOLB   C4B43380  24.908  17.434  12.604 -0.1757  0.2476 -0.1532
 1808BOLB   NC243381  26.657  19.719  13.188 -0.0835 -0.1093  0.0749
 1808BOLB   PO243382  26.587  19.283  13.367  0.0962  0.2015  0.1710
 1808BOLB   GL343383  26.232  19.427  13.302  0.1254 -0.1066 -0.2434
 1808BOLB   GL443384  26.107  19.377  13.646  0.1094  0.0652 -0.5005
 1808BOLB   C1C43385  25.862  19.100  13.261 -0.1628  0.0173 -0.2445
 1808BOLB   C2C43386  25.447  18.850  13.165  0.2234  0.2981  0.2390
 1808BOLB   C3C43387  25.087  18.608  13.066 -0.3864  0.0710 -0.0025
 1808BOLB   C4C43388  24.839  18.204  13.219  0.0244 -0.0192 -0.2055
 1808BOLB   C1D43389  25.697  19.155  13.725  0.1619  0.1825 -0.2211
 1808BOLB   C2D43390  25.238  19.162  13.583 -0.1568  0.0018 -0.1009
 1808BOLB   C3D43391  24.994  19.041  13.292  0.2692  0.2083 -0.1698
 1808BOLB   C4D43392  24.967  19.137  12.942 -0.0585  0.2511  0.1031
 1809BOLB   NC143393  21.918  12.752  13.844  0.1055 -0.1960 -0.0163
 1809BOLB   PO143394  21.825  12.811  13.356 -0.0140 -0.3289 -0.0509
 1809BOLB   GL143395  22.131  12.873  12.954 -0.1119 -0.0415  0.5720
 1809BOLB   GL243396  22.237  13.103  12.834 -0.0352  0.2171 -0.1900
 1809BOLB   C1A43397  22.326  12.598  12.719  0.2777 -0.2529 -0.0504
 1809BOLB   C2A43398  22.228  12.508  12.275  0.0666  0.0138  0.0365
 1809BOLB   C3A43399  22.286  12.171  12.099  0.2382  0.1604 -0.0256
 1809BOLB   C4A43400  22.667  11.989  12.050  0.1401 -0.2952 -0.0038
 1809BOLB   C1B43401  22.304  13.138  12.431 -0.2357 -0.0592 -0.0682
 1809BOLB   C2B43402  22.461  12.920  12.069 -0.2559 -0.0935 -0.1579
 1809BOLB   C3B43403  22.716  12.795  11.699 -0.0417  0.1019  0.2445
 1809BOLB   C4B43404  23.153  12.622  11.355  0.1986  0.1595 -0.2775
 1809BOLB   NC243405  24.468  11.881  10.278 -0.2831  0.1069 -0.0571
 1809BOLB   PO243406  24.186  11.684  10.109  0.1286 -0.0506 -0.2310
 1809BOLB   GL343407  24.048  11.730  10.585  0.1807  0.0663  0.1591
 1809BOLB   GL443408  24.034  11.427  10.626 -0.0230  0.0183  0.1010
 1809BOLB   C1C43409  23.790  11.883  10.905 -0.0523  0.0118 -0.1456
 1809BOLB   C2C43410  23.303  12.035  11.135 -0.0272 -0.0995  0.1868
 1809BOLB   C3C43411  23.250  12.072  11.552 -0.1414 -0.4065 -0.0591
 1809BOLB   C4C43412  23.027  12.013  11.853 -0.1794 -0.0020  0.0919
 1809BOLB   C1D43413  24.176  11.303  10.999 -0.3398 -0.0776 -0.0295
 1809BOLB   C2D43414  24.295  11.578  11.373  0.0063 -0.2397  0.4476
 1809BOLB   C3D43415  24.526  11.717  11.788  0.1481  0.2184 -0.2517
 1809BOLB   C4D43416  24.541  12.117  11.973  0.0036 -0.3179 -0.0598
 1810BOLB   NC143417  22.795  17.946  12.173 -0.0516  0.0541 -0.0487
 1810BOLB   PO143418  22.770  17.930  11.802 -0.0837 -0.0388 -0.0588
 1810BOLB   GL143419  23.081  17.875  11.610  0.3797  0.4712  0.0555
 1810BOLB   GL243420  22.984  17.615  11.461  0.0864  0.0481 -0.4257
 1810BOLB   C1A43421  23.369  17.969  11.238  0.0064  0.1636  0.2049
 1810BOLB   C2A43422  23.637  18.240  10.971 -0.3028  0.3565  0.1410
 1810BOLB   C3A43423  23.992  18.098  11.159 -0.0257 -0.0342  0.2104
 1810BOLB   C4A43424  24.176  17.821  10.919  0.1019 -0.0117 -0.2988
 1810BOLB   C1B43425  23.096  17.218  11.373  0.0359 -0.0385  0.0598
 1810BOLB   C2B43426  23.185  16.882  11.110  0.0377 -0.2022  0.3077
 1810BOLB   C3B43427  23.301  16.943  10.694  0.1223  0.1793  0.1864
 1810BOLB   C4B43428  23.396  16.890  10.211 -0.2242 -0.0516 -0.3172
 1810BOLB   NC243429  25.011  17.285   8.856  0.0895  0.0880 -0.1239
 1810BOLB   PO243430  24.636  16.925   8.865 -0.0437  0.1662 -0.1505
 1810BOLB   GL343431  24.544  17.218   9.223  0.0381  0.1308 -0.2136
 1810BOLB   GL443432  24.452  17.427   8.932 -0.1495 -0.1020  0.2449
 1810BOLB   C1C43433  24.731  17.352   9.642 -0.0108 -0.0351  0.2965
 1810BOLB   C2C43434  24.753  17.351  10.135  0.3883  0.1468 -0.0612
 1810BOLB   C3C43435  24.583  17.552  10.466 -0.1023  0.0210 -0.0531
 1810BOLB   C4C43436  24.461  17.757  10.731  0.0019  0.4560  0.3081
 1810BOLB   C1D43437  24.168  17.692   9.107 -0.2204  0.1381 -0.0082
 1810BOLB   C2D43438  23.988  18.080   9.031  0.0129  0.2277 -0.0216
 1810BOLB   C3D43439  23.893  18.373   8.746 -0.2605  0.0988 -0.2811
 1810BOLB   C4D43440  23.768  18.773   8.795  0.2250  0.2773 -0.1151
 1811BOLB   NC143441  23.150  16.338  12.561 -0.0992  0.1725  0.2682
 1811BOLB   PO143442  23.272  16.791  12.447  0.0478 -0.0404  0.0568
 1811BOLB   GL143443  23.673  16.872  12.346 -0.4649  0.3552  0.2523
 1811BOLB   GL243444  23.765  17.053  12.447  0.4437  0.0583  0.0058
 1811BOLB   C1A43445  23.968  17.007  12.023 -0.1746 -0.1255  0.1732
 1811BOLB   C2A43446  24.401  17.047  11.782  0.1286  0.1481  0.3194
 1811BOLB   C3A43447  24.508  17.002  11.276  0.0392  0.0592 -0.0457
 1811BOLB   C4A43448  24.863  16.955  11.053  0.0092  0.0541 -0.0545
 1811BOLB   C1B43449  24.175  17.222  12.478 -0.1534  0.1992 -0.3544
 1811BOLB   C2B43450  24.579  17.189  12.338 -0.0856  0.3600  0.0811
 1811BOLB   C3B43451  24.870  16.898  12.435 -0.0367  0.0142  0.3734
 1811BOLB   C4B43452  24.639  16.387  12.592 -0.1432  0.1405  0.2020
 1811BOLB   NC243453  25.776  17.161   8.588 -0.2573 -0.2093  0.0799
 1811BOLB   PO243454  25.489  17.281   8.878 -0.0139  0.3311  0.0294
 1811BOLB   GL343455  25.226  17.147   9.281 -0.1212 -0.1306  0.1943
 1811BOLB   GL443456  25.033  16.908   9.204  0.0331  0.3059 -0.0644
 1811BOLB   C1C43457  25.144  17.113   9.748 -0.1125  0.0138  0.0005
 1811BOLB   C2C43458  24.996  16.842  10.107 -0.0699  0.2231  0.3118
 1811BOLB   C3C43459  25.248  16.822  10.401 -0.1404 -0.2507  0.0324
 1811BOLB   C4C43460  25.182  16.807  10.777  0.1795 -0.2788  0.4351
 1811BOLB   C1D43461  24.694  16.865   9.614 -0.1945 -0.0040 -0.2246
 1811BOLB   C2D43462  24.470  17.016   9.886 -0.1388  0.1951 -0.2241
 1811BOLB   C3D43463  24.123  17.077  10.210  0.2412 -0.1498 -0.0859
 1811BOLB   C4D43464  24.010  17.484  10.396 -0.1693  0.0640  0.0294
 1812BOLB   NC143465  23.636  19.358  12.855 -0.3029  0.1128 -0.1037
 1812BOLB   PO143466  23.377  19.356  12.476  0.0913  0.1777 -0.1857
 1812BOLB   GL143467  23.327  19.310  12.060  0.2080 -0.2216 -0.0403
 1812BOLB   GL243468  23.434  19.006  12.152  0.2054  0.0783 -0.2066
 1812BOLB   C1A43469  23.230  19.260  11.538  0.3482  0.2550  0.2450
 1812BOLB   C2A43470  23.381  19.294  11.069 -0.2176  0.2274 -0.1356
 1812BOLB   C3A43471  23.549  19.283  10.579  0.1364  0.4134 -0.0032
 1812BOLB   C4A43472  23.703  19.169  10.317  0.0753  0.2622  0.1249
 1812BOLB   C1B43473  23.579  18.961  11.736  0.2957  0.1206  0.0631
 1812BOLB   C2B43474  23.710  19.052  11.324  0.1951 -0.0246 -0.0960
 1812BOLB   C3B43475  23.932  19.191  10.989  0.1387 -0.0011 -0.2411
 1812BOLB   C4B43476  24.052  18.829  10.627 -0.2956  0.0394 -0.0175
 1812BOLB   NC243477  23.984  17.830   8.404 -0.1869 -0.0250  0.0245
 1812BOLB   PO243478  23.963  18.119   8.161 -0.0020 -0.5635  0.2956
 1812BOLB   GL343479  23.566  18.153   8.540 -0.2108  0.0110 -0.0274
 1812BOLB   GL443480  23.575  17.893   8.694  0.2767  0.0174 -0.0134
 1812BOLB   C1C43481  23.405  18.377   8.911 -0.0658  0.3176  0.0081
 1812BOLB   C2C43482  23.696  18.508   9.191 -0.0375 -0.0641 -0.1819
 1812BOLB   C3C43483  23.729  18.780   9.544  0.1119  0.0855  0.0710
 1812BOLB   C4C43484  23.700  19.013   9.855 -0.0076  0.1572 -0.0530
 1812BOLB   C1D43485  23.403  17.531   8.800  0.0215  0.0740 -0.0949
 1812BOLB   C2D43486  23.158  17.500   9.240  0.0187 -0.0281  0.2518
 1812BOLB   C3D43487  23.179  17.272   9.582 -0.2772 -0.0907 -0.1797
 1812BOLB   C4D43488  22.952  17.030   9.921 -0.2945  0.3963  0.0163
 1813BOLB   NC143489  23.797  26.098  12.669  0.1158  0.3724  0.0440
 1813BOLB   PO143490  24.117  25.754  12.580  0.3921 -0.3043 -0.3243
 1813BOLB   GL143491  23.634  25.618  12.507 -0.3342 -0.1366  0.3053
 1813BOLB   GL243492  23.520  25.301  12.754 -0.2591 -0.3656 -0.0400
 1813BOLB   C1A43493  23.227  25.451  12.319  0.1612  0.1854  0.0922
 1813BOLB   C2A43494  22.944  25.148  12.143 -0.1136 -0.0884  0.0340
 1813BOLB   C3A43495  22.430  25.161  12.142  0.1280 -0.0448  0.0691
 1813BOLB   C4A43496  22.156  25.451  11.940  0.0087 -0.2376 -0.2367
 1813BOLB   C1B43497  23.195  25.648  12.840  0.3355  0.4335 -0.3441
 1813BOLB   C2B43498  22.879  25.850  12.500 -0.0385  0.0532 -0.2195
 1813BOLB   C3B43499  22.372  25.801  12.451  0.0627 -0.3104  0.2806
 1813BOLB   C4B43500  21.916  25.889  12.507 -0.0070  0.2807 -0.1862
 1813BOLB   NC243501  23.598  26.299  11.136 -0.3019  0.1241 -0.0941
 1813BOLB   PO243502  23.519  26.603  11.528  0.0593  0.2639  0.2008
 1813BOLB   GL343503  23.233  26.322  11.572  0.1707 -0.0586 -0.5604
 1813BOLB   GL443504  23.254  26.254  11.921  0.2137  0.0526  0.1802
 1813BOLB   C1C43505  22.824  26.321  11.682 -0.0288  0.2073  0.1892
 1813BOLB   C2C43506  22.402  26.310  11.765  0.0069  0.1319 -0.0800
 1813BOLB   C3C43507  22.157  26.133  12.020  0.0791  0.1012  0.5162
 1813BOLB   C4C43508  21.908  25.753  12.042 -0.3242 -0.0272  0.0258
 1813BOLB   C1D43509  23.072  25.785  11.820 -0.0496 -0.0632 -0.0736
 1813BOLB   C2D43510  23.134  25.548  11.540 -0.2611  0.3035 -0.5509
 1813BOLB   C3D43511  23.118  25.080  11.590 -0.3085 -0.4504 -0.2397
 1813BOLB   C4D43512  23.068  24.750  11.758 -0.1772  0.3208 -0.0943
 1814BOLB   NC143513  22.334  15.438  12.217 -0.4301  0.0666  0.0234
 1814BOLB   PO143514  22.546  15.873  12.284  0.3354 -0.1044  0.1522
 1814BOLB   GL143515  22.564  15.826  11.822 -0.2111  0.3609 -0.1731
 1814BOLB   GL243516  22.478  15.633  11.584 -0.1263 -0.0984  0.0229
 1814BOLB   C1A43517  22.756  15.983  11.410  0.0456 -0.1650 -0.2181
 1814BOLB   C2A43518  23.057  15.958  11.145  0.1679 -0.2052  0.1180
 1814BOLB   C3A43519  23.397  15.871  10.843  0.0319 -0.0234 -0.1568
 1814BOLB   C4A43520  23.420  15.795  10.442  0.1242  0.1832  0.1065
 1814BOLB   C1B43521  22.660  15.533  11.175 -0.0778 -0.0127  0.1774
 1814BOLB   C2B43522  22.706  15.343  10.873  0.3665 -0.0654  0.5081
 1814BOLB   C3B43523  22.770  15.203  10.441 -0.0297 -0.2430 -0.4656
 1814BOLB   C4B43524  22.700  14.866  10.029 -0.1167  0.1355  0.3242
 1814BOLB   NC243525  22.892  14.470   8.161 -0.1340 -0.1121  0.0871
 1814BOLB   PO243526  23.118  14.261   8.462  0.2063 -0.2444  0.2097
 1814BOLB   GL343527  22.972  14.628   8.698  0.1701  0.1115 -0.0753
 1814BOLB   GL443528  23.015  14.927   8.521  0.2974  0.2196 -0.0627
 1814BOLB   C1C43529  23.085  15.010   9.011 -0.1488 -0.0641 -0.0202
 1814BOLB   C2C43530  23.338  15.190   9.352  0.1143 -0.1591 -0.1641
 1814BOLB   C3C43531  23.439  15.386   9.784  0.1946  0.3341  0.0189
 1814BOLB   C4C43532  23.529  15.629  10.086 -0.2063 -0.0360 -0.2289
 1814BOLB   C1D43533  22.941  15.430   8.766 -0.0341 -0.0693 -0.0912
 1814BOLB   C2D43534  23.006  15.797   9.005 -0.0521 -0.0137  0.1096
 1814BOLB   C3D43535  23.048  15.951   9.445  0.1647 -0.1581 -0.2422
 1814BOLB   C4D43536  23.310  15.975   9.754 -0.2070  0.0611  0.0675
 1815BOLB   NC143537  22.771  11.399  16.914 -0.1610  0.1830  0.1156
 1815BOLB   PO143538  23.191  11.354  16.748 -0.0418 -0.1794  0.0673
 1815BOLB   GL143539  23.347  11.135  16.413 -0.0630 -0.2815 -0.0973
 1815BOLB   GL243540  23.126  10.980  16.299  0.5156  0.0419  0.0404
 1815BOLB   C1A43541  23.580  10.833  16.146  0.1636 -0.0593  0.2764
 1815BOLB   C2A43542  23.978  10.596  16.197 -0.1597 -0.0950  0.0873
 1815BOLB   C3A43543  24.333  10.459  15.913 -0.3204  0.0702  0.2653
 1815BOLB   C4A43544  24.617  10.148  16.021  0.0527 -0.0293  0.1460
 1815BOLB   C1B43545  23.374  10.672  16.608 -0.1412 -0.0742  0.1785
 1815BOLB   C2B43546  23.702  10.369  16.532 -0.2630  0.0912 -0.1058
 1815BOLB   C3B43547  24.004  10.132  16.217 -0.2365 -0.0839 -0.1777
 1815BOLB   C4B43548  24.061   9.981  15.731 -0.2429 -0.1683 -0.0175
 1815BOLB   NC243549  25.268   7.907  16.936 -0.2348  0.3317 -0.2273
 1815BOLB   PO243550  25.517   8.258  17.206 -0.1966 -0.3543  0.0612
 1815BOLB   GL343551  25.285   8.681  17.213  0.0123  0.0146  0.4670
 1815BOLB   GL443552  25.108   8.657  17.333  0.0696  0.0651 -0.1492
 1815BOLB   C1C43553  25.260   9.141  17.143 -0.1165 -0.0949 -0.1099
 1815BOLB   C2C43554  25.336   9.457  16.914 -0.0456 -0.0420  0.0135
 1815BOLB   C3C43555  25.122   9.812  16.676  0.2615 -0.3836 -0.1300
 1815BOLB   C4C43556  24.912   9.961  16.290  0.1805  0.3130  0.1689
 1815BOLB   C1D43557  24.671   8.486  17.179  0.1317 -0.2790 -0.1341
 1815BOLB   C2D43558  24.382   8.666  16.981  0.3016  0.2227  0.1525
 1815BOLB   C3D43559  24.447   9.047  16.794 -0.1723  0.1206  0.0638
 1815BOLB   C4D43560  24.449   9.286  16.488  0.0300 -0.0132  0.4493
 1816BOLB   NC143561  27.426  12.900  15.606 -0.2884 -0.1414  0.1479
 1816BOLB   PO143562  27.287  12.488  15.867 -0.1960  0.4035  0.2160
 1816BOLB   GL143563  27.216  12.388  15.504 -0.0129 -0.2420  0.0043
 1816BOLB   GL243564  27.060  12.664  15.411 -0.1188 -0.1032 -0.2067
 1816BOLB   C1A43565  27.004  12.241  15.085  0.0793  0.2840  0.3015
 1816BOLB   C2A43566  26.888  12.090  14.782  0.0422  0.2600 -0.0965
 1816BOLB   C3A43567  26.570  11.984  14.543  0.0166  0.5282 -0.0946
 1816BOLB   C4A43568  26.233  11.662  14.690  0.1507  0.3374  0.2574
 1816BOLB   C1B43569  26.738  12.645  15.188 -0.0331  0.0848 -0.0870
 1816BOLB   C2B43570  26.653  12.665  14.752  0.1591 -0.0243  0.0995
 1816BOLB   C3B43571  26.359  12.913  14.466  0.1973 -0.1780  0.0825
 1816BOLB   C4B43572  26.121  13.330  14.492 -0.0948 -0.1098 -0.3031
 1816BOLB   NC243573  27.583  10.556  14.848  0.2058  0.1885 -0.1191
 1816BOLB   PO243574  27.746  10.933  15.279  0.0256  0.1195 -0.0543
 1816BOLB   GL343575  27.325  11.049  15.239 -0.1046  0.1243 -0.0274
 1816BOLB   GL443576  27.419  11.342  15.102  0.2934  0.1126 -0.0172
 1816BOLB   C1C43577  26.999  11.336  15.442 -0.1412 -0.0567 -0.3095
 1816BOLB   C2C43578  26.567  11.417  15.298 -0.0639  0.0334  0.1149
 1816BOLB   C3C43579  26.396  11.178  15.023 -0.1963  0.0238 -0.3571
 1816BOLB   C4C43580  26.306  11.258  14.654 -0.1246  0.0433 -0.0470
 1816BOLB   C1D43581  27.128  11.192  14.686 -0.0776  0.2683  0.1657
 1816BOLB   C2D43582  26.699  10.974  14.671  0.0727 -0.1818  0.0760
 1816BOLB   C3D43583  26.511  10.604  14.775  0.1220  0.0077  0.1846
 1816BOLB   C4D43584  26.282  10.065  14.890  0.2387 -0.0879 -0.0757
 1817BOLB   NC143585  23.675  15.035  13.796  0.0924 -0.3799  0.1246
 1817BOLB   PO143586  23.520  14.628  13.567  0.1917 -0.0893 -0.0779
 1817BOLB   GL143587  23.717  14.351  13.173  0.0453  0.0697 -0.3477
 1817BOLB   GL243588  24.020  14.499  13.246 -0.1437  0.0573 -0.0536
 1817BOLB   C1A43589  23.785  14.013  12.915  0.2142  0.1488 -0.1154
 1817BOLB   C2A43590  23.806  13.803  12.471 -0.4748 -0.2001 -0.1456
 1817BOLB   C3A43591  23.898  13.428  12.142  0.0401 -0.1376 -0.0189
 1817BOLB   C4A43592  24.214  13.404  11.919 -0.1542 -0.0456  0.2182
 1817BOLB   C1B43593  24.245  14.498  12.853  0.0818  0.1908 -0.1444
 1817BOLB   C2B43594  24.610  14.363  12.652 -0.0224  0.1626  0.3903
 1817BOLB   C3B43595  24.807  14.427  12.329 -0.3370  0.1538  0.0656
 1817BOLB   C4B43596  24.787  14.313  11.889  0.0054  0.0185 -0.0903
 1817BOLB   NC243597  25.464  13.842   9.166 -0.1684 -0.1021 -0.1962
 1817BOLB   PO243598  25.221  13.513   9.528  0.1675 -0.1114 -0.0739
 1817BOLB   GL343599  24.929  13.467   9.833  0.1793  0.2411  0.0215
 1817BOLB   GL443600  24.777  13.141  10.085  0.1651 -0.1060  0.0381
 1817BOLB   C1C43601  24.801  13.604  10.295 -0.1465 -0.1545  0.3692
 1817BOLB   C2C43602  24.425  13.517  10.757 -0.0288 -0.0097 -0.0044
 1817BOLB   C3C43603  24.239  13.460  11.109 -0.0700  0.0813  0.3371
 1817BOLB   C4C43604  24.337  13.327  11.540 -0.1107 -0.0550  0.3352
 1817BOLB   C1D43605  24.723  13.090  10.543  0.0952  0.0743 -0.1458
 1817BOLB   C2D43606  24.597  13.134  11.064  0.0025 -0.4158 -0.3507
 1817BOLB   C3D43607  24.008  13.045  11.166 -0.1143  0.0073  0.0002
 1817BOLB   C4D43608  23.570  13.026  11.417  0.2177 -0.0308 -0.1737
 1818BOLB   NC143609  25.872  20.513  13.651  0.0586  0.0316  0.1472
 1818BOLB   PO143610  26.049  20.747  13.256  0.2064  0.0093 -0.1716
 1818BOLB   GL143611  25.676  20.826  13.074 -0.1207  0.0498 -0.1301
 1818BOLB   GL243612  25.430  20.794  13.286 -0.0234 -0.1691  0.2517
 1818BOLB   C1A43613  25.211  20.969  12.871  0.2145 -0.3147  0.0552
 1818BOLB   C2A43614  24.872  20.979  12.525  0.2605  0.4905  0.0838
 1818BOLB   C3A43615  24.753  20.721  12.268 -0.4615 -0.1054  0.2549
 1818BOLB   C4A43616  24.684  20.371  11.959  0.2309 -0.1245  0.2963
 1818BOLB   C1B43617  25.223  20.455  13.075 -0.1799  0.0347  0.0816
 1818BOLB   C2B43618  25.055  20.469  12.653  0.0744 -0.0365 -0.3242
 1818BOLB   C3B43619  25.131  20.245  12.223  0.3465 -0.1565 -0.0724
 1818BOLB   C4B43620  25.148  20.495  11.846  0.1217  0.0770 -0.0130
 1818BOLB   NC243621  26.180  20.515  12.823 -0.0106  0.0013  0.1016
 1818BOLB   PO243622  26.388  20.137  12.945 -0.1531 -0.0929  0.0749
 1818BOLB   GL343623  26.061  20.019  12.630 -0.1573  0.0493  0.1858
 1818BOLB   GL443624  26.166  19.552  12.575 -0.1355 -0.1072 -0.1473
 1818BOLB   C1C43625  25.714  19.919  12.448 -0.2816  0.3939  0.3697
 1818BOLB   C2C43626  25.578  19.932  11.953  0.0884 -0.1851  0.0524
 1818BOLB   C3C43627  25.253  19.958  11.716  0.0374  0.0819 -0.0083
 1818BOLB   C4C43628  24.886  20.034  11.864 -0.0335 -0.1077 -0.1085
 1818BOLB   C1D43629  26.082  19.152  12.835 -0.2613 -0.0818  0.1428
 1818BOLB   C2D43630  25.639  18.948  12.728 -0.2205  0.0301 -0.2136
 1818BOLB   C3D43631  25.312  18.697  12.492  0.1354  0.0507  0.0461
 1818BOLB   C4D43632  24.951  18.658  12.590  0.1779 -0.0398  0.1277
 1819BOLB   NC143633  22.855  15.070  12.963 -0.0521 -0.0569 -0.1840
 1819BOLB   PO143634  22.713  15.393  12.610 -0.1526 -0.3013 -0.1085
 1819BOLB   GL143635  22.814  15.469  12.199  0.0331  0.2373 -0.2113
 1819BOLB   GL243636  23.074  15.256  12.135  0.0230  0.2559  0.2785
 1819BOLB   C1A43637  22.989  15.618  11.864 -0.0721  0.2591 -0.2968
 1819BOLB   C2A43638  23.048  15.520  11.516 -0.0456 -0.1441  0.0079
 1819BOLB   C3A43639  23.250  15.496  11.108 -0.1574  0.3096 -0.0895
 1819BOLB   C4A43640  23.345  15.077  10.971 -0.1766 -0.1415 -0.0335
 1819BOLB   C1B43641  23.149  14.979  11.771  0.3037 -0.1240  0.3357
 1819BOLB   C2B43642  23.216  14.754  11.464 -0.1033 -0.3609  0.0049
 1819BOLB   C3B43643  23.368  14.553  11.059 -0.2396 -0.0988  0.1971
 1819BOLB   C4B43644  23.200  14.350  10.696  0.0198  0.0889  0.0550
 1819BOLB   NC243645  24.313  14.219   8.805  0.0844  0.1250  0.0462
 1819BOLB   PO243646  23.998  14.348   8.616 -0.0376  0.0272  0.0522
 1819BOLB   GL343647  23.774  14.422   9.098  0.1667 -0.0620 -0.2442
 1819BOLB   GL443648  23.928  14.169   9.156 -0.1526 -0.0152 -0.0865
 1819BOLB   C1C43649  23.511  14.203   9.432 -0.0641 -0.0287 -0.1615
 1819BOLB   C2C43650  23.535  14.334   9.891  0.3940 -0.1805 -0.0653
 1819BOLB   C3C43651  23.503  14.557  10.281 -0.0032  0.2336 -0.1741
 1819BOLB   C4C43652  23.497  14.859  10.711  0.0479 -0.1354 -0.0152
 1819BOLB   C1D43653  23.944  14.347   9.566  0.3414  0.2200 -0.0301
 1819BOLB   C2D43654  24.016  14.436  10.010 -0.3534 -0.0592  0.0787
 1819BOLB   C3D43655  23.885  14.342  10.448 -0.1060  0.2170 -0.0981
 1819BOLB   C4D43656  23.906  14.479  10.872 -0.2025  0.2003 -0.0023
 1820BOLB   NC143657  26.998  17.031  12.231 -0.0902  0.1659  0.0598
 1820BOLB   PO143658  27.115  17.045  12.647  0.3000 -0.1877  0.0531
 1820BOLB   GL143659  26.782  17.254  12.693  0.3112 -0.1014  0.1590
 1820BOLB   GL243660  26.623  16.965  12.522 -0.0813 -0.0009  0.2120
 1820BOLB   C1A43661  26.603  17.693  12.777  0.1079  0.2188 -0.1739
 1820BOLB   C2A43662  26.148  17.792  12.812  0.0739 -0.1129 -0.1377
 1820BOLB   C3A43663  25.965  17.808  12.537 -0.5136  0.0812 -0.1398
 1820BOLB   C4A43664  25.622  18.030  12.480  0.0508  0.3123  0.4138
 1820BOLB   C1B43665  26.164  16.920  12.546 -0.3162 -0.0526 -0.0109
 1820BOLB   C2B43666  25.778  16.859  12.570 -0.1210 -0.1217 -0.1847
 1820BOLB   C3B43667  25.489  16.818  12.269 -0.1823 -0.0965  0.1010
 1820BOLB   C4B43668  25.132  16.828  12.033 -0.1361  0.0611  0.3591
 1820BOLB   NC243669  26.889  19.870  11.291 -0.3023  0.1088 -0.3949
 1820BOLB   PO243670  26.850  19.635  11.577  0.3019 -0.2320  0.2419
 1820BOLB   GL343671  26.590  19.286  11.676 -0.1708 -0.1176 -0.0685
 1820BOLB   GL443672  26.695  18.987  11.882  0.3013  0.0242 -0.0965
 1820BOLB   C1C43673  26.290  19.284  11.974  0.2907  0.0042 -0.0208
 1820BOLB   C2C43674  25.974  19.078  12.316 -0.0404 -0.1227 -0.1467
 1820BOLB   C3C43675  25.762  18.693  12.246 -0.2836 -0.3036 -0.0492
 1820BOLB   C4C43676  25.559  18.309  12.132 -0.1044 -0.0937  0.0580
 1820BOLB   C1D43677  26.534  18.736  11.525  0.1458 -0.0630 -0.0816
 1820BOLB   C2D43678  26.160  18.650  11.175 -0.1510 -0.0131 -0.0803
 1820BOLB   C3D43679  25.725  18.603  11.200  0.3075 -0.1660 -0.0867
 1820BOLB   C4D43680  25.400  18.550  11.571  0.0555 -0.2585  0.0195
 1821BOLB   NC143681  21.581   9.956  17.396 -0.4084 -0.0341 -0.2484
 1821BOLB   PO143682  21.203   9.972  17.193 -0.3389 -0.0531  0.1126
 1821BOLB   GL143683  21.295   9.543  17.336  0.2381  0.0787 -0.3352
 1821BOLB   GL243684  21.000   9.294  17.327 -0.1437 -0.0216  0.0645
 1821BOLB   C1A43685  21.516   9.081  17.234  0.2480  0.0771  0.0629
 1821BOLB   C2A43686  21.846   8.770  17.327  0.1020  0.0311  0.0497
 1821BOLB   C3A43687  22.111   8.433  17.468 -0.0231 -0.1259 -0.2736
 1821BOLB   C4A43688  22.373   8.126  17.456 -0.2923  0.2083  0.2863
 1821BOLB   C1B43689  20.947   8.824  17.166 -0.2683 -0.2586 -0.0516
 1821BOLB   C2B43690  21.216   8.392  17.245 -0.1478 -0.2233  0.4102
 1821BOLB   C3B43691  21.671   8.155  17.221 -0.3130  0.0486  0.0000
 1821BOLB   C4B43692  21.920   7.903  17.383  0.2469 -0.1295  0.2112
 1821BOLB   NC243693  23.334   6.356  15.571  0.0097  0.1253 -0.3010
 1821BOLB   PO243694  23.170   6.665  15.792 -0.0912 -0.0398 -0.2685
 1821BOLB   GL343695  22.958   6.940  16.008 -0.4400 -0.2607 -0.0147
 1821BOLB   GL443696  22.588   6.768  15.746  0.2110 -0.0163  0.0501
 1821BOLB   C1C43697  22.891   7.270  16.277  0.3105  0.0349 -0.3305
 1821BOLB   C2C43698  22.600   7.312  16.597  0.1104  0.2146  0.0710
 1821BOLB   C3C43699  22.425   7.552  16.812 -0.2045 -0.1555 -0.0434
 1821BOLB   C4C43700  22.340   7.702  17.233 -0.1635  0.1271  0.2558
 1821BOLB   C1D43701  22.626   7.197  15.613  0.3628  0.1016 -0.0685
 1821BOLB   C2D43702  22.720   7.495  15.251  0.0754 -0.1273 -0.1102
 1821BOLB   C3D43703  22.783   7.684  14.853  0.2146 -0.1019  0.0974
 1821BOLB   C4D43704  22.596   7.988  14.636  0.0376  0.3370  0.1432
 1822BOLB   NC143705  20.182   9.701  17.050  0.1820  0.2655 -0.5813
 1822BOLB   PO143706  19.932   9.721  16.530 -0.2701  0.0290  0.1077
 1822BOLB   GL143707  20.404   9.518  16.617 -0.0896 -0.1902  0.1693
 1822BOLB   GL243708  20.209   9.150  16.696  0.0606  0.0954 -0.2216
 1822BOLB   C1A43709  20.662   9.192  16.735  0.1758  0.2728 -0.1747
 1822BOLB   C2A43710  20.798   8.836  16.625  0.1013  0.2367  0.1768
 1822BOLB   C3A43711  21.057   8.502  16.764  0.0261  0.3982  0.0864
 1822BOLB   C4A43712  21.352   8.163  16.821  0.1631  0.0696 -0.3192
 1822BOLB   C1B43713  20.214   8.684  16.605 -0.0469  0.2813 -0.5644
 1822BOLB   C2B43714  20.379   8.239  16.658 -0.2740  0.3936  0.2095
 1822BOLB   C3B43715  20.443   7.745  16.794 -0.1143  0.1789  0.0339
 1822BOLB   C4B43716  20.689   7.491  16.741 -0.2075 -0.2225 -0.1288
 1822BOLB   NC243717  22.351   6.098  18.346  0.0782 -0.0204 -0.1062
 1822BOLB   PO243718  22.215   6.088  17.846  0.0844 -0.0254 -0.2924
 1822BOLB   GL343719  21.886   6.278  17.729 -0.3942 -0.2126  0.0599
 1822BOLB   GL443720  21.990   6.344  17.433  0.1035 -0.2432 -0.0580
 1822BOLB   C1C43721  21.826   6.745  17.678  0.1461 -0.0876  0.2162
 1822BOLB   C2C43722  21.587   7.069  17.475  0.2208 -0.0540  0.0283
 1822BOLB   C3C43723  21.474   7.407  17.213  0.1049  0.1245 -0.1861
 1822BOLB   C4C43724  21.444   7.760  16.937 -0.1415 -0.0668 -0.2467
 1822BOLB   C1D43725  21.615   6.215  17.096  0.1412 -0.4102 -0.3373
 1822BOLB   C2D43726  21.243   6.428  16.939 -0.0625 -0.1030 -0.0008
 1822BOLB   C3D43727  20.952   6.591  16.811 -0.0264  0.2206  0.3233
 1822BOLB   C4D43728  20.696   6.981  16.789  0.0856  0.1457  0.0985
 1823DOPG   GL043729   5.589  14.623  19.061  0.0822 -0.3158  0.1650
 1823DOPG   PO443730   5.580  14.779  18.685  0.2248  0.1544 -0.0231
 1823DOPG   GL143731   5.730  14.260  18.743 -0.4783 -0.3432 -0.2028
 1823DOPG   GL243732   5.909  14.367  18.493  0.2762 -0.1265 -0.0439
 1823DOPG   C1A43733   6.041  13.942  18.678  0.3077  0.3458 -0.2752
 1823DOPG   D2A43734   6.418  13.861  18.726 -0.1112 -0.0320 -0.0167
 1823DOPG   C3A43735   6.711  14.112  18.603 -0.1279  0.0517 -0.1040
 1823DOPG   C4A43736   6.989  14.373  18.435  0.1509  0.2100 -0.0037
 1823DOPG   C1B43737   6.299  14.495  18.363 -0.1456  0.2561  0.1848
 1823DOPG   D2B43738   6.585  14.731  18.644 -0.3050 -0.1733  0.3624
 1823DOPG   C3B43739   6.756  15.119  18.569  0.1168 -0.1696 -0.2030
 1823DOPG   C4B43740   6.673  15.530  18.583 -0.0017  0.1046 -0.0745
 1824DOPG   GL043741   4.999  16.133  18.779  0.1783  0.0223  0.3538
 1824DOPG   PO443742   5.205  16.192  18.329 -0.1046  0.2909  0.0613
 1824DOPG   GL143743   5.101  16.604  18.112 -0.2816 -0.2703 -0.2898
 1824DOPG   GL243744   5.151  16.479  17.779 -0.2070  0.0368  0.0971
 1824DOPG   C1A43745   5.018  16.919  18.036 -0.0648  0.0386 -0.0661
 1824DOPG   D2A43746   4.805  17.293  17.935  0.2052 -0.0143  0.0655
 1824DOPG   C3A43747   4.441  17.144  18.021  0.2419  0.1008  0.4218
 1824DOPG   C4A43748   4.186  16.811  17.800  0.0784  0.1962  0.0596
 1824DOPG   C1B43749   5.535  16.703  17.778  0.2092  0.1707 -0.1190
 1824DOPG   D2B43750   5.788  16.979  17.631  0.1943 -0.4031 -0.0150
 1824DOPG   C3B43751   5.698  17.397  17.401  0.0971  0.0300  0.3042
 1824DOPG   C4B43752   5.530  17.440  16.994  0.1182  0.0798 -0.0295
 1825DOPG   GL043753   3.835  19.793  16.662  0.4198  0.2488  0.0805
 1825DOPG   PO443754   3.790  19.358  16.839 -0.0967  0.0694  0.1977
 1825DOPG   GL143755   4.119  19.085  16.893  0.2073 -0.3833 -0.1975
 1825DOPG   GL243756   4.090  18.793  16.690  0.0687  0.1684 -0.0288
 1825DOPG   C1A43757   4.378  18.806  17.120 -0.0565 -0.1975  0.1692
 1825DOPG   D2A43758   4.667  18.484  17.302 -0.2028  0.3433 -0.0989
 1825DOPG   C3A43759   4.780  18.214  17.770 -0.0538 -0.2917  0.1587
 1825DOPG   C4A43760   4.389  18.040  17.969  0.2085 -0.1386  0.2601
 1825DOPG   C1B43761   4.566  18.737  16.658 -0.0106  0.3314 -0.1522
 1825DOPG   D2B43762   4.979  18.882  16.740  0.1812 -0.0396  0.2708
 1825DOPG   C3B43763   5.147  18.542  16.590  0.2056  0.1787 -0.4625
 1825DOPG   C4B43764   5.066  18.172  16.296 -0.1089 -0.2992 -0.0401
 1826DOPG   GL043765   5.417  16.650  19.328  0.3158  0.4003 -0.0072
 1826DOPG   PO443766   5.487  16.986  18.970  0.1250  0.2579 -0.2491
 1826DOPG   GL143767   5.324  17.126  18.702  0.2016  0.0602 -0.0414
 1826DOPG   GL243768   4.975  17.004  18.641  0.1017  0.2026  0.2314
 1826DOPG   C1A43769   5.383  17.257  18.234  0.0195 -0.0346 -0.0967
 1826DOPG   D2A43770   5.297  17.258  17.819 -0.5579 -0.3078  0.5369
 1826DOPG   C3A43771   5.228  17.001  17.521  0.0642 -0.3211 -0.0548
 1826DOPG   C4A43772   5.037  16.705  17.330  0.0879  0.1614 -0.0754
 1826DOPG   C1B43773   5.015  17.498  18.498  0.0426  0.1986  0.0686
 1826DOPG   D2B43774   4.781  17.700  18.191  0.0974  0.0794  0.0901
 1826DOPG   C3B43775   5.108  17.865  17.836  0.1874  0.1746 -0.1886
 1826DOPG   C4B43776   5.500  17.723  17.693  0.2326 -0.2378  0.0257
 1827DOPG   GL043777   3.688  19.603  18.220  0.0585  0.3587 -0.2386
 1827DOPG   PO443778   3.887  19.232  18.444  0.1520  0.1604  0.0085
 1827DOPG   GL143779   3.838  18.789  18.549 -0.0893  0.2040  0.1997
 1827DOPG   GL243780   3.696  18.539  18.374 -0.3287  0.0972  0.1521
 1827DOPG   C1A43781   4.257  18.676  18.555  0.3682 -0.0390 -0.0133
 1827DOPG   D2A43782   4.697  18.659  18.795 -0.0281  0.3011 -0.1808
 1827DOPG   C3A43783   4.686  18.379  19.131 -0.1605  0.0854  0.1685
 1827DOPG   C4A43784   4.900  18.011  19.278 -0.0839 -0.0063 -0.2946
 1827DOPG   C1B43785   4.054  18.491  18.157 -0.1225 -0.0077  0.1797
 1827DOPG   D2B43786   4.270  18.661  17.657  0.0105 -0.1169  0.0404
 1827DOPG   C3B43787   4.624  18.881  17.639 -0.0799 -0.1294 -0.1599
 1827DOPG   C4B43788   4.935  19.030  17.398 -0.0658  0.0787 -0.0385
 1828DOPG   GL043789   6.117  10.658  18.341  0.0738  0.2129 -0.0407
 1828DOPG   PO443790   6.177  10.848  18.770 -0.0182 -0.2393  0.0923
 1828DOPG   GL143791   6.489  10.994  18.367 -0.2641  0.0627  0.1432
 1828DOPG   GL243792   6.629  10.677  18.198 -0.0128  0.1410 -0.3118
 1828DOPG   C1A43793   6.823  11.319  18.537 -0.3685  0.2620  0.1080
 1828DOPG   D2A43794   7.222  11.524  18.682 -0.0314  0.1323  0.0454
 1828DOPG   C3A43795   7.155  11.897  18.469  0.0736 -0.2453  0.1126
 1828DOPG   C4A43796   7.301  12.218  18.185 -0.2020 -0.1007  0.2844
 1828DOPG   C1B43797   6.995  10.976  18.144 -0.0551 -0.0322  0.0148
 1828DOPG   D2B43798   7.188  11.384  18.184  0.2203 -0.0408 -0.0262
 1828DOPG   C3B43799   7.263  11.739  18.033  0.1546 -0.1010 -0.1920
 1828DOPG   C4B43800   7.076  12.040  17.810  0.1365  0.1861  0.0849
 1829DOPG   GL043801   6.498  17.446  20.102  0.1049  0.1399  0.1131
 1829DOPG   PO443802   6.464  17.673  19.663  0.0131 -0.0265 -0.0329
 1829DOPG   GL143803   6.694  18.045  19.593 -0.0725 -0.0479  0.0120
 1829DOPG   GL243804   6.485  18.343  19.553  0.1135  0.0437  0.1266
 1829DOPG   C1A43805   6.908  18.260  19.281  0.1291  0.2987 -0.0749
 1829DOPG   D2A43806   6.645  18.730  19.333 -0.0366 -0.2698  0.1513
 1829DOPG   C3A43807   6.334  19.012  19.478  0.1361  0.0138  0.0439
 1829DOPG   C4A43808   6.125  19.318  19.727 -0.0580 -0.0621  0.1167
 1829DOPG   C1B43809   6.540  18.618  19.896 -0.0201 -0.0021 -0.1333
 1829DOPG   D2B43810   6.905  18.881  20.127  0.1169  0.0489  0.3875
 1829DOPG   C3B43811   6.901  19.301  20.039  0.0920  0.0082  0.1285
 1829DOPG   C4B43812   6.657  19.604  20.126  0.3515  0.1058 -0.0936
 1830DOPG   GL043813   5.195  15.336  16.553 -0.0168 -0.0450  0.1905
 1830DOPG   PO443814   5.347  14.989  16.560  0.0830 -0.0986  0.0416
 1830DOPG   GL143815   5.700  15.021  16.810 -0.1988 -0.1846 -0.4455
 1830DOPG   GL243816   5.695  15.145  17.229 -0.1064  0.2110  0.0867
 1830DOPG   C1A43817   6.190  14.898  16.894 -0.0039 -0.0742  0.0160
 1830DOPG   D2A43818   6.612  15.018  17.096  0.0926  0.1802  0.1117
 1830DOPG   C3A43819   6.564  15.126  17.440  0.0358 -0.0588  0.0649
 1830DOPG   C4A43820   6.431  15.359  17.797 -0.1634  0.1635  0.1667
 1830DOPG   C1B43821   6.084  15.347  17.297 -0.0791  0.0457 -0.2235
 1830DOPG   D2B43822   6.359  15.646  17.410 -0.1576  0.0900 -0.3401
 1830DOPG   C3B43823   6.852  15.527  17.499  0.0893  0.0338  0.2540
 1830DOPG   C4B43824   7.201  15.452  17.587 -0.1239 -0.1144 -0.0924
 1831DOPG   GL043825   6.008  16.164  18.973 -0.2754  0.0934  0.0196
 1831DOPG   PO443826   5.664  16.464  18.936 -0.1155  0.3244 -0.2003
 1831DOPG   GL143827   5.872  16.769  18.696 -0.0566  0.1394  0.2227
 1831DOPG   GL243828   6.139  16.928  18.606  0.1373  0.2423 -0.2706
 1831DOPG   C1A43829   5.851  17.320  18.526 -0.1024 -0.1634  0.2156
 1831DOPG   D2A43830   5.958  17.839  18.518 -0.0142 -0.1481  0.1583
 1831DOPG   C3A43831   6.140  18.136  18.755 -0.1334 -0.1509 -0.2941
 1831DOPG   C4A43832   6.330  18.417  18.972 -0.1167 -0.0512 -0.3347
 1831DOPG   C1B43833   6.359  16.710  18.275 -0.0799 -0.2551 -0.4124
 1831DOPG   D2B43834   6.534  16.889  17.898  0.0125  0.0611 -0.1462
 1831DOPG   C3B43835   6.413  17.241  17.854  0.0475  0.2817  0.0081
 1831DOPG   C4B43836   6.167  17.470  17.572 -0.2840 -0.1427 -0.0887
 1832DOPG   GL043837   4.560  15.171  17.903  0.0971 -0.0578  0.2588
 1832DOPG   PO443838   4.956  14.894  17.794  0.0055  0.0766 -0.0032
 1832DOPG   GL143839   5.354  14.700  17.848  0.2389  0.2722  0.0651
 1832DOPG   GL243840   5.535  14.666  18.171  0.1041 -0.2466  0.2770
 1832DOPG   C1A43841   5.765  14.763  17.564  0.1795  0.0198  0.0466
 1832DOPG   D2A43842   6.208  14.785  17.653  0.1558 -0.1418  0.2038
 1832DOPG   C3A43843   6.504  14.605  17.393 -0.0300 -0.1830  0.4371
 1832DOPG   C4A43844   6.965  14.646  17.399 -0.2775 -0.4138 -0.0289
 1832DOPG   C1B43845   5.971  14.600  18.055  0.2074 -0.1444  0.3781
 1832DOPG   D2B43846   6.236  14.274  17.685  0.1236  0.0839  0.0643
 1832DOPG   C3B43847   6.525  13.926  17.661 -0.0132  0.1840 -0.0099
 1832DOPG   C4B43848   6.807  13.740  17.946  0.1425  0.0200  0.0075
 1833DOPG   GL043849   5.521  11.831  18.736 -0.1268 -0.3464  0.0561
 1833DOPG   PO443850   5.891  11.803  18.582  0.0780  0.0120  0.0029
 1833DOPG   GL143851   6.040  12.000  18.199  0.0201 -0.1875 -0.0040
 1833DOPG   GL243852   6.162  11.835  17.982  0.0667  0.2013  0.1645
 1833DOPG   C1A43853   6.097  12.401  18.028 -0.0907  0.0323 -0.1673
 1833DOPG   D2A43854   5.993  12.482  17.601 -0.0299  0.0417  0.0613
 1833DOPG   C3A43855   6.283  12.670  17.333 -0.1179  0.3402  0.1177
 1833DOPG   C4A43856   6.737  12.735  17.452 -0.0968 -0.0561  0.0377
 1833DOPG   C1B43857   6.341  12.145  17.654 -0.1435 -0.1955 -0.0397
 1833DOPG   D2B43858   6.657  12.219  17.440  0.2300 -0.1668 -0.2542
 1833DOPG   C3B43859   7.002  11.990  17.304  0.3863 -0.1951  0.1240
 1833DOPG   C4B43860   7.337  11.721  17.470  0.2039  0.0721 -0.0851
 1834DOPG   GL043861   2.766  19.009  18.622 -0.2785 -0.0951 -0.0555
 1834DOPG   PO443862   3.070  19.003  18.861  0.1103 -0.0989  0.1152
 1834DOPG   GL143863   3.503  18.863  19.001  0.3323 -0.3033  0.0648
 1834DOPG   GL243864   3.632  18.564  18.953 -0.0248  0.4780  0.0718
 1834DOPG   C1A43865   3.955  18.995  19.107 -0.1439  0.0473 -0.0727
 1834DOPG   D2A43866   4.237  18.749  19.080  0.2498  0.0658 -0.2903
 1834DOPG   C3A43867   4.133  18.405  18.995 -0.1869 -0.3089 -0.0564
 1834DOPG   C4A43868   3.856  18.099  19.047  0.2035 -0.2377 -0.6863
 1834DOPG   C1B43869   3.766  18.592  19.356 -0.0083 -0.2993 -0.0117
 1834DOPG   D2B43870   4.073  18.657  19.658 -0.0843  0.0292  0.1862
 1834DOPG   C3B43871   4.380  18.415  19.579 -0.0061 -0.0569 -0.0916
 1834DOPG   C4B43872   4.559  18.035  19.670  0.0137  0.2426 -0.2364
 1835DOPG   GL043873   8.699  21.231  21.694 -0.0988 -0.0852  0.1633
 1835DOPG   PO443874   8.904  21.371  22.124 -0.0728 -0.0187 -0.1717
 1835DOPG   GL143875   8.561  21.260  22.343 -0.0021  0.1498  0.3449
 1835DOPG   GL243876   8.232  21.112  22.384  0.0637 -0.0454  0.0050
 1835DOPG   C1A43877   8.489  21.356  22.828 -0.3799  0.0699  0.0996
 1835DOPG   D2A43878   8.237  21.158  23.125  0.3532 -0.0300 -0.1665
 1835DOPG   C3A43879   7.940  21.054  22.858 -0.2012 -0.0315  0.2187
 1835DOPG   C4A43880   7.552  21.251  22.701  0.4015  0.0536  0.0694
 1835DOPG   C1B43881   8.019  21.475  22.276  0.3044  0.1549 -0.0384
 1835DOPG   D2B43882   7.830  21.773  21.869  0.1724 -0.0663 -0.0549
 1835DOPG   C3B43883   7.504  21.984  22.039 -0.0990  0.0977 -0.0690
 1835DOPG   C4B43884   7.247  22.264  22.293  0.0320  0.1499  0.0175
 1836DOPG   GL043885   4.694  14.026  16.796  0.1040  0.0475  0.2300
 1836DOPG   PO443886   5.094  14.118  16.987  0.3319 -0.0863 -0.0793
 1836DOPG   GL143887   5.422  13.773  16.990  0.0388  0.2732 -0.2294
 1836DOPG   GL243888   5.572  13.760  17.360  0.0164  0.1037 -0.1840
 1836DOPG   C1A43889   5.660  13.350  17.059  0.0158  0.1602 -0.0405
 1836DOPG   D2A43890   5.826  12.954  16.751 -0.4403  0.1393  0.1193
 1836DOPG   C3A43891   6.082  12.577  16.881  0.1441 -0.1095 -0.2338
 1836DOPG   C4A43892   6.088  12.181  17.086  0.0337  0.0784 -0.2741
 1836DOPG   C1B43893   5.874  13.980  17.092  0.1270 -0.0504  0.3296
 1836DOPG   D2B43894   6.231  14.129  16.872 -0.1977 -0.0665 -0.1279
 1836DOPG   C3B43895   6.626  14.173  17.159  0.0224 -0.1343  0.1480
 1836DOPG   C4B43896   7.075  14.108  17.327 -0.0671  0.0964 -0.3033
 1837DOPG   GL043897   3.705  18.914  18.077 -0.2443 -0.0248 -0.1798
 1837DOPG   PO443898   3.263  18.748  18.084  0.3577 -0.0923  0.1298
 1837DOPG   GL143899   3.625  18.490  17.890  0.0441 -0.2381 -0.0238
 1837DOPG   GL243900   3.422  18.241  17.934  0.1356 -0.1494  0.0424
 1837DOPG   C1A43901   3.951  18.282  17.697  0.0094 -0.0294 -0.0296
 1837DOPG   D2A43902   4.316  18.099  17.515 -0.1524  0.0318  0.1549
 1837DOPG   C3A43903   4.461  17.681  17.485 -0.1306  0.2116 -0.2551
 1837DOPG   C4A43904   4.371  17.434  17.203 -0.0356 -0.0296 -0.2002
 1837DOPG   C1B43905   3.663  18.056  18.151  0.0326 -0.1355 -0.1427
 1837DOPG   D2B43906   3.944  18.090  18.460  0.2990 -0.0010  0.0156
 1837DOPG   C3B43907   4.176  17.915  18.725 -0.1156 -0.3158 -0.2385
 1837DOPG   C4B43908   4.366  17.929  19.129 -0.2444  0.0810  0.1034
 1838DOPG   GL043909   3.687  19.576  19.421  0.5623 -0.0283  0.2284
 1838DOPG   PO443910   3.972  19.974  19.287 -0.0297  0.0082  0.3236
 1838DOPG   GL143911   4.170  19.566  19.241  0.0287  0.3357 -0.2023
 1838DOPG   GL243912   4.442  19.653  19.159 -0.0748  0.0282 -0.1189
 1838DOPG   C1A43913   4.410  19.196  19.412  0.1078 -0.2076  0.4414
 1838DOPG   D2A43914   4.659  18.808  19.334 -0.0607 -0.0145 -0.2801
 1838DOPG   C3A43915   4.930  18.705  19.667  0.2296  0.1505 -0.0589
 1838DOPG   C4A43916   5.086  18.586  20.117 -0.4226  0.1556 -0.1931
 1838DOPG   C1B43917   4.644  19.764  19.554  0.1280 -0.0859 -0.0864
 1838DOPG   D2B43918   4.822  19.551  20.029 -0.1962 -0.1047  0.2035
 1838DOPG   C3B43919   5.227  19.539  20.186 -0.3547 -0.1415 -0.0409
 1838DOPG   C4B43920   5.589  19.302  20.361  0.1902 -0.1793  0.2525
 1839DOPG   GL043921   6.099  14.934  20.258  0.2764 -0.0243  0.1774
 1839DOPG   PO443922   6.269  14.635  20.078  0.0962  0.2535  0.0793
 1839DOPG   GL143923   6.189  14.962  19.712 -0.0509  0.0872  0.1293
 1839DOPG   GL243924   6.044  14.943  19.401  0.1667  0.2261  0.0162
 1839DOPG   C1A43925   6.500  15.069  19.280 -0.1660  0.3050 -0.0700
 1839DOPG   D2A43926   6.870  15.147  19.143 -0.0509  0.0101  0.1221
 1839DOPG   C3A43927   7.081  15.469  19.344 -0.3411 -0.1794  0.1236
 1839DOPG   C4A43928   7.240  15.600  19.773  0.1850 -0.3055  0.1622
 1839DOPG   C1B43929   6.147  14.894  19.032 -0.2673 -0.3553  0.0034
 1839DOPG   D2B43930   6.044  14.889  18.597 -0.1168 -0.3538 -0.1663
 1839DOPG   C3B43931   6.253  15.026  18.259 -0.0803  0.0458  0.3115
 1839DOPG   C4B43932   6.645  14.961  18.064 -0.1357  0.1549  0.2354
 1840DOPG   GL043933   5.118  13.595  17.411  0.3682 -0.2596  0.0474
 1840DOPG   PO443934   5.166  13.347  17.722 -0.4799 -0.1242  0.2067
 1840DOPG   GL143935   5.444  13.770  17.797 -0.0049 -0.1879  0.0155
 1840DOPG   GL243936   5.510  14.084  17.928  0.4282  0.5472  0.1772
 1840DOPG   C1A43937   5.770  14.201  17.545  0.0022  0.0671  0.1830
 1840DOPG   D2A43938   6.064  14.435  17.224 -0.0067 -0.1361  0.2156
 1840DOPG   C3A43939   6.458  14.551  16.873  0.0271 -0.0146  0.1023
 1840DOPG   C4A43940   6.756  14.712  16.622 -0.0120 -0.3440  0.0151
 1840DOPG   C1B43941   5.943  13.684  17.877  0.2283 -0.4096 -0.1412
 1840DOPG   D2B43942   6.331  13.494  17.735  0.1297 -0.1887 -0.1209
 1840DOPG   C3B43943   6.401  13.177  17.397  0.1117  0.1406  0.1094
 1840DOPG   C4B43944   6.232  13.083  16.961 -0.0444 -0.4024  0.1706
 1841DOPG   GL043945   8.556  14.023  16.770 -0.1002 -0.1337 -0.0923
 1841DOPG   PO443946   8.263  14.312  16.742 -0.3305 -0.2034  0.1471
 1841DOPG   GL143947   7.959  14.140  16.832 -0.0144 -0.0102  0.1356
 1841DOPG   GL243948   7.737  14.109  16.587  0.0220  0.0985  0.0632
 1841DOPG   C1A43949   7.853  14.093  17.157 -0.5108  0.2994  0.0261
 1841DOPG   D2A43950   7.782  14.431  17.500  0.1966 -0.1064 -0.1924
 1841DOPG   C3A43951   7.417  14.470  17.620  0.2749  0.0085  0.0768
 1841DOPG   C4A43952   7.401  14.557  18.137 -0.1361 -0.2207  0.1627
 1841DOPG   C1B43953   7.478  14.436  16.575  0.0765 -0.2969 -0.2030
 1841DOPG   D2B43954   7.214  14.702  16.456  0.0607 -0.3103  0.1633
 1841DOPG   C3B43955   7.043  15.133  16.527  0.0940  0.0357  0.0701
 1841DOPG   C4B43956   6.796  15.494  16.177  0.0924 -0.1776  0.1865
 1842DOPG   GL043957   4.351  19.726  16.355 -0.2106  0.0416  0.1038
 1842DOPG   PO443958   4.712  19.974  16.633 -0.1355  0.2037 -0.3676
 1842DOPG   GL143959   5.103  19.911  16.814  0.1230 -0.1218  0.1563
 1842DOPG   GL243960   5.347  20.110  16.929 -0.2889  0.3165  0.2020
 1842DOPG   C1A43961   5.255  19.601  17.002 -0.4328 -0.0654  0.1861
 1842DOPG   D2A43962   5.452  19.161  17.093 -0.3497  0.4962 -0.0574
 1842DOPG   C3A43963   5.423  18.738  16.948  0.1108  0.1506 -0.1557
 1842DOPG   C4A43964   5.539  18.270  16.953  0.3812 -0.3021 -0.0047
 1842DOPG   C1B43965   5.713  19.742  16.764  0.1909 -0.0596  0.3898
 1842DOPG   D2B43966   5.921  19.452  17.110 -0.0033 -0.2819  0.3162
 1842DOPG   C3B43967   6.186  19.093  17.004 -0.1131  0.3589  0.0135
 1842DOPG   C4B43968   6.219  18.951  16.501  0.5553  0.0109  0.0741
 1843DOPG   GL043969   8.495  14.843  17.317 -0.0853 -0.0863  0.2011
 1843DOPG   PO443970   8.152  14.851  17.438  0.0074 -0.2657  0.2029
 1843DOPG   GL143971   7.775  15.109  17.284 -0.0396  0.1155 -0.1084
 1843DOPG   GL243972   7.617  14.896  17.305  0.0295 -0.0459  0.2609
 1843DOPG   C1A43973   7.599  15.535  17.314  0.2258  0.1501  0.4966
 1843DOPG   D2A43974   7.161  15.648  17.131 -0.1020  0.0557 -0.1958
 1843DOPG   C3A43975   6.870  15.938  17.098  0.1435 -0.1653 -0.0678
 1843DOPG   C4A43976   6.485  16.140  17.037 -0.3413 -0.2092 -0.1264
 1843DOPG   C1B43977   7.519  14.447  17.063  0.1728  0.2290 -0.4328
 1843DOPG   D2B43978   7.355  14.063  16.940 -0.0637 -0.2010 -0.1980
 1843DOPG   C3B43979   7.337  13.786  16.530  0.1589 -0.0466 -0.1571
 1843DOPG   C4B43980   7.074  13.371  16.418 -0.3198 -0.3983  0.1804
 1844DOPG   GL043981   9.076  13.438  17.222  0.2704 -0.0645 -0.0554
 1844DOPG   PO443982   8.664  13.766  17.233  0.0853  0.0219 -0.0142
 1844DOPG   GL143983   8.288  13.842  17.238  0.0960  0.1985  0.1027
 1844DOPG   GL243984   8.235  13.662  16.966  0.1696  0.0602 -0.1672
 1844DOPG   C1A43985   7.864  13.636  17.359 -0.1066  0.1043  0.1462
 1844DOPG   D2A43986   7.455  13.738  17.464 -0.1419 -0.4672 -0.2404
 1844DOPG   C3A43987   7.221  13.588  17.738 -0.1323  0.2200 -0.2143
 1844DOPG   C4A43988   7.139  13.336  18.124  0.0776 -0.0456 -0.1385
 1844DOPG   C1B43989   8.073  13.217  17.097 -0.1606 -0.0770  0.4956
 1844DOPG   D2B43990   7.668  13.083  17.065 -0.0714 -0.1141 -0.0529
 1844DOPG   C3B43991   7.627  12.720  16.841 -0.1778  0.2660  0.0931
 1844DOPG   C4B43992   7.382  12.589  16.497 -0.1101 -0.0182 -0.1598
 1845DOPG   GL043993   8.950  17.419  17.775  0.0451 -0.0268 -0.1880
 1845DOPG   PO443994   8.550  17.109  17.962  0.2252 -0.1600 -0.1357
 1845DOPG   GL143995   8.162  17.263  17.915  0.0512 -0.0237 -0.0691
 1845DOPG   GL243996   8.014  17.576  17.980  0.1197 -0.0559  0.2872
 1845DOPG   C1A43997   7.731  17.133  17.814  0.2372  0.5238 -0.3412
 1845DOPG   D2A43998   7.387  17.223  17.816 -0.2548  0.1370 -0.2192
 1845DOPG   C3A43999   7.116  16.933  18.027  0.0294  0.2825  0.2344
 1845DOPG   C4A44000   6.777  17.011  18.390  0.2467  0.1319  0.4128
 1845DOPG   C1B44001   7.610  17.511  18.197 -0.2411  0.0481 -0.2192
 1845DOPG   D2B44002   7.220  17.499  18.440 -0.0309  0.0321  0.2097
 1845DOPG   C3B44003   7.215  17.024  18.599  0.1081  0.0327  0.0443
 1845DOPG   C4B44004   6.953  16.548  18.492  0.1484  0.0451  0.1700
 1846DOPG   GL044005   5.256  20.487  17.302 -0.1622 -0.3418 -0.0438
 1846DOPG   PO444006   5.492  20.442  17.629 -0.2836  0.1627  0.2477
 1846DOPG   GL144007   5.609  20.051  17.360  0.1139  0.1980 -0.0035
 1846DOPG   GL244008   5.845  19.972  17.537  0.1933  0.1302 -0.2009
 1846DOPG   C1A44009   5.531  19.523  17.417  0.1089  0.0548 -0.2393
 1846DOPG   D2A44010   5.493  19.102  17.629  0.1316  0.2772 -0.1261
 1846DOPG   C3A44011   5.330  18.763  17.428 -0.0059  0.2405 -0.0738
 1846DOPG   C4A44012   5.253  18.347  17.537 -0.0773  0.0879  0.1748
 1846DOPG   C1B44013   5.922  19.577  17.686  0.1310 -0.0278 -0.2347
 1846DOPG   D2B44014   6.031  19.097  17.589  0.2874  0.1892 -0.1034
 1846DOPG   C3B44015   5.816  18.802  17.305 -0.1373 -0.0128  0.0971
 1846DOPG   C4B44016   5.885  18.743  16.912 -0.1754 -0.2541  0.3565
 1847DOPG   GL044017   9.210  17.924  17.830 -0.0245  0.2094 -0.0471
 1847DOPG   PO444018   8.944  17.868  18.122  0.3345  0.0705  0.0686
 1847DOPG   GL144019   8.649  17.773  18.451 -0.3291 -0.0755  0.2014
 1847DOPG   GL244020   8.772  17.676  18.765 -0.0048  0.0734  0.2313
 1847DOPG   C1A44021   8.343  17.867  18.817 -0.1715 -0.1574  0.0959
 1847DOPG   D2A44022   8.138  17.723  19.143  0.0866  0.1172 -0.0825
 1847DOPG   C3A44023   7.815  17.594  19.211 -0.4404  0.1245 -0.3081
 1847DOPG   C4A44024   7.581  17.262  19.358 -0.1745  0.0465 -0.0155
 1847DOPG   C1B44025   9.067  17.460  18.968  0.3029 -0.0546  0.1984
 1847DOPG   D2B44026   9.514  17.455  19.146  0.2807 -0.3193 -0.0990
 1847DOPG   C3B44027   9.644  17.105  19.373 -0.0403  0.1590 -0.4929
 1847DOPG   C4B44028   9.862  16.786  19.793 -0.0082  0.3104  0.1622
 1848DOPG   GL044029   7.919  14.616  16.919 -0.0433 -0.0906 -0.4373
 1848DOPG   PO444030   7.964  15.005  16.813 -0.1281  0.0683 -0.0137
 1848DOPG   GL144031   7.507  14.963  16.793  0.1068  0.1923  0.0524
 1848DOPG   GL244032   7.390  15.233  16.897 -0.0516  0.0339 -0.1028
 1848DOPG   C1A44033   7.153  14.759  16.979  0.4416  0.0206  0.1781
 1848DOPG   D2A44034   6.945  14.341  16.873 -0.0234 -0.2170 -0.0288
 1848DOPG   C3A44035   7.102  14.155  16.450  0.0719  0.4111  0.4088
 1848DOPG   C4A44036   7.436  14.229  16.130 -0.1470  0.1092  0.0138
 1848DOPG   C1B44037   7.061  15.135  17.263  0.0658  0.2198  0.1734
 1848DOPG   D2B44038   6.969  15.065  17.743 -0.5258 -0.0441  0.1817
 1848DOPG   C3B44039   6.718  14.594  17.803 -0.3322 -0.0008 -0.3670
 1848DOPG   C4B44040   6.661  14.289  18.037  0.0102 -0.2349 -0.0114
 1849DOPG   GL044041   8.386  17.546  17.027 -0.3134 -0.2487  0.0727
 1849DOPG   PO444042   7.963  17.725  17.092  0.0642 -0.0575  0.2507
 1849DOPG   GL144043   7.629  17.466  17.402 -0.0275  0.2630  0.0109
 1849DOPG   GL244044   7.587  17.121  17.329 -0.0471  0.1734 -0.1041
 1849DOPG   C1A44045   7.291  17.714  17.775 -0.0720  0.0278  0.2814
 1849DOPG   D2A44046   6.909  17.933  18.065 -0.1534 -0.0154  0.3069
 1849DOPG   C3A44047   6.630  17.647  18.346  0.0780  0.0892 -0.1963
 1849DOPG   C4A44048   6.285  17.343  18.338  0.0087 -0.0205 -0.0999
 1849DOPG   C1B44049   7.201  17.247  17.244 -0.0095  0.0461 -0.0828
 1849DOPG   D2B44050   6.844  17.389  17.151 -0.2027 -0.0130  0.6025
 1849DOPG   C3B44051   6.678  17.539  17.592  0.0960  0.3262  0.1413
 1849DOPG   C4B44052   6.829  17.360  17.996  0.2253 -0.3654  0.1956
 1850DOPG   GL044053   4.821  20.720  19.018  0.1372  0.0867  0.3346
 1850DOPG   PO444054   4.662  20.417  18.681  0.0569  0.0995 -0.1448
 1850DOPG   GL144055   4.926  20.165  18.802 -0.2751 -0.0510 -0.0006
 1850DOPG   GL244056   4.994  20.284  19.070 -0.1457 -0.0151  0.0438
 1850DOPG   C1A44057   4.956  19.797  19.127  0.0212 -0.1942  0.1472
 1850DOPG   D2A44058   4.854  19.387  19.307 -0.2582  0.4332 -0.0790
 1850DOPG   C3A44059   4.844  19.158  19.724  0.0823  0.0522 -0.0559
 1850DOPG   C4A44060   5.229  19.068  19.994 -0.3215 -0.2656  0.0829
 1850DOPG   C1B44061   5.410  20.158  18.841 -0.0026 -0.1127  0.0250
 1850DOPG   D2B44062   5.753  19.959  18.602 -0.0189  0.1808  0.2306
 1850DOPG   C3B44063   5.741  19.506  18.464  0.2883 -0.0199  0.2255
 1850DOPG   C4B44064   5.470  19.332  18.144  0.1564 -0.1341  0.2440
 1851DOPG   GL044065   4.219  21.032  13.949 -0.0230  0.1114  0.1719
 1851DOPG   PO444066   4.575  21.281  13.922  0.2907 -0.0341  0.1105
 1851DOPG   GL144067   4.904  21.134  14.179 -0.0659 -0.4364 -0.0224
 1851DOPG   GL244068   5.086  20.813  14.066  0.2285  0.0408 -0.1050
 1851DOPG   C1A44069   5.343  21.218  14.342  0.3075 -0.1855 -0.0640
 1851DOPG   D2A44070   5.530  21.186  14.715 -0.2606 -0.0729  0.1000
 1851DOPG   C3A44071   5.913  21.162  14.926  0.1931  0.2297 -0.0516
 1851DOPG   C4A44072   6.248  20.881  15.056 -0.3406 -0.1177 -0.0055
 1851DOPG   C1B44073   5.423  20.617  13.977  0.1837 -0.5070  0.1440
 1851DOPG   D2B44074   5.780  20.331  13.889 -0.1191  0.0002  0.0257
 1851DOPG   C3B44075   6.246  20.239  13.721 -0.2544  0.1661 -0.2725
 1851DOPG   C4B44076   6.619  19.968  13.428  0.3258  0.2945  0.0606
 1852DOPG   GL044077   8.724  15.815  17.417  0.2681 -0.1352  0.0456
 1852DOPG   PO444078   8.341  15.733  17.661  0.2997  0.0447 -0.1544
 1852DOPG   GL144079   8.173  16.040  17.946 -0.0322 -0.0049 -0.0765
 1852DOPG   GL244080   8.293  16.110  18.201 -0.0454 -0.1774  0.1461
 1852DOPG   C1A44081   7.803  16.105  18.213  0.0958  0.0755 -0.1351
 1852DOPG   D2A44082   7.393  16.214  18.024 -0.2490 -0.0534 -0.0727
 1852DOPG   C3A44083   7.125  15.856  18.033 -0.0571  0.0196 -0.0537
 1852DOPG   C4A44084   6.973  15.489  18.024 -0.1142 -0.0692 -0.1047
 1852DOPG   C1B44085   8.212  15.877  18.519  0.3075 -0.3116 -0.0245
 1852DOPG   D2B44086   7.895  15.727  18.727  0.2258  0.1470  0.1007
 1852DOPG   C3B44087   7.709  15.390  18.646  0.1993  0.0049  0.0174
 1852DOPG   C4B44088   7.261  15.375  18.821 -0.2524  0.2431  0.0031
 1853DOPG   GL044089   9.051  13.371  18.690  0.2118 -0.0172 -0.3548
 1853DOPG   PO444090   8.744  13.535  18.429 -0.0116  0.0866 -0.0703
 1853DOPG   GL144091   8.431  13.574  18.699 -0.0579  0.0521 -0.1525
 1853DOPG   GL244092   8.394  13.678  18.984  0.2292  0.1694 -0.0687
 1853DOPG   C1A44093   8.002  13.347  18.818  0.0910 -0.1452  0.0934
 1853DOPG   D2A44094   7.529  13.432  18.862  0.0763  0.2960 -0.1782
 1853DOPG   C3A44095   7.152  13.503  18.621  0.0253 -0.0689 -0.1275
 1853DOPG   C4A44096   6.764  13.622  18.529  0.0905 -0.1439  0.2274
 1853DOPG   C1B44097   7.915  13.754  19.174  0.1948  0.2949  0.1764
 1853DOPG   D2B44098   7.513  13.885  19.196 -0.2430 -0.2033 -0.1937
 1853DOPG   C3B44099   7.157  14.171  19.275 -0.0923 -0.0607  0.0646
 1853DOPG   C4B44100   6.971  14.274  19.562 -0.0759  0.1358  0.2130
 1854DOPG   GL044101   4.529  21.075  19.763 -0.1296 -0.0345 -0.3291
 1854DOPG   PO444102   4.501  20.742  19.441 -0.0366 -0.0133  0.1358
 1854DOPG   GL144103   4.876  20.568  19.500 -0.0841  0.1560 -0.1245
 1854DOPG   GL244104   5.021  20.770  19.728 -0.1264  0.1637 -0.0206
 1854DOPG   C1A44105   4.968  20.125  19.613  0.0786 -0.0000  0.0196
 1854DOPG   D2A44106   5.170  19.799  19.711  0.2614  0.0471 -0.1530
 1854DOPG   C3A44107   5.699  19.914  19.719  0.0010 -0.0958 -0.2251
 1854DOPG   C4A44108   6.170  20.114  19.894  0.3875 -0.1651  0.3600
 1854DOPG   C1B44109   5.198  20.434  19.930  0.2141 -0.1580  0.1818
 1854DOPG   D2B44110   5.544  20.261  20.036  0.1213 -0.1816  0.3073
 1854DOPG   C3B44111   5.936  20.377  20.282  0.0238 -0.3047  0.0195
 1854DOPG   C4B44112   6.337  20.304  20.623  0.2518  0.1093  0.0498
 1855DOPG   GL044113   8.862  16.850  17.591 -0.0484 -0.1578  0.0546
 1855DOPG   PO444114   8.530  16.830  17.323  0.2267 -0.2861  0.3387
 1855DOPG   GL144115   8.338  16.643  17.652 -0.0974  0.0333  0.1803
 1855DOPG   GL244116   8.055  16.797  17.579 -0.0050 -0.2005  0.0440
 1855DOPG   C1A44117   7.914  16.532  17.967  0.0659 -0.0400  0.0604
 1855DOPG   D2A44118   7.546  16.781  18.234 -0.1317  0.0459 -0.3051
 1855DOPG   C3A44119   7.867  17.066  18.393  0.1277  0.0612  0.1146
 1855DOPG   C4A44120   8.234  17.431  18.388 -0.1912  0.0883 -0.3726
 1855DOPG   C1B44121   7.836  16.721  17.158 -0.1676 -0.0419  0.0087
 1855DOPG   D2B44122   7.947  16.844  16.781 -0.1212  0.0079 -0.3263
 1855DOPG   C3B44123   8.096  16.483  16.446 -0.1286  0.0508 -0.0712
 1855DOPG   C4B44124   8.104  16.356  15.981 -0.0351 -0.2701 -0.0980
 1856DOPG   GL044125   4.546  21.235  20.544  0.1295 -0.1031 -0.0005
 1856DOPG   PO444126   4.365  20.889  20.296  0.1088 -0.0483  0.0264
 1856DOPG   GL144127   4.661  20.695  20.514  0.0315  0.1709 -0.2774
 1856DOPG   GL244128   4.787  20.843  20.791  0.2196 -0.1812  0.1291
 1856DOPG   C1A44129   4.710  20.234  20.527  0.2382 -0.3475  0.2079
 1856DOPG   D2A44130   5.005  19.983  20.784  0.1837  0.0918  0.0899
 1856DOPG   C3A44131   5.286  19.935  20.563  0.2689  0.2777  0.0837
 1856DOPG   C4A44132   5.578  19.818  20.328 -0.0025 -0.1629  0.2046
 1856DOPG   C1B44133   5.006  20.492  20.814 -0.0926 -0.1365 -0.0765
 1856DOPG   D2B44134   5.344  20.303  21.013  0.0261  0.4682  0.1239
 1856DOPG   C3B44135   5.665  20.262  20.733  0.0816 -0.0380  0.2503
 1856DOPG   C4B44136   5.991  19.997  20.793  0.1787 -0.1832  0.0171
 1857DOPG   GL044137   7.654  18.770  16.651 -0.0288 -0.4754  0.4447
 1857DOPG   PO444138   7.390  18.533  16.816 -0.2061  0.1444 -0.1642
 1857DOPG   GL144139   7.001  18.371  16.768  0.0854  0.1396 -0.2266
 1857DOPG   GL244140   6.865  18.496  16.867  0.2018 -0.2170  0.2757
 1857DOPG   C1A44141   6.683  18.168  16.490  0.0447  0.0080  0.2874
 1857DOPG   D2A44142   6.295  18.386  16.220 -0.2590  0.0497  0.0049
 1857DOPG   C3A44143   5.961  18.245  16.053 -0.3133  0.0190 -0.1608
 1857DOPG   C4A44144   5.686  18.285  15.786  0.2179 -0.0868 -0.1516
 1857DOPG   C1B44145   6.383  18.480  16.792 -0.1336  0.1484 -0.0590
 1857DOPG   D2B44146   6.023  18.327  16.721 -0.2222  0.0335 -0.3985
 1857DOPG   C3B44147   5.927  17.995  16.886 -0.2731 -0.1553  0.0078
 1857DOPG   C4B44148   5.692  17.872  17.180 -0.0106 -0.0571 -0.0349
 1858DOPG   GL044149   8.732  14.430  17.565 -0.0183 -0.0378 -0.3454
 1858DOPG   PO444150   8.568  14.833  17.814  0.1518  0.1154 -0.2503
 1858DOPG   GL144151   8.349  14.596  17.905  0.2283  0.3704 -0.1978
 1858DOPG   GL244152   8.574  14.389  18.079 -0.0123  0.0208  0.0965
 1858DOPG   C1A44153   7.918  14.585  17.976  0.3709  0.0347  0.1283
 1858DOPG   D2A44154   7.595  14.852  17.820  0.1125  0.0336  0.0294
 1858DOPG   C3A44155   7.505  15.150  18.007  0.0832 -0.3141  0.0708
 1858DOPG   C4A44156   7.212  15.214  18.315 -0.0276  0.0361  0.2023
 1858DOPG   C1B44157   8.244  14.462  18.380 -0.0194  0.0173 -0.0001
 1858DOPG   D2B44158   7.781  14.452  18.495 -0.0899  0.1973 -0.2063
 1858DOPG   C3B44159   7.928  14.744  18.816  0.0082 -0.0345 -0.5120
 1858DOPG   C4B44160   7.651  14.900  19.098  0.0517  0.0572 -0.0906
 1859DOPG   GL044161   5.680  21.596  19.935  0.0567 -0.1970 -0.0632
 1859DOPG   PO444162   5.359  21.330  19.609 -0.0818  0.0403 -0.1921
 1859DOPG   GL144163   5.641  21.093  19.792 -0.1554  0.1258 -0.0673
 1859DOPG   GL244164   5.871  21.009  20.032  0.2876  0.2242  0.1801
 1859DOPG   C1A44165   5.612  20.640  19.731  0.0347  0.3738 -0.0911
 1859DOPG   D2A44166   5.452  20.444  19.306 -0.0228  0.1638 -0.0581
 1859DOPG   C3A44167   5.369  20.012  19.303  0.1053  0.0262 -0.1378
 1859DOPG   C4A44168   5.606  19.562  19.412 -0.1593  0.0589  0.3079
 1859DOPG   C1B44169   5.602  20.725  20.197 -0.0696  0.3439  0.1882
 1859DOPG   D2B44170   5.237  20.353  20.422 -0.0904  0.2635 -0.1872
 1859DOPG   C3B44171   4.999  19.985  20.178 -0.2559 -0.2381  0.2482
 1859DOPG   C4B44172   4.615  20.082  19.943 -0.2900 -0.0800 -0.0358
 1860DOPG   GL044173   8.674  17.779  17.538  0.3514  0.0657  0.1143
 1860DOPG   PO444174   8.461  18.052  17.667 -0.1086 -0.0605  0.0332
 1860DOPG   GL144175   8.365  18.077  18.111 -0.0696  0.3192 -0.0319
 1860DOPG   GL244176   8.572  18.231  18.198 -0.0601  0.1616  0.0962
 1860DOPG   C1A44177   8.072  18.062  18.328  0.2623 -0.0012 -0.2646
 1860DOPG   D2A44178   7.603  17.949  18.376 -0.1230  0.2995 -0.0094
 1860DOPG   C3A44179   7.200  18.013  18.525 -0.3520  0.0898 -0.3918
 1860DOPG   C4A44180   6.872  18.127  18.677  0.1123 -0.1174  0.0459
 1860DOPG   C1B44181   8.478  18.306  18.597  0.0934 -0.1674 -0.1901
 1860DOPG   D2B44182   8.682  18.156  19.027 -0.2230  0.2166  0.3496
 1860DOPG   C3B44183   8.672  17.792  19.258  0.0365  0.0774  0.1065
 1860DOPG   C4B44184   8.441  17.771  19.590 -0.0127 -0.0285  0.2743
 1861DOPG   GL044185  14.428   6.323  16.659  0.2997  0.3522 -0.2841
 1861DOPG   PO444186  14.212   6.665  16.366 -0.0222  0.1755  0.2657
 1861DOPG   GL144187  14.391   6.890  16.692  0.0622  0.1525 -0.5038
 1861DOPG   GL244188  14.107   7.057  16.760  0.1717 -0.1391 -0.0112
 1861DOPG   C1A44189  14.637   7.212  16.721 -0.0775  0.0025  0.1903
 1861DOPG   D2A44190  14.637   7.642  16.973 -0.0137  0.3099  0.1276
 1861DOPG   C3A44191  14.485   7.580  17.363 -0.1630 -0.3101  0.1307
 1861DOPG   C4A44192  14.154   7.410  17.613 -0.0683  0.0581  0.2877
 1861DOPG   C1B44193  13.986   7.473  16.829 -0.1042 -0.4287 -0.0595
 1861DOPG   D2B44194  14.218   7.909  16.884  0.0071  0.3208 -0.3646
 1861DOPG   C3B44195  14.327   8.246  16.633 -0.3214  0.0400 -0.0305
 1861DOPG   C4B44196  14.497   8.701  16.778  0.2661  0.3311 -0.2434
 1862DOPG   GL044197  14.615   6.718  17.070  0.1700 -0.0229 -0.1621
 1862DOPG   PO444198  14.835   6.924  17.326 -0.1470  0.1694  0.0592
 1862DOPG   GL144199  14.924   7.301  17.203  0.0601 -0.1068  0.0702
 1862DOPG   GL244200  15.263   7.339  17.065 -0.2085  0.2045 -0.0877
 1862DOPG   C1A44201  14.972   7.722  17.311  0.1518  0.0963  0.0544
 1862DOPG   D2A44202  15.095   8.099  17.409 -0.1188 -0.5496 -0.3114
 1862DOPG   C3A44203  14.840   8.315  17.704  0.4629  0.0463  0.2228
 1862DOPG   C4A44204  14.363   8.412  17.671 -0.1484  0.0776  0.1710
 1862DOPG   C1B44205  15.088   7.574  16.802  0.0210  0.0640  0.3293
 1862DOPG   D2B44206  14.850   7.501  16.419 -0.2282  0.1341  0.0647
 1862DOPG   C3B44207  14.475   7.687  16.504 -0.1215 -0.2460 -0.2623
 1862DOPG   C4B44208  14.169   7.828  16.383 -0.3477  0.2736 -0.3706
 1863DOPG   GL044209  15.247  11.609  17.114 -0.3194 -0.1172 -0.1996
 1863DOPG   PO444210  15.455  11.386  17.485  0.1529  0.1811  0.0809
 1863DOPG   GL144211  15.419  10.986  17.723 -0.0503 -0.3239 -0.0780
 1863DOPG   GL244212  15.695  10.865  17.880 -0.1625  0.3177 -0.1963
 1863DOPG   C1A44213  15.362  10.541  17.685  0.1913  0.2388 -0.0112
 1863DOPG   D2A44214  15.436  10.154  17.561 -0.0158 -0.4269 -0.0381
 1863DOPG   C3A44215  15.011   9.934  17.500 -0.2195  0.1277 -0.1381
 1863DOPG   C4A44216  14.574   9.758  17.484  0.2140 -0.1163  0.0402
 1863DOPG   C1B44217  16.060  10.818  18.134 -0.0268  0.3818 -0.1791
 1863DOPG   D2B44218  16.338  10.551  18.325 -0.1195 -0.0074 -0.0524
 1863DOPG   C3B44219  16.411  10.370  18.724 -0.0652 -0.1122 -0.1826
 1863DOPG   C4B44220  16.546  10.381  19.125 -0.1273 -0.4697 -0.3430
 1864DOPG   GL044221  23.288  23.256  15.950  0.1293  0.3426  0.0651
 1864DOPG   PO444222  23.526  23.292  16.345  0.3732  0.0808 -0.0307
 1864DOPG   GL144223  23.796  23.070  16.444 -0.0850  0.1041 -0.1250
 1864DOPG   GL244224  24.113  22.923  16.240  0.1633 -0.1065 -0.0524
 1864DOPG   C1A44225  24.055  22.846  16.717  0.2245  0.2073 -0.0752
 1864DOPG   D2A44226  24.300  22.433  16.729  0.2689 -0.4723  0.0193
 1864DOPG   C3A44227  24.288  22.093  16.592 -0.0409 -0.4161  0.0658
 1864DOPG   C4A44228  23.935  21.805  16.627 -0.1689  0.1831  0.0819
 1864DOPG   C1B44229  24.344  22.488  16.150  0.0060  0.0217 -0.2401
 1864DOPG   D2B44230  24.141  22.092  15.942  0.0619  0.1452  0.0172
 1864DOPG   C3B44231  24.233  21.668  16.224  0.3412 -0.2734  0.0217
 1864DOPG   C4B44232  24.159  21.315  16.452 -0.2107  0.2057 -0.1698
 1865DOPG   GL044233  25.327  23.230  16.698 -0.1894 -0.0821 -0.2329
 1865DOPG   PO444234  25.275  22.963  16.410 -0.0592  0.0485 -0.0198
 1865DOPG   GL144235  25.072  22.595  16.572 -0.0796  0.1294  0.1346
 1865DOPG   GL244236  24.746  22.466  16.549  0.2493  0.2439  0.1407
 1865DOPG   C1A44237  25.193  22.309  16.882  0.1866  0.3743 -0.1874
 1865DOPG   D2A44238  25.463  22.187  17.216  0.0780  0.2391 -0.1896
 1865DOPG   C3A44239  25.300  21.822  17.554  0.0895 -0.1996  0.0298
 1865DOPG   C4A44240  25.155  21.381  17.583  0.1667  0.1155  0.2217
 1865DOPG   C1B44241  24.788  22.001  16.788 -0.0276 -0.0089  0.1270
 1865DOPG   D2B44242  24.561  21.695  16.628  0.1571  0.2125 -0.1221
 1865DOPG   C3B44243  24.494  21.483  16.932 -0.1554  0.0914  0.0138
 1865DOPG   C4B44244  24.977  21.360  17.117  0.0109  0.5494  0.0849
 1866DOPG   GL044245  16.503  20.404  22.842  0.1586 -0.3552  0.0446
 1866DOPG   PO444246  15.961  20.295  22.980  0.0350  0.2618 -0.0424
 1866DOPG   GL144247  15.772  19.977  22.775  0.1663 -0.2661  0.2012
 1866DOPG   GL244248  15.682  20.144  22.458  0.1700  0.0920 -0.2289
 1866DOPG   C1A44249  15.776  19.687  22.409 -0.0783 -0.0061  0.1335
 1866DOPG   D2A44250  15.783  19.597  21.883  0.2037  0.0189 -0.0111
 1866DOPG   C3A44251  16.141  19.482  21.767  0.0014  0.0144  0.0895
 1866DOPG   C4A44252  16.337  19.557  21.347  0.0823  0.3821 -0.1107
 1866DOPG   C1B44253  15.333  19.869  22.630  0.2212 -0.1341 -0.0340
 1866DOPG   D2B44254  15.013  19.621  22.386 -0.0457 -0.0157 -0.3120
 1866DOPG   C3B44255  14.903  19.786  22.003 -0.1225 -0.3130  0.1799
 1866DOPG   C4B44256  14.669  20.117  21.759  0.1750 -0.1585 -0.0577
 1867DOPG   GL044257  14.785  13.247  23.714  0.1786 -0.3930 -0.0324
 1867DOPG   PO444258  15.082  13.515  23.780  0.1389 -0.0126 -0.5428
 1867DOPG   GL144259  15.140  13.603  23.262  0.0196 -0.1562 -0.1146
 1867DOPG   GL244260  14.856  13.818  23.166  0.2500 -0.0842  0.3237
 1867DOPG   C1A44261  15.294  13.714  22.872  0.0969  0.0771 -0.1691
 1867DOPG   D2A44262  15.217  13.688  22.463 -0.1200 -0.0188  0.1112
 1867DOPG   C3A44263  15.225  13.940  22.136 -0.0830 -0.0325  0.0726
 1867DOPG   C4A44264  15.083  14.243  21.891  0.0864 -0.0248  0.2173
 1867DOPG   C1B44265  15.005  14.165  23.143 -0.1726 -0.1968 -0.1927
 1867DOPG   D2B44266  14.943  14.604  22.887 -0.0919  0.0051  0.1783
 1867DOPG   C3B44267  14.495  14.594  22.744 -0.1927  0.1817 -0.1505
 1867DOPG   C4B44268  14.142  14.301  22.803 -0.1114  0.1499 -0.4470
 1868DOPG   GL044269   8.592  10.031  21.192 -0.1761  0.1121  0.2188
 1868DOPG   PO444270   8.841   9.670  21.193 -0.2074  0.0583 -0.0017
 1868DOPG   GL144271   8.998   9.913  20.842  0.2888 -0.1653 -0.2579
 1868DOPG   GL244272   8.788  10.254  20.852 -0.1166 -0.0643  0.2357
 1868DOPG   C1A44273   8.933   9.838  20.353 -0.0555 -0.0062  0.0115
 1868DOPG   D2A44274   9.239   9.782  19.991  0.1818  0.2381 -0.0681
 1868DOPG   C3A44275   9.354  10.144  19.729  0.2821 -0.0110  0.0347
 1868DOPG   C4A44276   9.100  10.495  19.609 -0.1548  0.4137 -0.2907
 1868DOPG   C1B44277   9.079  10.308  20.520 -0.1180 -0.1762  0.2919
 1868DOPG   D2B44278   9.299  10.343  20.171  0.4152  0.1684  0.0211
 1868DOPG   C3B44279   9.717  10.134  20.123 -0.1918 -0.0079 -0.1978
 1868DOPG   C4B44280  10.112  10.251  19.988  0.0048 -0.0911  0.1521
 1869DOPG   GL044281  20.329  21.951  21.127  0.3488 -0.0435 -0.1415
 1869DOPG   PO444282  20.763  21.925  21.111 -0.3256 -0.1077 -0.1687
 1869DOPG   GL144283  20.648  21.784  20.685  0.1523 -0.0098  0.3166
 1869DOPG   GL244284  20.240  21.696  20.718  0.1068 -0.0324  0.1063
 1869DOPG   C1A44285  20.555  21.409  20.394  0.1663  0.1975 -0.1154
 1869DOPG   D2A44286  20.362  21.034  20.406 -0.1234 -0.0568 -0.2372
 1869DOPG   C3A44287  20.059  20.798  20.320  0.2636 -0.2500  0.2555
 1869DOPG   C4A44288  19.764  20.772  20.013 -0.2891 -0.0068 -0.1606
 1869DOPG   C1B44289  20.023  21.309  20.782 -0.0225 -0.3689 -0.0607
 1869DOPG   D2B44290  19.882  20.924  20.806 -0.0052 -0.4025  0.2094
 1869DOPG   C3B44291  19.551  20.733  20.490 -0.1699  0.6250  0.0575
 1869DOPG   C4B44292  19.376  20.461  20.143  0.1855  0.0363 -0.1711
 1870DOPG   GL044293  17.757  24.963  18.283  0.0123 -0.0495  0.1371
 1870DOPG   PO444294  17.765  24.550  18.537 -0.0691  0.1712 -0.1728
 1870DOPG   GL144295  17.663  24.131  18.713  0.1456  0.0346  0.2319
 1870DOPG   GL244296  17.442  24.179  18.466 -0.1056  0.2115 -0.2174
 1870DOPG   C1A44297  17.462  23.748  18.674 -0.2247 -0.0266  0.4056
 1870DOPG   D2A44298  17.220  23.517  18.392 -0.2311  0.0926  0.1383
 1870DOPG   C3A44299  17.144  23.072  18.415  0.3113 -0.1308  0.2590
 1870DOPG   C4A44300  16.786  22.839  18.217 -0.3640 -0.2332 -0.0857
 1870DOPG   C1B44301  17.107  23.998  18.333  0.0469 -0.1684 -0.0336
 1870DOPG   D2B44302  16.830  23.651  18.176 -0.2386 -0.1715  0.2727
 1870DOPG   C3B44303  16.933  23.276  17.956 -0.1417 -0.0261 -0.2056
 1870DOPG   C4B44304  16.779  22.899  17.728 -0.3533 -0.4751 -0.0580
 1871DOPG   GL044305   9.304  21.587  21.808 -0.0543 -0.1874  0.0394
 1871DOPG   PO444306   9.349  21.239  21.555 -0.1762  0.3132  0.1581
 1871DOPG   GL144307   9.237  21.167  21.201  0.0421 -0.0703  0.0045
 1871DOPG   GL244308   8.948  21.152  21.061  0.2911  0.0808  0.2232
 1871DOPG   C1A44309   9.267  20.794  20.903  0.1417  0.1005 -0.2385
 1871DOPG   D2A44310   9.491  20.612  20.552  0.1705  0.1722  0.1742
 1871DOPG   C3A44311   9.512  20.229  20.554 -0.0778 -0.6446 -0.0484
 1871DOPG   C4A44312   9.817  19.928  20.692 -0.2175 -0.1136  0.3454
 1871DOPG   C1B44313   8.925  21.085  20.620 -0.0030  0.2622 -0.1602
 1871DOPG   D2B44314   9.087  20.752  20.353 -0.0177 -0.2205 -0.0247
 1871DOPG   C3B44315   8.723  20.558  20.416  0.2097  0.1080 -0.4646
 1871DOPG   C4B44316   8.394  20.396  20.650 -0.1464  0.2629  0.2204
 1872DOPG   GL044317  16.298   9.064  20.324 -0.0668 -0.2996  0.2035
 1872DOPG   PO444318  16.478   8.755  20.148  0.1342  0.0766 -0.2062
 1872DOPG   GL144319  16.620   9.177  20.004  0.1629 -0.1424  0.2063
 1872DOPG   GL244320  16.470   9.460  20.005  0.1006 -0.0698  0.0370
 1872DOPG   C1A44321  16.647   9.193  19.546  0.0202 -0.0650  0.1653
 1872DOPG   D2A44322  16.411   9.414  19.194  0.0681 -0.3243 -0.2563
 1872DOPG   C3A44323  16.369   9.384  18.736 -0.2035  0.0109 -0.0898
 1872DOPG   C4A44324  16.024   9.663  18.369  0.0648 -0.0198  0.1571
 1872DOPG   C1B44325  16.580   9.723  19.586  0.2921  0.2310 -0.4058
 1872DOPG   D2B44326  16.208   9.988  19.334  0.0368  0.1127 -0.2191
 1872DOPG   C3B44327  15.768   9.969  19.316 -0.1742  0.3169 -0.3132
 1872DOPG   C4B44328  15.433   9.875  19.074 -0.1187  0.1345  0.0622
 1873DOPG   GL044329  11.814  11.918  23.003 -0.1181  0.2290 -0.2642
 1873DOPG   PO444330  11.413  11.861  23.042  0.0955 -0.1001 -0.2031
 1873DOPG   GL144331  11.520  12.034  22.646  0.0539  0.3896 -0.1406
 1873DOPG   GL244332  11.769  12.200  22.524 -0.2082  0.0257  0.4503
 1873DOPG   C1A44333  11.273  11.999  22.231 -0.0787 -0.0050 -0.0290
 1873DOPG   D2A44334  11.117  12.215  21.927 -0.4601  0.2554  0.2589
 1873DOPG   C3A44335  11.059  12.631  21.769  0.1355 -0.0019 -0.0958
 1873DOPG   C4A44336  11.120  12.912  21.457  0.1676  0.3792  0.4506
 1873DOPG   C1B44337  11.963  11.944  22.343 -0.0461  0.0247 -0.2374
 1873DOPG   D2B44338  12.253  11.751  22.438 -0.1296 -0.1576 -0.1482
 1873DOPG   C3B44339  12.513  11.420  22.162 -0.0004  0.0252 -0.1475
 1873DOPG   C4B44340  12.553  11.020  22.102  0.2443 -0.1246 -0.0170
 1874DOPG   GL044341  14.427  12.718  22.816  0.2294  0.0449  0.2571
 1874DOPG   PO444342  14.613  12.284  22.816 -0.1232  0.1129 -0.0248
 1874DOPG   GL144343  14.498  12.493  22.389 -0.0986 -0.4028 -0.2482
 1874DOPG   GL244344  14.718  12.466  22.128  0.0577  0.2684 -0.0427
 1874DOPG   C1A44345  14.159  12.902  22.353 -0.0344 -0.0291 -0.1133
 1874DOPG   D2A44346  13.788  13.019  22.146 -0.0745  0.3218 -0.1169
 1874DOPG   C3A44347  13.329  12.849  22.033 -0.0975  0.1820 -0.0221
 1874DOPG   C4A44348  12.907  12.893  21.969  0.0198 -0.5253 -0.0341
 1874DOPG   C1B44349  14.745  12.570  21.633 -0.0358  0.0491  0.0850
 1874DOPG   D2B44350  14.867  12.567  21.198  0.2383  0.3062 -0.2418
 1874DOPG   C3B44351  14.659  12.666  20.821  0.1150  0.0084  0.2159
 1874DOPG   C4B44352  14.698  12.580  20.502  0.1574 -0.0425 -0.0197
 1875DOPG   GL044353  14.771  16.671  24.410  0.0742 -0.0319  0.1617
 1875DOPG   PO444354  14.716  16.656  23.926 -0.1201 -0.0293 -0.4911
 1875DOPG   GL144355  14.315  16.654  23.715  0.1505  0.1218  0.2665
 1875DOPG   GL244356  14.151  16.819  23.718 -0.0562 -0.0819  0.0561
 1875DOPG   C1A44357  14.123  16.525  23.349  0.1402 -0.1199  0.3925
 1875DOPG   D2A44358  13.905  16.559  22.980 -0.1971  0.1136 -0.0073
 1875DOPG   C3A44359  14.141  16.707  22.492  0.4171  0.1646 -0.0743
 1875DOPG   C4A44360  14.233  16.962  22.210  0.1784  0.0189  0.2497
 1875DOPG   C1B44361  14.392  16.966  23.349 -0.0388  0.0955  0.3361
 1875DOPG   D2B44362  14.469  16.985  22.846 -0.1302  0.1768  0.1507
 1875DOPG   C3B44363  14.655  16.708  22.564 -0.2359 -0.1168  0.0672
 1875DOPG   C4B44364  15.005  16.504  22.281 -0.1258 -0.2912  0.2108
 1876DOPG   GL044365  14.097  14.255  23.791 -0.1238  0.0528  0.0357
 1876DOPG   PO444366  14.537  14.305  23.740 -0.0660  0.1468  0.1483
 1876DOPG   GL144367  14.540  14.867  23.679  0.1170  0.4121 -0.2606
 1876DOPG   GL244368  14.575  14.949  23.251  0.3023  0.2206 -0.0381
 1876DOPG   C1A44369  14.567  15.320  23.600 -0.0438 -0.1249  0.0528
 1876DOPG   D2A44370  14.318  15.675  23.421  0.0550  0.0926  0.0932
 1876DOPG   C3A44371  14.408  15.695  23.000 -0.0691  0.0417  0.1414
 1876DOPG   C4A44372  14.266  15.627  22.589  0.0211  0.2004  0.1314
 1876DOPG   C1B44373  14.638  15.092  22.817 -0.0679 -0.0448 -0.1694
 1876DOPG   D2B44374  14.313  15.130  22.409 -0.1416  0.0054  0.0329
 1876DOPG   C3B44375  14.214  14.761  22.175 -0.0538  0.0426  0.1786
 1876DOPG   C4B44376  14.647  14.536  21.986 -0.1848  0.0577  0.2058
 1877DOPG   GL044377   8.257  13.638  22.270 -0.2095  0.3590  0.0481
 1877DOPG   PO444378   8.367  13.571  21.900  0.1300  0.3070 -0.0416
 1877DOPG   GL144379   8.395  13.852  21.617 -0.1069 -0.1209  0.1097
 1877DOPG   GL244380   8.688  13.870  21.591  0.0919 -0.0956  0.0473
 1877DOPG   C1A44381   8.419  13.717  21.125  0.1680 -0.2701  0.0640
 1877DOPG   D2A44382   8.522  13.950  20.693 -0.0703 -0.3433  0.1890
 1877DOPG   C3A44383   8.913  14.030  20.590 -0.0905 -0.0854  0.0824
 1877DOPG   C4A44384   9.286  14.134  20.629  0.1742 -0.4643  0.1985
 1877DOPG   C1B44385   8.904  13.995  21.200 -0.1287  0.1400 -0.2103
 1877DOPG   D2B44386   8.759  14.361  20.946  0.0664 -0.2800 -0.2763
 1877DOPG   C3B44387   8.895  14.596  20.620  0.0013  0.1725  0.0525
 1877DOPG   C4B44388   8.925  14.705  20.194 -0.1787  0.3364  0.0356
 1878DOPG   GL044389  10.375   7.173  19.293 -0.3839 -0.0735 -0.1283
 1878DOPG   PO444390  10.254   7.464  19.601  0.1011 -0.0506 -0.0001
 1878DOPG   GL144391  10.491   7.854  19.512 -0.2965 -0.1120 -0.0493
 1878DOPG   GL244392  10.262   8.104  19.605  0.0130  0.0715 -0.3242
 1878DOPG   C1A44393  10.611   8.148  19.199 -0.0879 -0.1403  0.0761
 1878DOPG   D2A44394  10.401   8.228  18.720  0.1333  0.1936  0.1005
 1878DOPG   C3A44395  10.503   8.664  18.554  0.2375  0.2204 -0.3550
 1878DOPG   C4A44396  10.610   9.058  18.746 -0.0612  0.0502  0.2570
 1878DOPG   C1B44397  10.050   8.407  19.263  0.1113 -0.1961  0.0705
 1878DOPG   D2B44398  10.011   8.523  18.819 -0.1426  0.1512 -0.3113
 1878DOPG   C3B44399   9.614   8.780  18.774 -0.2489 -0.0422 -0.4114
 1878DOPG   C4B44400   9.241   8.874  19.015  0.1655 -0.0871 -0.0784
 1879DOPG   GL044401   7.753   8.276  17.524 -0.0458  0.3815  0.2901
 1879DOPG   PO444402   8.049   8.582  17.561  0.2063 -0.1981 -0.1651
 1879DOPG   GL144403   8.056   8.943  17.914 -0.0104  0.1420 -0.0445
 1879DOPG   GL244404   8.268   8.811  18.063 -0.0106 -0.1082 -0.2177
 1879DOPG   C1A44405   8.115   9.274  17.830  0.0404 -0.0039  0.0288
 1879DOPG   D2A44406   8.216   9.673  17.726  0.0230  0.0229  0.0585
 1879DOPG   C3A44407   8.515   9.944  17.974 -0.0181 -0.4416 -0.2159
 1879DOPG   C4A44408   8.684  10.352  17.837  0.0358  0.0925 -0.0178
 1879DOPG   C1B44409   8.667   8.942  17.956  0.1900  0.5131 -0.1937
 1879DOPG   D2B44410   8.728   9.310  17.706  0.0568 -0.0510 -0.0670
 1879DOPG   C3B44411   8.626   9.312  17.375 -0.0299  0.0046  0.1150
 1879DOPG   C4B44412   8.583   9.683  17.133 -0.1454  0.1632  0.0450
 1880DOPG   GL044413  22.712  20.345  21.345 -0.3211  0.1975 -0.1561
 1880DOPG   PO444414  23.037  20.033  21.175 -0.0807 -0.1241  0.0059
 1880DOPG   GL144415  23.152  19.592  20.956  0.1739  0.0632 -0.0253
 1880DOPG   GL244416  23.010  19.330  21.050  0.1020  0.0731 -0.1210
 1880DOPG   C1A44417  23.310  19.347  20.620 -0.3489  0.3147 -0.1420
 1880DOPG   D2A44418  23.200  19.103  20.327  0.1760 -0.0875 -0.4130
 1880DOPG   C3A44419  23.500  18.868  20.223 -0.0841 -0.0189 -0.0150
 1880DOPG   C4A44420  23.801  19.050  20.286 -0.2015 -0.2450  0.1556
 1880DOPG   C1B44421  22.809  19.245  20.657  0.1468 -0.0512 -0.1966
 1880DOPG   D2B44422  22.766  19.339  20.217 -0.0874 -0.1466 -0.0483
 1880DOPG   C3B44423  22.445  19.359  19.862 -0.1575  0.1038 -0.1175
 1880DOPG   C4B44424  22.654  19.261  19.509  0.1666  0.1209 -0.1410
 1881DOPG   GL044425  18.369   9.768  19.439 -0.1343  0.0158 -0.2166
 1881DOPG   PO444426  18.490   9.952  19.871 -0.1489 -0.3020 -0.0286
 1881DOPG   GL144427  18.373  10.252  19.621  0.4057 -0.0195 -0.0414
 1881DOPG   GL244428  18.088  10.157  19.632 -0.0848  0.0739  0.0804
 1881DOPG   C1A44429  18.166  10.603  19.350  0.1332 -0.0756  0.2173
 1881DOPG   D2A44430  17.791  10.569  19.071 -0.0916 -0.0041  0.0836
 1881DOPG   C3A44431  17.350  10.783  18.811 -0.2345 -0.1590 -0.3683
 1881DOPG   C4A44432  17.177  10.919  18.410 -0.0275 -0.1466 -0.0567
 1881DOPG   C1B44433  17.800  10.086  19.302  0.0737  0.0580 -0.1648
 1881DOPG   D2B44434  17.391  10.085  19.366  0.1266 -0.2119 -0.0883
 1881DOPG   C3B44435  17.178  10.470  19.201 -0.0321  0.1608  0.1105
 1881DOPG   C4B44436  17.257  10.958  19.293 -0.1417  0.0736  0.0764
 1882DOPG   GL044437  11.119  23.033  21.009 -0.0970 -0.2034 -0.1581
 1882DOPG   PO444438  10.920  23.399  20.955 -0.3797  0.1696 -0.1212
 1882DOPG   GL144439  10.922  23.330  20.619  0.0908 -0.0380  0.0913
 1882DOPG   GL244440  10.600  23.243  20.460 -0.1111  0.1476  0.1763
 1882DOPG   C1A44441  11.270  23.466  20.366  0.0130  0.4102  0.2659
 1882DOPG   D2A44442  11.475  23.486  20.065 -0.0175 -0.1666 -0.1876
 1882DOPG   C3A44443  11.348  23.081  19.997  0.1835  0.0120 -0.2067
 1882DOPG   C4A44444  11.340  22.681  19.927  0.1301  0.0172  0.2809
 1882DOPG   C1B44445  10.570  23.127  20.030 -0.0612  0.0262 -0.4196
 1882DOPG   D2B44446  10.785  22.954  19.687  0.0384  0.4455 -0.1855
 1882DOPG   C3B44447  10.749  22.833  19.237 -0.1465 -0.0602 -0.0818
 1882DOPG   C4B44448  10.707  22.907  18.819 -0.1004  0.3263 -0.2042
 1883DOPG   GL044449  18.845  10.268  20.038 -0.0166 -0.1651  0.0138
 1883DOPG   PO444450  18.589  10.197  20.433  0.0099  0.1111 -0.3491
 1883DOPG   GL144451  18.479  10.624  20.549  0.1384 -0.2190 -0.0301
 1883DOPG   GL244452  18.505  10.722  20.174  0.0370  0.1913 -0.5787
 1883DOPG   C1A44453  18.106  10.843  20.578 -0.3438 -0.2714 -0.8070
 1883DOPG   D2A44454  17.829  10.886  20.238 -0.0058 -0.0748  0.1915
 1883DOPG   C3A44455  17.452  10.896  20.435  0.1373  0.1632  0.3173
 1883DOPG   C4A44456  17.059  10.815  20.651 -0.2546  0.0447 -0.1251
 1883DOPG   C1B44457  18.600  10.744  19.795  0.0210  0.0033 -0.2330
 1883DOPG   D2B44458  18.497  10.933  19.398 -0.0800  0.2296 -0.0032
 1883DOPG   C3B44459  18.167  11.157  19.284 -0.0027 -0.1781 -0.5752
 1883DOPG   C4B44460  17.774  11.478  19.237 -0.1952  0.0095  0.1396
 1884DOPG   GL044461  20.765  19.281  21.966 -0.1297  0.1068  0.3441
 1884DOPG   PO444462  20.982  18.989  21.701 -0.3391  0.4127  0.2877
 1884DOPG   GL144463  21.020  18.706  21.359 -0.1791 -0.2401 -0.2534
 1884DOPG   GL244464  20.914  18.926  21.148 -0.1347  0.2704 -0.0976
 1884DOPG   C1A44465  21.035  18.470  21.053  0.1014  0.4455  0.2516
 1884DOPG   D2A44466  21.393  18.231  20.834  0.1306  0.0328  0.0602
 1884DOPG   C3A44467  21.752  18.296  20.790 -0.2957 -0.2176  0.0575
 1884DOPG   C4A44468  22.147  18.544  20.868  0.2911  0.0484 -0.4836
 1884DOPG   C1B44469  20.843  18.977  20.771  0.1318 -0.1136 -0.0590
 1884DOPG   D2B44470  20.669  18.810  20.439 -0.1301  0.0392 -0.1930
 1884DOPG   C3B44471  20.645  18.999  20.040  0.0541 -0.2775  0.0248
 1884DOPG   C4B44472  20.576  18.934  19.520 -0.0215 -0.0105  0.1496
 1885DOPG   GL044473   7.673  17.809  20.495 -0.2971  0.2174  0.6177
 1885DOPG   PO444474   7.641  18.144  20.706  0.0721  0.0688 -0.1318
 1885DOPG   GL144475   7.995  18.161  20.362  0.1420 -0.3452 -0.4023
 1885DOPG   GL244476   8.144  17.931  20.344 -0.0831  0.2084  0.0789
 1885DOPG   C1A44477   8.072  18.355  19.905 -0.0981 -0.0980  0.2577
 1885DOPG   D2A44478   8.464  18.426  19.634 -0.3007  0.0457  0.2781
 1885DOPG   C3A44479   8.860  18.154  19.580 -0.0610 -0.2575 -0.2176
 1885DOPG   C4A44480   9.190  18.150  19.857 -0.0983 -0.2651  0.1669
 1885DOPG   C1B44481   8.567  17.822  20.550 -0.1904 -0.0849  0.0442
 1885DOPG   D2B44482   9.061  17.984  20.340  0.3631 -0.0770 -0.2024
 1885DOPG   C3B44483   9.230  18.404  20.265  0.2598 -0.2763 -0.2067
 1885DOPG   C4B44484   9.416  18.621  20.644  0.0955  0.0727  0.0094
 1886DOPG   GL044485  23.250  23.251  20.681 -0.1605  0.3096  0.1789
 1886DOPG   PO444486  23.449  22.929  20.488 -0.2334 -0.0388 -0.0784
 1886DOPG   GL144487  23.544  22.563  20.205 -0.2499  0.2663 -0.0071
 1886DOPG   GL244488  23.575  22.194  20.338  0.1249 -0.1614  0.0821
 1886DOPG   C1A44489  23.854  22.338  19.818  0.2776  0.1061 -0.0940
 1886DOPG   D2A44490  24.020  21.906  19.653 -0.1903 -0.1601 -0.2336
 1886DOPG   C3A44491  24.169  21.545  19.839  0.3192 -0.1334 -0.2605
 1886DOPG   C4A44492  24.339  21.068  19.667 -0.0550  0.3557 -0.0169
 1886DOPG   C1B44493  23.960  21.986  20.272  0.2810 -0.1321  0.0616
 1886DOPG   D2B44494  24.131  21.636  20.305  0.1820 -0.0369  0.0968
 1886DOPG   C3B44495  24.264  21.358  20.594  0.1557 -0.2886  0.2245
 1886DOPG   C4B44496  24.690  21.305  20.573  0.1350 -0.0977 -0.1232
 1887DOPG   GL044497  19.644  18.133  23.276  0.0545  0.1061  0.0536
 1887DOPG   PO444498  19.295  18.398  23.093 -0.2463  0.6411  0.0138
 1887DOPG   GL144499  18.955  18.539  22.800 -0.1796  0.1925 -0.0140
 1887DOPG   GL244500  18.774  18.824  22.769  0.0288 -0.2394  0.1119
 1887DOPG   C1A44501  18.665  18.301  22.499 -0.0011  0.0549 -0.0341
 1887DOPG   D2A44502  18.277  18.337  22.328 -0.0770 -0.0958  0.1583
 1887DOPG   C3A44503  18.127  18.560  21.883 -0.1902  0.2110  0.0041
 1887DOPG   C4A44504  18.031  18.644  21.473  0.0128  0.3721 -0.1483
 1887DOPG   C1B44505  18.926  18.838  22.347  0.0699 -0.1857 -0.1653
 1887DOPG   D2B44506  18.854  18.601  22.061  0.3286 -0.1735 -0.0870
 1887DOPG   C3B44507  18.618  18.310  21.927  0.3939  0.1942 -0.0618
 1887DOPG   C4B44508  18.215  18.090  21.896  0.0482 -0.2779  0.1645
 1888DOPG   GL044509   8.165  23.646  20.882 -0.0881  0.0221 -0.2333
 1888DOPG   PO444510   7.841  23.598  21.221 -0.2326 -0.2459 -0.1556
 1888DOPG   GL144511   7.744  23.258  20.920 -0.3136 -0.1015  0.0650
 1888DOPG   GL244512   7.997  23.157  20.743 -0.2564 -0.0759 -0.0081
 1888DOPG   C1A44513   7.420  22.940  20.658  0.0469  0.1107 -0.0329
 1888DOPG   D2A44514   6.940  22.745  20.662  0.1252  0.3926 -0.0085
 1888DOPG   C3A44515   6.961  22.341  20.601 -0.4113  0.0840 -0.0494
 1888DOPG   C4A44516   7.195  22.069  20.401  0.0880 -0.0890  0.1663
 1888DOPG   C1B44517   8.013  22.669  20.726  0.1095  0.1714 -0.2485
 1888DOPG   D2B44518   8.018  22.186  20.517 -0.0436 -0.0837 -0.2466
 1888DOPG   C3B44519   7.895  21.746  20.629 -0.0242 -0.0010  0.0995
 1888DOPG   C4B44520   7.657  21.408  20.734 -0.0323  0.1333 -0.0786
 1889DOPG   GL044521   5.486  12.621  18.793 -0.0179  0.1988  0.0827
 1889DOPG   PO444522   5.369  12.227  19.035  0.2645 -0.4060 -0.1036
 1889DOPG   GL144523   5.764  12.233  18.815  0.1732 -0.0956  0.0803
 1889DOPG   GL244524   5.963  12.224  18.932 -0.2705 -0.0853 -0.2721
 1889DOPG   C1A44525   6.067  12.563  18.595 -0.0691  0.1608  0.0199
 1889DOPG   D2A44526   6.511  12.683  18.394  0.1555  0.2626  0.1506
 1889DOPG   C3A44527   6.743  12.690  18.817 -0.2379  0.1712  0.3586
 1889DOPG   C4A44528   7.098  12.476  19.043 -0.1403 -0.0329  0.3931
 1889DOPG   C1B44529   6.419  12.327  18.933  0.0440 -0.0571 -0.0326
 1889DOPG   D2B44530   6.786  12.231  18.550  0.3629 -0.1154 -0.1322
 1889DOPG   C3B44531   7.132  12.486  18.582 -0.1247  0.1574  0.0253
 1889DOPG   C4B44532   7.254  12.843  18.654  0.3947  0.3372 -0.0853
 1890DOPG   GL044533  20.036  11.745  21.047  0.2068  0.0931 -0.1715
 1890DOPG   PO444534  20.252  11.940  21.221  0.1814  0.1205  0.1573
 1890DOPG   GL144535  19.960  12.360  21.159 -0.0545 -0.0830 -0.0887
 1890DOPG   GL244536  20.165  12.553  21.366 -0.0342  0.3442 -0.0510
 1890DOPG   C1A44537  19.795  12.810  20.987  0.2746 -0.0765 -0.0403
 1890DOPG   D2A44538  19.339  12.929  20.932  0.0705  0.1587 -0.1247
 1890DOPG   C3A44539  19.204  13.481  20.936  0.0243 -0.2186 -0.0620
 1890DOPG   C4A44540  18.882  13.586  21.079 -0.0040 -0.0464 -0.1862
 1890DOPG   C1B44541  20.348  12.732  20.951 -0.0618  0.0458  0.1532
 1890DOPG   D2B44542  20.411  12.837  20.612  0.0969 -0.0558 -0.1688
 1890DOPG   C3B44543  20.356  12.995  20.186  0.1466  0.0586 -0.0703
 1890DOPG   C4B44544  20.308  13.175  19.724  0.1827 -0.1308  0.0043
 1891DOPG   GL044545  15.049  10.243  21.790  0.1074 -0.0571 -0.3230
 1891DOPG   PO444546  14.923  10.451  22.149  0.0913  0.1009  0.3028
 1891DOPG   GL144547  14.812  10.652  21.822  0.0919 -0.1423  0.0856
 1891DOPG   GL244548  14.727  11.005  21.773 -0.1568  0.2199  0.1234
 1891DOPG   C1A44549  14.397  10.637  21.556  0.0496 -0.1503 -0.0358
 1891DOPG   D2A44550  13.990  10.639  21.522 -0.1728  0.1645  0.2320
 1891DOPG   C3A44551  13.884  10.359  21.159 -0.0274 -0.2165  0.2117
 1891DOPG   C4A44552  13.831  10.005  20.854  0.0775  0.1169  0.0885
 1891DOPG   C1B44553  14.791  10.976  21.388 -0.2440  0.2224  0.1251
 1891DOPG   D2B44554  14.754  11.104  21.016 -0.2028 -0.0825  0.1865
 1891DOPG   C3B44555  14.336  11.245  20.754 -0.2456  0.0614  0.3399
 1891DOPG   C4B44556  14.286  11.405  20.323 -0.0238  0.3366 -0.2161
 1892DOPG   GL044557  25.965  13.575  19.627  0.0048 -0.0699  0.2691
 1892DOPG   PO444558  25.685  13.906  19.492 -0.2382 -0.3269 -0.0117
 1892DOPG   GL144559  25.202  13.852  19.485 -0.3301 -0.0977 -0.2831
 1892DOPG   GL244560  24.852  13.817  19.463 -0.0273  0.1395  0.0758
 1892DOPG   C1A44561  24.908  14.092  19.093 -0.1178 -0.2185 -0.0757
 1892DOPG   D2A44562  24.710  14.409  18.950  0.0096 -0.1378 -0.2509
 1892DOPG   C3A44563  24.780  14.816  18.940 -0.1990  0.0452 -0.1535
 1892DOPG   C4A44564  25.069  15.172  19.009 -0.3474  0.4057  0.0686
 1892DOPG   C1B44565  24.590  14.215  19.550 -0.0292 -0.0715 -0.0390
 1892DOPG   D2B44566  24.508  14.648  19.371 -0.3838  0.1357 -0.1966
 1892DOPG   C3B44567  24.028  14.569  19.360 -0.1331  0.0435 -0.2420
 1892DOPG   C4B44568  23.697  14.367  19.167 -0.3534 -0.1473 -0.1076
 1893DOPG   GL044569  19.193  17.782  23.207  0.0971  0.1819 -0.1252
 1893DOPG   PO444570  19.574  17.591  23.436 -0.0534  0.2377 -0.1221
 1893DOPG   GL144571  19.516  17.330  23.071 -0.1574  0.4253  0.0930
 1893DOPG   GL244572  19.447  16.945  23.072  0.1326 -0.0382 -0.1290
 1893DOPG   C1A44573  19.442  17.322  22.725 -0.0992  0.2070 -0.0918
 1893DOPG   D2A44574  19.290  17.148  22.320 -0.0755 -0.0133 -0.1785
 1893DOPG   C3A44575  19.274  17.229  21.854 -0.0251  0.4489 -0.1778
 1893DOPG   C4A44576  18.902  17.228  21.647  0.0154  0.0054 -0.1430
 1893DOPG   C1B44577  19.102  16.880  22.734 -0.0626  0.1495 -0.1212
 1893DOPG   D2B44578  18.788  16.707  22.475  0.1696 -0.2006  0.0423
 1893DOPG   C3B44579  18.456  16.961  22.477 -0.1048  0.0964  0.0079
 1893DOPG   C4B44580  18.162  17.316  22.421 -0.0214  0.2256  0.1134
 1894DOPG   GL044581  24.746  16.697  21.405  0.1479 -0.0255 -0.5281
 1894DOPG   PO444582  24.958  17.045  21.676 -0.1849 -0.0823 -0.0871
 1894DOPG   GL144583  24.848  17.388  21.403 -0.0420 -0.2941 -0.3154
 1894DOPG   GL244584  25.142  17.433  21.270  0.0144 -0.1265  0.0082
 1894DOPG   C1A44585  24.638  17.304  21.028 -0.0152  0.0504 -0.0067
 1894DOPG   D2A44586  24.292  17.047  20.870  0.1896 -0.0533  0.0809
 1894DOPG   C3A44587  24.082  16.823  20.596  0.0430 -0.0594 -0.1847
 1894DOPG   C4A44588  23.696  16.575  20.293  0.1481 -0.1979  0.1857
 1894DOPG   C1B44589  24.908  17.732  21.030  0.1682 -0.1366  0.1977
 1894DOPG   D2B44590  24.616  18.025  21.019  0.1329  0.0019  0.1544
 1894DOPG   C3B44591  24.582  18.449  21.232  0.0979  0.4514 -0.3985
 1894DOPG   C4B44592  24.394  18.858  21.103 -0.1328  0.2529  0.1810
 1895DOPG   GL044593  17.958  10.015  20.899  0.0383 -0.1676  0.1629
 1895DOPG   PO444594  17.894  10.448  21.085  0.1316 -0.0255  0.1294
 1895DOPG   GL144595  17.945  10.412  20.556 -0.2407  0.4441  0.0032
 1895DOPG   GL244596  18.106  10.297  20.326  0.4015 -0.2809  0.1958
 1895DOPG   C1A44597  17.608  10.475  20.296 -0.0596 -0.1160  0.1452
 1895DOPG   D2A44598  17.230  10.448  20.135  0.1031 -0.2633 -0.0073
 1895DOPG   C3A44599  17.100  10.465  19.733  0.0704  0.2252  0.1286
 1895DOPG   C4A44600  16.888  10.134  19.440  0.0428  0.1731 -0.0567
 1895DOPG   C1B44601  18.024  10.573  19.939 -0.1549  0.0374  0.0072
 1895DOPG   D2B44602  18.143  10.979  19.832 -0.1015 -0.0815  0.3786
 1895DOPG   C3B44603  18.341  11.283  20.112  0.1051  0.0727 -0.2900
 1895DOPG   C4B44604  18.138  11.361  20.440  0.1659 -0.2003 -0.0180
 1896DOPG   GL044605  12.074  23.976  20.681  0.1507 -0.1342  0.4547
 1896DOPG   PO444606  12.368  23.880  20.483 -0.2945  0.0476 -0.4484
 1896DOPG   GL144607  12.325  23.563  20.219  0.0628 -0.3837  0.2757
 1896DOPG   GL244608  12.744  23.627  20.102  0.0040 -0.0493  0.1016
 1896DOPG   C1A44609  12.335  23.151  20.015 -0.1758 -0.2048  0.0997
 1896DOPG   D2A44610  12.359  22.895  19.590 -0.5533 -0.0785  0.0921
 1896DOPG   C3A44611  12.226  22.702  19.194 -0.0919 -0.0359 -0.3282
 1896DOPG   C4A44612  12.281  22.283  19.154  0.0664 -0.3690 -0.2906
 1896DOPG   C1B44613  12.786  23.157  20.240 -0.1546  0.0556  0.0409
 1896DOPG   D2B44614  13.138  22.810  20.371  0.0147  0.1501 -0.1610
 1896DOPG   C3B44615  13.111  22.478  20.075  0.1877  0.1419  0.0786
 1896DOPG   C4B44616  13.096  22.243  19.696  0.1907 -0.0817 -0.0098
 1897DOPG   GL044617  14.428  21.222  22.491  0.2053  0.1916  0.1207
 1897DOPG   PO444618  14.668  21.249  22.250  0.2064  0.0540  0.1459
 1897DOPG   GL144619  14.777  20.911  22.030  0.0014  0.0435 -0.1605
 1897DOPG   GL244620  15.134  20.970  22.086 -0.0101  0.4492  0.0467
 1897DOPG   C1A44621  14.987  20.480  21.940 -0.0232 -0.0974 -0.2479
 1897DOPG   D2A44622  15.275  20.146  21.694  0.2611 -0.0844 -0.0496
 1897DOPG   C3A44623  15.646  20.050  21.662 -0.3246  0.3011 -0.2368
 1897DOPG   C4A44624  15.743  19.739  21.412 -0.3255 -0.3383  0.2917
 1897DOPG   C1B44625  15.047  20.974  21.576 -0.1610  0.1755 -0.1348
 1897DOPG   D2B44626  14.802  20.620  21.473  0.0369  0.1352 -0.4624
 1897DOPG   C3B44627  14.540  20.312  21.272 -0.3699 -0.0880 -0.1575
 1897DOPG   C4B44628  14.301  20.295  20.950  0.2616  0.2775  0.1538
 1898DOPG   GL044629   6.999  24.404  22.481 -0.2216  0.0169  0.1486
 1898DOPG   PO444630   6.909  24.108  22.670  0.1705  0.2817  0.0161
 1898DOPG   GL144631   7.089  23.787  22.806 -0.3475  0.1324  0.1031
 1898DOPG   GL244632   7.401  23.770  22.917 -0.0400  0.1586 -0.1347
 1898DOPG   C1A44633   7.161  23.323  22.708 -0.0596  0.0167  0.1292
 1898DOPG   D2A44634   7.304  23.074  22.561 -0.0299 -0.1396 -0.0764
 1898DOPG   C3A44635   7.002  22.684  22.549  0.0022 -0.0285 -0.3498
 1898DOPG   C4A44636   6.808  22.336  22.609  0.2805  0.0280  0.1528
 1898DOPG   C1B44637   7.651  23.387  22.860 -0.0766 -0.0044 -0.4515
 1898DOPG   D2B44638   7.904  22.990  22.973  0.1290  0.1677  0.0667
 1898DOPG   C3B44639   8.016  22.674  22.679  0.2611  0.1494 -0.0062
 1898DOPG   C4B44640   8.230  22.432  22.360  0.1823 -0.2153  0.3436
 1899DOPG   GL044641  10.518  14.756  22.934 -0.1740  0.1904  0.1686
 1899DOPG   PO444642  10.129  14.715  22.866  0.1830 -0.0127 -0.0225
 1899DOPG   GL144643  10.342  14.784  22.456  0.3802  0.1620 -0.1605
 1899DOPG   GL244644  10.321  15.115  22.391  0.2212 -0.3153 -0.0736
 1899DOPG   C1A44645  10.535  14.478  22.206 -0.1294  0.0307  0.1936
 1899DOPG   D2A44646  10.629  14.372  21.714 -0.0746 -0.0676 -0.1530
 1899DOPG   C3A44647  10.747  14.391  21.369  0.0225  0.2481  0.0194
 1899DOPG   C4A44648  10.812  14.792  21.156  0.0158 -0.1159 -0.0630
 1899DOPG   C1B44649  10.280  14.985  21.925  0.0426 -0.0268  0.0335
 1899DOPG   D2B44650   9.939  15.039  21.533  0.1819  0.0766  0.0834
 1899DOPG   C3B44651   9.835  15.244  21.135 -0.1835  0.3780 -0.0297
 1899DOPG   C4B44652   9.908  15.516  20.652  0.0169 -0.0947  0.0984
 1900DOPG   GL044653  13.896   8.234  21.308  0.1332 -0.0303 -0.2027
 1900DOPG   PO444654  13.612   7.950  21.329 -0.1139  0.0683 -0.0435
 1900DOPG   GL144655  13.540   8.104  20.908 -0.0437 -0.1007 -0.2227
 1900DOPG   GL244656  13.721   8.425  20.862  0.1346 -0.2698  0.0481
 1900DOPG   C1A44657  13.309   8.287  20.601 -0.2092  0.0651  0.1239
 1900DOPG   D2A44658  13.153   8.419  20.261  0.3933 -0.0943 -0.4259
 1900DOPG   C3A44659  12.671   8.468  20.020  0.0324  0.1802  0.2514
 1900DOPG   C4A44660  12.281   8.238  19.762  0.0596 -0.1257  0.1696
 1900DOPG   C1B44661  13.651   8.613  20.439 -0.0760 -0.2198  0.1906
 1900DOPG   D2B44662  13.582   8.769  20.042 -0.3131 -0.2134  0.1219
 1900DOPG   C3B44663  13.730   9.066  19.615  0.2003  0.1715 -0.1343
 1900DOPG   C4B44664  13.594   9.134  19.254 -0.0307  0.0940  0.0895
 1901DOPG   GL044665  13.230   7.410  20.710  0.1103 -0.0774  0.0244
 1901DOPG   PO444666  13.639   7.539  20.951  0.0433 -0.3099  0.1004
 1901DOPG   GL144667  13.575   7.809  20.559  0.0198 -0.0483  0.3630
 1901DOPG   GL244668  13.370   7.893  20.330  0.1232 -0.0259  0.2652
 1901DOPG   C1A44669  13.888   8.125  20.466 -0.0850 -0.2080 -0.1019
 1901DOPG   D2A44670  14.159   8.379  20.276  0.0293  0.1540 -0.0035
 1901DOPG   C3A44671  14.471   8.122  20.001 -0.0273  0.1306  0.0715
 1901DOPG   C4A44672  14.715   7.904  19.583  0.0352  0.1285 -0.0318
 1901DOPG   C1B44673  12.902   8.024  20.180 -0.0598 -0.1896 -0.0062
 1901DOPG   D2B44674  12.528   7.835  19.909 -0.0221 -0.0552 -0.2354
 1901DOPG   C3B44675  12.531   7.884  19.449 -0.0311  0.1524  0.0820
 1901DOPG   C4B44676  12.558   7.645  18.996  0.5318 -0.1423 -0.1809
 1902DOPG   GL044677  10.063  24.565  18.546  0.0346  0.0199  0.0879
 1902DOPG   PO444678  10.242  24.565  18.998 -0.1558 -0.1925 -0.3250
 1902DOPG   GL144679  10.151  24.066  18.819 -0.1488 -0.1688  0.2142
 1902DOPG   GL244680   9.954  23.977  19.076  0.0189  0.0745  0.2082
 1902DOPG   C1A44681   9.675  23.955  18.627  0.0866 -0.2461 -0.2498
 1902DOPG   D2A44682   9.584  23.563  18.355 -0.2464  0.0060 -0.2595
 1902DOPG   C3A44683   9.843  23.326  18.105  0.0089  0.3237  0.1775
 1902DOPG   C4A44684   9.778  23.296  17.643  0.2884 -0.4023  0.0585
 1902DOPG   C1B44685   9.907  23.566  18.897 -0.0501 -0.1296 -0.1781
 1902DOPG   D2B44686   9.847  23.173  18.685  0.0078 -0.2403 -0.0343
 1902DOPG   C3B44687   9.550  22.939  18.844  0.2859  0.3840  0.0077
 1902DOPG   C4B44688   9.321  22.647  18.922 -0.1101 -0.0595 -0.0640
 1903DOPG   GL044689  11.062   7.016  19.628  0.0005 -0.4566  0.2169
 1903DOPG   PO444690  11.025   7.225  20.054 -0.0698  0.2216  0.1039
 1903DOPG   GL144691  11.109   7.504  19.760 -0.3625 -0.0343  0.0841
 1903DOPG   GL244692  11.220   7.768  19.950 -0.3311 -0.0804  0.2531
 1903DOPG   C1A44693  10.966   7.867  19.544  0.1334 -0.0870 -0.1645
 1903DOPG   D2A44694  11.188   8.234  19.493  0.3325  0.0908 -0.0958
 1903DOPG   C3A44695  11.285   8.310  19.862 -0.0399 -0.0514 -0.0143
 1903DOPG   C4A44696  11.150   8.432  20.344  0.0818 -0.0437  0.0432
 1903DOPG   C1B44697  11.454   8.045  20.259  0.1304  0.0759 -0.1316
 1903DOPG   D2B44698  11.913   8.138  20.034 -0.1702 -0.1172 -0.2941
 1903DOPG   C3B44699  11.850   8.519  19.783 -0.0828  0.1547 -0.2618
 1903DOPG   C4B44700  11.923   8.953  19.806 -0.2288 -0.2731  0.0725
 1904DOPG   GL044701   9.038  19.515  22.344 -0.0892  0.0099  0.1061
 1904DOPG   PO444702   9.258  19.323  21.980 -0.1207  0.0595  0.0484
 1904DOPG   GL144703   9.487  19.178  21.581  0.2835  0.2551  0.2270
 1904DOPG   GL244704   9.652  19.482  21.404 -0.4416 -0.1701 -0.1252
 1904DOPG   C1A44705   9.693  18.946  21.291 -0.1489 -0.2106  0.0143
 1904DOPG   D2A44706   9.922  19.045  20.908  0.2692 -0.1830  0.0951
 1904DOPG   C3A44707  10.225  18.717  20.670 -0.0992  0.0816  0.0081
 1904DOPG   C4A44708  10.317  18.264  20.540 -0.0396  0.3215  0.1476
 1904DOPG   C1B44709   9.441  19.449  21.135 -0.0364  0.1762  0.0359
 1904DOPG   D2B44710   9.406  19.137  20.880  0.0727  0.0549 -0.1123
 1904DOPG   C3B44711   9.697  18.973  20.496  0.1556  0.3550 -0.0109
 1904DOPG   C4B44712   9.676  18.987  20.101 -0.2138  0.2223  0.2688
 1905DOPG   GL044713  17.169   8.822  20.427  0.1284  0.2106  0.2103
 1905DOPG   PO444714  17.132   9.161  20.120 -0.2910  0.0786  0.0825
 1905DOPG   GL144715  17.266   9.570  20.163 -0.0122 -0.4481  0.2548
 1905DOPG   GL244716  17.054   9.674  20.506  0.1869 -0.1541 -0.2020
 1905DOPG   C1A44717  17.124   9.842  19.996  0.2157 -0.3241 -0.2797
 1905DOPG   D2A44718  16.745  10.173  19.952  0.1486  0.2041  0.2547
 1905DOPG   C3A44719  16.336   9.981  19.960  0.2100  0.3920 -0.0843
 1905DOPG   C4A44720  16.048   9.833  19.769 -0.2818  0.0737  0.0701
 1905DOPG   C1B44721  17.332  10.003  20.387  0.0844 -0.1774  0.0487
 1905DOPG   D2B44722  17.753  10.050  20.109 -0.2537  0.2085  0.1499
 1905DOPG   C3B44723  17.620  10.240  19.801  0.0886 -0.1258  0.1454
 1905DOPG   C4B44724  17.565  10.515  19.575  0.2660 -0.1023 -0.0556
 1906DOPG   GL044725  13.937  25.091  19.583  0.0309  0.1202 -0.1069
 1906DOPG   PO444726  13.985  24.611  19.507  0.2381  0.1212  0.0764
 1906DOPG   GL144727  13.954  24.253  19.242 -0.0288  0.3406 -0.1884
 1906DOPG   GL244728  13.686  24.115  19.401  0.1121  0.0367  0.0986
 1906DOPG   C1A44729  13.920  23.926  18.908 -0.2441 -0.0518  0.0963
 1906DOPG   D2A44730  13.868  23.524  18.670 -0.0407  0.1916 -0.2028
 1906DOPG   C3A44731  13.531  23.503  18.385 -0.4102 -0.0907  0.1210
 1906DOPG   C4A44732  13.196  23.357  18.250 -0.1469 -0.0167 -0.3572
 1906DOPG   C1B44733  13.594  23.715  19.507  0.0674 -0.1051 -0.0227
 1906DOPG   D2B44734  13.435  23.395  19.415 -0.0668 -0.0479 -0.0721
 1906DOPG   C3B44735  13.603  23.075  19.535 -0.3809  0.1403  0.2335
 1906DOPG   C4B44736  13.456  22.716  19.840  0.0283  0.0047  0.0745
 1907DOPG   GL044737  11.210  15.654  23.332  0.0007  0.0016 -0.0876
 1907DOPG   PO444738  11.028  15.251  23.283  0.4849  0.1663  0.2678
 1907DOPG   GL144739  11.387  15.196  23.034 -0.0664 -0.3331 -0.2041
 1907DOPG   GL244740  11.251  15.164  22.672 -0.0735  0.1796 -0.5497
 1907DOPG   C1A44741  11.720  14.992  22.651  0.0589  0.0474 -0.2645
 1907DOPG   D2A44742  11.933  15.151  22.255 -0.2463  0.1134 -0.0664
 1907DOPG   C3A44743  12.444  14.905  22.242 -0.1835 -0.1874 -0.0428
 1907DOPG   C4A44744  12.871  15.085  22.131  0.2543 -0.2001  0.0069
 1907DOPG   C1B44745  11.537  15.453  22.518  0.0096  0.3396 -0.1770
 1907DOPG   D2B44746  11.801  15.742  22.326  0.1467 -0.1530  0.3938
 1907DOPG   C3B44747  11.972  15.637  21.844  0.1014  0.1302 -0.1255
 1907DOPG   C4B44748  12.473  15.628  21.630  0.1278  0.2256 -0.2055
 1908DOPG   GL044749  13.448  12.438  23.416  0.0818  0.0940 -0.2973
 1908DOPG   PO444750  13.334  12.246  23.150 -0.0270 -0.1784 -0.2113
 1908DOPG   GL144751  13.050  12.243  22.766 -0.4113  0.1052  0.2262
 1908DOPG   GL244752  12.768  12.258  22.676  0.1502 -0.1632 -0.0067
 1908DOPG   C1A44753  13.109  12.193  22.295  0.0262  0.1752 -0.0186
 1908DOPG   D2A44754  13.078  12.408  22.031  0.3607  0.0454 -0.0051
 1908DOPG   C3A44755  13.050  12.510  21.606  0.3451 -0.2640  0.0317
 1908DOPG   C4A44756  12.850  12.863  21.304 -0.1318 -0.1210 -0.0662
 1908DOPG   C1B44757  12.646  12.583  22.334  0.1816 -0.0262  0.3749
 1908DOPG   D2B44758  12.439  13.005  22.211 -0.1084 -0.1440  0.0550
 1908DOPG   C3B44759  12.424  13.414  22.570  0.0591  0.0824 -0.2003
 1908DOPG   C4B44760  12.180  13.834  22.760  0.1399 -0.0700  0.0866
 1909DOPG   GL044761  22.635  21.351  21.264  0.1868  0.1056 -0.0370
 1909DOPG   PO444762  22.348  21.094  21.014 -0.2778  0.1389 -0.3320
 1909DOPG   GL144763  22.383  21.031  20.500 -0.0120  0.2651 -0.3260
 1909DOPG   GL244764  22.511  20.760  20.644  0.0589 -0.0974 -0.0558
 1909DOPG   C1A44765  22.440  20.830  20.173 -0.1176 -0.2120  0.4565
 1909DOPG   D2A44766  22.394  20.865  19.699 -0.0595 -0.1538  0.1176
 1909DOPG   C3A44767  22.161  20.533  19.472 -0.1813 -0.0068  0.1410
 1909DOPG   C4A44768  22.000  20.119  19.589 -0.2378  0.0252  0.2472
 1909DOPG   C1B44769  22.146  20.412  20.537 -0.2564 -0.1810  0.0244
 1909DOPG   D2B44770  21.781  20.311  20.415 -0.0310 -0.2142 -0.1316
 1909DOPG   C3B44771  21.322  20.311  20.215  0.1146  0.1901 -0.0380
 1909DOPG   C4B44772  20.968  20.508  20.015 -0.0677 -0.3062 -0.1978
 1910DOPG   GL044773  14.246  12.895  23.259  0.4377 -0.0929 -0.1844
 1910DOPG   PO444774  14.646  13.000  23.330  0.2323 -0.1189 -0.1237
 1910DOPG   GL144775  14.574  13.311  23.118 -0.2461  0.2853 -0.0808
 1910DOPG   GL244776  14.380  13.625  23.181  0.4834 -0.0531  0.0372
 1910DOPG   C1A44777  14.476  13.309  22.683  0.2221 -0.1780  0.3933
 1910DOPG   D2A44778  14.621  13.306  22.200  0.0458  0.1353  0.0170
 1910DOPG   C3A44779  14.880  13.616  22.008 -0.1768  0.2552 -0.0967
 1910DOPG   C4A44780  14.948  13.733  21.651  0.1437  0.1562 -0.2269
 1910DOPG   C1B44781  14.192  13.727  22.793 -0.4048  0.0043  0.0221
 1910DOPG   D2B44782  13.999  13.965  22.456 -0.0263 -0.1009  0.0081
 1910DOPG   C3B44783  13.917  14.345  22.253 -0.0867 -0.1949  0.0498
 1910DOPG   C4B44784  14.053  14.462  21.825  0.2564  0.2416  0.0271
 1911DOPG   GL044785  19.784  15.298  23.332 -0.1119  0.0926 -0.2139
 1911DOPG   PO444786  19.856  15.571  22.958  0.0973 -0.2087 -0.1672
 1911DOPG   GL144787  19.887  15.753  22.553  0.2342  0.0022 -0.0456
 1911DOPG   GL244788  19.622  15.592  22.499  0.0079 -0.1863 -0.1955
 1911DOPG   C1A44789  19.922  15.743  22.087  0.2153  0.0973 -0.2512
 1911DOPG   D2A44790  20.046  15.684  21.647 -0.2757  0.0931  0.2475
 1911DOPG   C3A44791  20.115  15.964  21.490  0.0535 -0.0308 -0.0925
 1911DOPG   C4A44792  19.855  16.236  21.245 -0.2660 -0.2738 -0.0278
 1911DOPG   C1B44793  19.493  15.495  22.122  0.1973  0.1608 -0.2207
 1911DOPG   D2B44794  19.549  15.670  21.763  0.2625 -0.2336  0.0833
 1911DOPG   C3B44795  19.615  15.514  21.433  0.1000  0.0434 -0.2786
 1911DOPG   C4B44796  19.791  15.760  21.095 -0.4986 -0.0257  0.0373
 1912DOPG   GL044797  16.353  23.515  20.708  0.3013 -0.0335 -0.2904
 1912DOPG   PO444798  16.479  23.337  20.282 -0.2209 -0.0684 -0.1912
 1912DOPG   GL144799  16.272  22.909  20.129  0.1419  0.0394 -0.1030
 1912DOPG   GL244800  16.410  22.671  20.359  0.0915  0.1361 -0.3834
 1912DOPG   C1A44801  16.015  22.580  20.008  0.0057  0.1638 -0.3219
 1912DOPG   D2A44802  15.940  22.507  19.621  0.1799  0.2469  0.6030
 1912DOPG   C3A44803  15.629  22.877  19.435  0.1055  0.2380  0.0527
 1912DOPG   C4A44804  15.385  23.132  19.608 -0.2811 -0.1017  0.0841
 1912DOPG   C1B44805  16.509  22.497  19.938 -0.2933 -0.2651 -0.2735
 1912DOPG   D2B44806  16.411  22.464  19.481  0.3016  0.1583  0.1605
 1912DOPG   C3B44807  16.598  21.959  19.349  0.0377 -0.0996 -0.0938
 1912DOPG   C4B44808  16.881  21.667  19.209 -0.0783 -0.1177  0.3350
 1913DOPG   GL044809  14.488  24.254  20.588 -0.0885 -0.1223 -0.2777
 1913DOPG   PO444810  14.267  23.909  20.536 -0.0172  0.1055 -0.0059
 1913DOPG   GL144811  14.354  23.591  20.325 -0.0760 -0.1543  0.1758
 1913DOPG   GL244812  14.143  23.309  20.227  0.2373 -0.0119  0.1498
 1913DOPG   C1A44813  14.664  23.585  20.088  0.1271  0.0818 -0.0859
 1913DOPG   D2A44814  14.602  23.452  19.692  0.1302 -0.1005 -0.1445
 1913DOPG   C3A44815  14.304  23.678  19.427 -0.1064  0.0541  0.2813
 1913DOPG   C4A44816  13.880  23.409  19.176  0.3953  0.3646  0.2095
 1913DOPG   C1B44817  14.422  22.984  20.091 -0.2942 -0.2923  0.1769
 1913DOPG   D2B44818  14.624  22.928  19.703 -0.1937  0.0957 -0.2170
 1913DOPG   C3B44819  14.402  22.788  19.396  0.3345 -0.0357  0.2900
 1913DOPG   C4B44820  14.418  22.397  18.995  0.2631 -0.0078 -0.3609
 1914DOPG   GL044821   8.736  23.887  21.241 -0.3454  0.3396 -0.0546
 1914DOPG   PO444822   8.688  23.486  21.343 -0.1191  0.1397  0.1228
 1914DOPG   GL144823   8.389  23.273  21.179 -0.2989  0.0702  0.1384
 1914DOPG   GL244824   8.477  23.090  20.957 -0.0683 -0.2084 -0.0521
 1914DOPG   C1A44825   8.034  22.954  21.267 -0.1872  0.5469 -0.1946
 1914DOPG   D2A44826   7.660  22.701  21.128 -0.0578  0.0149  0.1753
 1914DOPG   C3A44827   7.307  22.852  21.293 -0.0203 -0.0364  0.2971
 1914DOPG   C4A44828   6.919  23.007  21.108 -0.0959  0.4839 -0.1201
 1914DOPG   C1B44829   8.403  22.672  21.044  0.0766  0.0311 -0.1041
 1914DOPG   D2B44830   8.340  22.229  20.972 -0.1735 -0.1406 -0.0463
 1914DOPG   C3B44831   8.638  21.971  20.715  0.0381 -0.0107 -0.0215
 1914DOPG   C4B44832   8.961  22.069  20.550 -0.0420 -0.2209 -0.3676
 1915DOPG   GL044833  19.000  19.110  23.479 -0.1322  0.2248 -0.1110
 1915DOPG   PO444834  18.571  18.948  23.652 -0.1239 -0.1458  0.0625
 1915DOPG   GL144835  18.381  18.773  23.252 -0.2235  0.3663  0.1613
 1915DOPG   GL244836  18.412  18.430  23.127 -0.0334 -0.1834  0.1693
 1915DOPG   C1A44837  18.249  18.861  22.733  0.1414  0.2783 -0.0137
 1915DOPG   D2A44838  18.316  18.856  22.287  0.2877  0.0558  0.2596
 1915DOPG   C3A44839  18.140  19.063  21.893  0.2580  0.3142 -0.2249
 1915DOPG   C4A44840  17.816  19.193  21.610  0.0488  0.1299 -0.1172
 1915DOPG   C1B44841  18.301  18.238  22.821 -0.1306  0.1245 -0.3242
 1915DOPG   D2B44842  17.997  17.983  22.638  0.1995 -0.3123  0.0972
 1915DOPG   C3B44843  17.936  17.801  22.300 -0.0738  0.3537  0.1478
 1915DOPG   C4B44844  18.161  17.537  21.967 -0.0738  0.1157  0.1701
 1916DOPG   GL044845   9.522  15.902  22.622  0.0634  0.1900  0.0984
 1916DOPG   PO444846   9.797  16.021  22.802 -0.1206  0.1708 -0.1342
 1916DOPG   GL144847  10.004  15.819  22.475  0.4068  0.0078 -0.0403
 1916DOPG   GL244848  10.276  16.022  22.339 -0.2782  0.2628 -0.0340
 1916DOPG   C1A44849  10.251  15.507  22.134 -0.0202  0.0371  0.0777
 1916DOPG   D2A44850  10.577  15.454  21.965  0.0231  0.2190  0.2767
 1916DOPG   C3A44851  10.741  15.054  21.788  0.0999  0.1185  0.2282
 1916DOPG   C4A44852  10.966  14.641  21.937  0.2404  0.2418  0.0401
 1916DOPG   C1B44853  10.618  15.925  22.056  0.0207  0.1714 -0.0399
 1916DOPG   D2B44854  11.018  16.168  21.905  0.2099  0.3535  0.0474
 1916DOPG   C3B44855  11.099  16.497  21.664 -0.0822 -0.2212  0.0458
 1916DOPG   C4B44856  11.331  16.466  21.301  0.0925  0.3175 -0.1461
 1917DOPG   GL044857  10.322  21.573  22.541 -0.2805  0.1241  0.0524
 1917DOPG   PO444858  10.220  21.681  22.095  0.1805  0.0841 -0.4062
 1917DOPG   GL144859  10.145  21.500  21.632  0.2368 -0.0295  0.2708
 1917DOPG   GL244860  10.296  21.241  21.652  0.1232  0.4730 -0.0324
 1917DOPG   C1A44861  10.364  21.693  21.313  0.0757  0.0162  0.1133
 1917DOPG   D2A44862  10.652  21.712  21.001  0.1423 -0.0877 -0.3115
 1917DOPG   C3A44863  11.120  21.638  20.926 -0.0179  0.0796  0.1218
 1917DOPG   C4A44864  11.557  21.644  20.799  0.1270 -0.0609 -0.1036
 1917DOPG   C1B44865  10.627  21.238  21.315 -0.2911  0.1841 -0.2022
 1917DOPG   D2B44866  10.853  21.000  20.930  0.2581 -0.0614 -0.2653
 1917DOPG   C3B44867  10.817  20.824  20.597  0.1960  0.0623 -0.0206
 1917DOPG   C4B44868  11.083  20.879  20.269  0.1207  0.1415  0.0752
 1918DOPG   GL044869  21.011  13.954  22.431 -0.1244  0.5721 -0.0469
 1918DOPG   PO444870  20.795  13.648  22.731  0.0938 -0.0582 -0.1080
 1918DOPG   GL144871  20.574  13.727  22.269  0.3063 -0.0886  0.4566
 1918DOPG   GL244872  20.763  13.548  21.966 -0.2533 -0.1349  0.0957
 1918DOPG   C1A44873  20.356  13.984  22.014 -0.2979 -0.1899 -0.0556
 1918DOPG   D2A44874  20.259  14.359  21.663 -0.0161 -0.3233  0.0746
 1918DOPG   C3A44875  20.502  14.758  21.770  0.1045  0.1199 -0.1903
 1918DOPG   C4A44876  20.751  14.780  22.134 -0.0883 -0.0460 -0.0421
 1918DOPG   C1B44877  20.859  13.948  21.800  0.0742  0.1222  0.0099
 1918DOPG   D2B44878  20.743  14.318  21.853  0.0770 -0.4782 -0.1653
 1918DOPG   C3B44879  20.849  14.583  21.494  0.2951  0.0257 -0.3034
 1918DOPG   C4B44880  20.985  14.786  21.141 -0.0861  0.2531  0.1794
 1919DOPG   GL044881  19.965  16.592  23.265  0.0215 -0.0852  0.0132
 1919DOPG   PO444882  20.297  16.818  22.960  0.1737 -0.0526 -0.1410
 1919DOPG   GL144883  19.852  16.624  22.773 -0.1417 -0.0803  0.1511
 1919DOPG   GL244884  19.450  16.436  22.931 -0.0231  0.0626  0.0563
 1919DOPG   C1A44885  19.604  16.828  22.479 -0.1846  0.0626 -0.0782
 1919DOPG   D2A44886  19.264  16.547  22.365 -0.4505  0.0771  0.3818
 1919DOPG   C3A44887  19.006  16.778  22.071 -0.1001  0.0441  0.3678
 1919DOPG   C4A44888  18.813  17.037  22.102  0.0374 -0.2197  0.1851
 1919DOPG   C1B44889  19.503  16.051  22.663  0.0227  0.1198 -0.0169
 1919DOPG   D2B44890  19.565  16.084  22.153  0.1642 -0.2215 -0.4008
 1919DOPG   C3B44891  19.783  16.305  21.918  0.4059  0.1576 -0.0259
 1919DOPG   C4B44892  20.048  16.625  21.854  0.0312 -0.1430  0.1885
 1920DOPG   GL044893  15.524  24.382  19.878 -0.0685 -0.2914 -0.2804
 1920DOPG   PO444894  15.597  23.951  19.750 -0.1472 -0.2547  0.0537
 1920DOPG   GL144895  15.733  23.539  19.712 -0.0109  0.0467 -0.1872
 1920DOPG   GL244896  16.016  23.437  19.903  0.2505 -0.0952  0.0462
 1920DOPG   C1A44897  15.649  23.393  19.277  0.0449 -0.0466  0.0741
 1920DOPG   D2A44898  15.607  23.114  19.002  0.3185  0.0926  0.1128
 1920DOPG   C3A44899  15.359  22.841  18.872  0.1409  0.0458 -0.2342
 1920DOPG   C4A44900  15.031  22.971  18.643  0.1248  0.0689 -0.1510
 1920DOPG   C1B44901  16.241  23.410  19.443  0.3339  0.3446 -0.0434
 1920DOPG   D2B44902  16.185  23.282  19.067  0.0659  0.0820  0.1711
 1920DOPG   C3B44903  16.047  22.910  19.131 -0.0613 -0.2254  0.0615
 1920DOPG   C4B44904  15.834  22.657  18.819  0.1413 -0.3082 -0.5689
 1921DOPG   GL044905   8.674  18.747  21.566 -0.0358  0.3035  0.3244
 1921DOPG   PO444906   8.992  18.367  21.705 -0.0331  0.0460  0.0670
 1921DOPG   GL144907   9.229  18.704  21.457 -0.0236  0.0268  0.0228
 1921DOPG   GL244908   9.172  18.896  21.275  0.1843 -0.0944 -0.3126
 1921DOPG   C1A44909   9.495  18.516  21.103  0.0299 -0.3702 -0.3417
 1921DOPG   D2A44910   9.893  18.571  21.060 -0.3004  0.0161 -0.2498
 1921DOPG   C3A44911  10.278  18.327  21.027 -0.4308  0.1060 -0.1293
 1921DOPG   C4A44912  10.395  17.923  20.890  0.0589 -0.1798 -0.0284
 1921DOPG   C1B44913   9.008  18.824  20.850  0.0523  0.1337 -0.2938
 1921DOPG   D2B44914   8.801  18.672  20.410  0.0364  0.1490 -0.0912
 1921DOPG   C3B44915   8.422  18.632  20.171 -0.0011 -0.3609  0.1187
 1921DOPG   C4B44916   8.002  18.606  20.296  0.0836  0.0521 -0.1890
 1922DOPG   GL044917  17.734  11.533  22.128  0.2397  0.0781 -0.0480
 1922DOPG   PO444918  17.528  11.882  22.193  0.4314 -0.2310  0.0599
 1922DOPG   GL144919  17.137  12.026  22.026 -0.0296 -0.0884 -0.1009
 1922DOPG   GL244920  17.108  12.339  22.102  0.2002  0.1798  0.1516
 1922DOPG   C1A44921  16.908  12.039  21.667  0.0101 -0.1014  0.1996
 1922DOPG   D2A44922  17.091  12.172  21.307 -0.1758 -0.2132  0.1099
 1922DOPG   C3A44923  17.211  11.995  20.989  0.1552 -0.1873 -0.0581
 1922DOPG   C4A44924  17.282  11.808  20.630 -0.0952 -0.0301  0.0023
 1922DOPG   C1B44925  17.331  12.761  21.956  0.0812  0.0873 -0.0744
 1922DOPG   D2B44926  17.595  12.930  21.713 -0.3573  0.0526 -0.3469
 1922DOPG   C3B44927  17.904  13.394  21.678  0.0501  0.0468 -0.1568
 1922DOPG   C4B44928  18.247  13.736  21.510  0.1490  0.0125  0.1298
 1923DOPG   GL044929  12.220  15.251  23.779  0.0685 -0.1119 -0.0393
 1923DOPG   PO444930  11.916  15.040  23.689  0.0508  0.2457  0.1329
 1923DOPG   GL144931  11.917  15.247  23.337 -0.0593  0.2747 -0.2271
 1923DOPG   GL244932  11.852  14.996  23.170  0.3010 -0.3967  0.1442
 1923DOPG   C1A44933  11.926  15.432  22.920  0.3413 -0.0579  0.3342
 1923DOPG   D2A44934  12.187  15.642  22.653  0.2003  0.2819  0.1954
 1923DOPG   C3A44935  12.361  15.861  22.258  0.0402 -0.2928 -0.0392
 1923DOPG   C4A44936  12.485  16.124  21.931  0.0469 -0.2913  0.0355
 1923DOPG   C1B44937  12.017  14.685  22.911 -0.2265  0.1862 -0.2025
 1923DOPG   D2B44938  12.287  14.639  22.675 -0.1134  0.0641 -0.1561
 1923DOPG   C3B44939  12.676  14.752  22.813 -0.2228  0.1600 -0.1280
 1923DOPG   C4B44940  12.940  15.034  22.622 -0.1661 -0.2998 -0.0253
 1924DOPG   GL044941  12.153   9.280  21.956 -0.1638  0.3439  0.1003
 1924DOPG   PO444942  11.877   9.484  21.619 -0.1305  0.1833 -0.1472
 1924DOPG   GL144943  11.928   9.512  21.290  0.1347  0.2760  0.0452
 1924DOPG   GL244944  12.039   9.702  21.255 -0.0184  0.1043  0.2814
 1924DOPG   C1A44945  11.848   9.265  20.954  0.1599  0.3495  0.1076
 1924DOPG   D2A44946  12.125   8.948  20.847 -0.1501 -0.3261 -0.0341
 1924DOPG   C3A44947  12.443   9.049  20.560  0.2284 -0.0396  0.0920
 1924DOPG   C4A44948  12.643   8.911  20.196  0.0085 -0.0163  0.0264
 1924DOPG   C1B44949  11.828  10.011  20.959  0.1157  0.3133 -0.2344
 1924DOPG   D2B44950  11.973  10.417  20.805 -0.3396 -0.0902 -0.0231
 1924DOPG   C3B44951  11.721  10.639  20.681 -0.3321 -0.0611 -0.3184
 1924DOPG   C4B44952  11.488  11.034  20.622  0.0769 -0.2765  0.4447
 1925DOPG   GL044953  17.260   8.374  19.148 -0.2150 -0.1349 -0.2603
 1925DOPG   PO444954  16.851   8.422  19.464 -0.1250 -0.0080  0.2341
 1925DOPG   GL144955  16.674   8.698  19.172 -0.4289  0.1013  0.1652
 1925DOPG   GL244956  16.920   9.008  19.065 -0.3034  0.2280  0.2404
 1925DOPG   C1A44957  16.348   8.985  19.044 -0.1276  0.3857 -0.2173
 1925DOPG   D2A44958  15.962   9.106  19.125 -0.4399  0.1350 -0.0375
 1925DOPG   C3A44959  15.553   9.246  19.046  0.2588  0.2281  0.0431
 1925DOPG   C4A44960  15.253   9.493  18.872 -0.0265 -0.1419  0.2200
 1925DOPG   C1B44961  17.124   9.264  18.756 -0.2068 -0.1582 -0.4397
 1925DOPG   D2B44962  17.351   9.193  18.351  0.1653 -0.1369  0.1880
 1925DOPG   C3B44963  17.153   9.425  18.062 -0.0060  0.2956  0.1618
 1925DOPG   C4B44964  17.120   9.611  17.685 -0.0650  0.0543  0.0459
 1926DOPG   GL044965  10.679  16.894  22.486  0.0878 -0.0091  0.0316
 1926DOPG   PO444966  10.344  16.764  22.715 -0.2290 -0.1124  0.4163
 1926DOPG   GL144967  10.200  16.572  22.343 -0.1783  0.0921 -0.0652
 1926DOPG   GL244968  10.502  16.485  22.060 -0.2882  0.0217 -0.0883
 1926DOPG   C1A44969  10.126  16.845  21.961  0.0743  0.2150 -0.2059
 1926DOPG   D2A44970  10.041  16.910  21.495 -0.0916  0.0604 -0.0483
 1926DOPG   C3A44971  10.391  17.135  21.323  0.3289  0.0123 -0.5021
 1926DOPG   C4A44972  10.727  17.092  21.196 -0.1315 -0.0190  0.0320
 1926DOPG   C1B44973  10.223  16.372  21.770  0.0514 -0.1832  0.0291
 1926DOPG   D2B44974  10.147  16.319  21.423 -0.0816  0.3549 -0.3991
 1926DOPG   C3B44975  10.398  16.075  21.183  0.0218 -0.1505 -0.1030
 1926DOPG   C4B44976  10.492  16.049  20.686 -0.2142  0.1287  0.0373
 1927DOPG   GL044977  11.923  22.443  21.725  0.2393 -0.0270 -0.1338
 1927DOPG   PO444978  11.962  22.048  21.803 -0.2540  0.2242  0.1103
 1927DOPG   GL144979  12.036  22.104  21.350  0.3179  0.1135 -0.1342
 1927DOPG   GL244980  12.373  22.114  21.293 -0.4105 -0.0386 -0.1514
 1927DOPG   C1A44981  11.946  22.033  20.900  0.3263  0.2708  0.0887
 1927DOPG   D2A44982  12.084  21.905  20.523  0.2367 -0.3094  0.1380
 1927DOPG   C3A44983  11.697  21.858  20.228  0.0966  0.0210  0.1675
 1927DOPG   C4A44984  11.480  21.696  19.898  0.0646  0.5237 -0.0340
 1927DOPG   C1B44985  12.402  21.662  21.342  0.0333  0.1285  0.0371
 1927DOPG   D2B44986  12.521  21.333  21.011  0.3528  0.1244  0.1792
 1927DOPG   C3B44987  12.506  20.877  21.002  0.1158 -0.2413 -0.1794
 1927DOPG   C4B44988  12.688  20.584  21.304 -0.1245  0.1368  0.3555
 1928DOPG   GL044989  18.365  17.169  23.576  0.0298 -0.0659  0.0460
 1928DOPG   PO444990  18.702  16.916  23.404  0.0515  0.3109 -0.1243
 1928DOPG   GL144991  18.610  17.140  23.134 -0.1409 -0.3992 -0.3387
 1928DOPG   GL244992  18.959  17.325  22.902 -0.1059  0.2047 -0.1939
 1928DOPG   C1A44993  18.243  17.172  22.882 -0.0466  0.2778 -0.0241
 1928DOPG   D2A44994  17.914  16.985  22.649 -0.1154  0.0714  0.0268
 1928DOPG   C3A44995  17.954  16.804  22.272 -0.4471 -0.1661 -0.0271
 1928DOPG   C4A44996  18.027  17.051  21.894 -0.2651 -0.0625 -0.0868
 1928DOPG   C1B44997  18.795  17.397  22.511  0.0834 -0.2896  0.2064
 1928DOPG   D2B44998  18.812  17.574  22.155  0.1675 -0.0659  0.3619
 1928DOPG   C3B44999  19.088  17.719  21.794 -0.0340  0.2086  0.1029
 1928DOPG   C4B45000  19.238  17.628  21.401  0.0437 -0.3053 -0.1808
 1929DOPG   GL045001  18.034  19.204  23.037 -0.1362  0.0704 -0.1325
 1929DOPG   PO445002  18.310  19.596  22.830 -0.1510  0.0802 -0.2533
 1929DOPG   GL145003  18.048  19.716  22.531  0.1172  0.1360  0.2559
 1929DOPG   GL245004  17.690  19.690  22.433  0.0339 -0.0794 -0.1750
 1929DOPG   C1A45005  17.914  19.778  22.037 -0.1893 -0.1467  0.0218
 1929DOPG   D2A45006  18.051  19.608  21.690  0.1883 -0.0513  0.0915
 1929DOPG   C3A45007  17.854  19.625  21.292  0.0305 -0.1187  0.0844
 1929DOPG   C4A45008  17.718  19.519  20.983 -0.1011  0.0069 -0.2208
 1929DOPG   C1B45009  17.524  19.377  22.056  0.0400  0.0919  0.2057
 1929DOPG   D2B45010  17.238  19.167  21.734  0.0120 -0.2871 -0.4112
 1929DOPG   C3B45011  16.838  19.383  21.547 -0.3410 -0.2558 -0.0136
 1929DOPG   C4B45012  16.897  19.760  21.382 -0.0957 -0.0507  0.0165
 1930DOPG   GL045013   6.295  15.056  20.674 -0.0683  0.2393  0.1280
 1930DOPG   PO445014   6.602  15.305  20.762  0.1093  0.1740 -0.0146
 1930DOPG   GL145015   6.765  14.915  20.548 -0.0995 -0.0380  0.0889
 1930DOPG   GL245016   6.764  14.909  20.185  0.1614 -0.1775 -0.0584
 1930DOPG   C1A45017   7.222  14.741  20.498  0.3280  0.1438 -0.1167
 1930DOPG   D2A45018   7.362  14.322  20.631 -0.1774 -0.2594  0.1031
 1930DOPG   C3A45019   7.727  14.340  20.994  0.0289 -0.0238 -0.2816
 1930DOPG   C4A45020   8.072  13.994  20.896 -0.3938  0.0323 -0.0688
 1930DOPG   C1B45021   6.712  15.172  19.837  0.1423  0.0289 -0.0745
 1930DOPG   D2B45022   6.665  15.502  19.602  0.0157  0.0085 -0.3331
 1930DOPG   C3B45023   6.516  15.530  19.094 -0.1642 -0.0072 -0.1862
 1930DOPG   C4B45024   6.235  15.364  18.756 -0.4147  0.1451 -0.0212
 1931DOPG   GL045025  15.347  19.525  23.514  0.1217  0.1388 -0.0327
 1931DOPG   PO445026  15.120  19.219  23.328 -0.0379 -0.0781 -0.0745
 1931DOPG   GL145027  14.906  19.058  23.006 -0.1049  0.2577 -0.1484
 1931DOPG   GL245028  15.146  18.949  22.911  0.1576  0.2838 -0.2574
 1931DOPG   C1A45029  14.694  18.656  22.873 -0.0420  0.0808  0.0347
 1931DOPG   D2A45030  14.859  18.396  22.505  0.1555 -0.1902 -0.3142
 1931DOPG   C3A45031  14.688  18.501  22.095 -0.2069  0.2559  0.0486
 1931DOPG   C4A45032  14.870  18.511  21.614 -0.2315 -0.1841 -0.4206
 1931DOPG   C1B45033  15.179  18.784  22.417  0.0831  0.0654 -0.3258
 1931DOPG   D2B45034  15.279  18.820  21.931  0.2002 -0.0161  0.1024
 1931DOPG   C3B45035  15.609  18.540  21.619 -0.4440 -0.3854 -0.0649
 1931DOPG   C4B45036  15.602  18.230  21.220  0.4351 -0.1334 -0.1413
 1932DOPG   GL045037   9.576  11.910  22.854 -0.0426 -0.0012  0.2546
 1932DOPG   PO445038   9.684  11.461  22.750 -0.1980 -0.5200 -0.0999
 1932DOPG   GL145039   9.704  11.361  22.405 -0.2300 -0.0239 -0.1761
 1932DOPG   GL245040   9.405  11.425  22.137 -0.1397 -0.1652 -0.2709
 1932DOPG   C1A45041   9.908  11.095  22.058 -0.1104 -0.0294 -0.0823
 1932DOPG   D2A45042  10.219  10.791  21.872 -0.0824  0.2047 -0.0271
 1932DOPG   C3A45043  10.688  10.985  21.932  0.1327  0.0685 -0.3150
 1932DOPG   C4A45044  10.884  11.375  21.879 -0.4491 -0.3834  0.3601
 1932DOPG   C1B45045   9.768  11.608  21.933 -0.1080 -0.2782  0.0182
 1932DOPG   D2B45046  10.147  11.761  22.044  0.0267  0.1098 -0.0655
 1932DOPG   C3B45047  10.446  11.628  21.924 -0.1130 -0.3322  0.2012
 1932DOPG   C4B45048  10.809  11.839  22.094  0.0626  0.3050  0.3071
 1933DOPG   GL045049  11.572  25.263  14.390 -0.1088  0.1240  0.3026
 1933DOPG   PO445050  11.424  25.166  14.790 -0.0781  0.0058 -0.3476
 1933DOPG   GL145051  11.432  24.727  14.987 -0.2225  0.2148 -0.2806
 1933DOPG   GL245052  11.561  24.453  14.836  0.0676 -0.0444  0.0182
 1933DOPG   C1A45053  11.215  24.541  15.275 -0.3575  0.3807 -0.2836
 1933DOPG   D2A45054  11.048  24.173  15.462  0.2164  0.3163  0.2004
 1933DOPG   C3A45055  10.784  23.878  15.449  0.4343 -0.0513  0.1466
 1933DOPG   C4A45056  10.752  23.465  15.301 -0.3089  0.0109 -0.1237
 1933DOPG   C1B45057  11.716  24.274  15.264  0.1134 -0.2093  0.2087
 1933DOPG   D2B45058  11.591  23.942  15.576  0.0666  0.1339  0.1062
 1933DOPG   C3B45059  11.548  23.501  15.722 -0.4956  0.0364  0.3394
 1933DOPG   C4B45060  11.528  23.140  15.956  0.0180  0.2392 -0.2693
 1934DOPG   GL045061  16.888  20.606  21.998  0.1927  0.1613 -0.0070
 1934DOPG   PO445062  16.873  21.084  22.160  0.0829  0.2614 -0.1717
 1934DOPG   GL145063  16.946  21.148  21.778  0.1927 -0.0095 -0.0473
 1934DOPG   GL245064  17.278  21.031  21.818  0.3323  0.0223 -0.1243
 1934DOPG   C1A45065  17.040  20.783  21.456  0.2416  0.3529  0.1901
 1934DOPG   D2A45066  16.905  20.391  21.289  0.2741  0.3761 -0.0033
 1934DOPG   C3A45067  17.237  20.477  20.989 -0.0025 -0.0694  0.2182
 1934DOPG   C4A45068  17.630  20.569  21.024  0.0537  0.5002 -0.1045
 1934DOPG   C1B45069  17.494  21.089  21.442  0.2878  0.0416 -0.1337
 1934DOPG   D2B45070  17.398  20.967  21.095 -0.1074  0.0831  0.2507
 1934DOPG   C3B45071  17.041  20.866  20.785  0.0802 -0.2420 -0.0682
 1934DOPG   C4B45072  16.792  20.536  20.684  0.2974  0.1613  0.0440
 1935DOPG   GL045073  22.172  22.622  20.210  0.0604 -0.2293 -0.2474
 1935DOPG   PO445074  22.676  22.545  20.370 -0.1329 -0.0703 -0.0222
 1935DOPG   GL145075  22.528  22.260  20.125  0.0696 -0.0233  0.0786
 1935DOPG   GL245076  22.295  22.361  19.837  0.0392  0.4631 -0.0418
 1935DOPG   C1A45077  22.527  21.935  20.106 -0.2754  0.1533  0.0817
 1935DOPG   D2A45078  22.209  21.635  20.328 -0.2247  0.0996 -0.1971
 1935DOPG   C3A45079  21.881  21.410  20.108 -0.1787  0.2818  0.0400
 1935DOPG   C4A45080  21.925  21.004  19.858 -0.0747 -0.0047  0.3277
 1935DOPG   C1B45081  22.432  22.033  19.580  0.0615 -0.2181 -0.0456
 1935DOPG   D2B45082  22.771  21.835  19.562  0.2833 -0.0600 -0.1283
 1935DOPG   C3B45083  23.114  21.967  19.362  0.0741  0.0647 -0.1143
 1935DOPG   C4B45084  23.240  22.373  19.103  0.2758  0.1986  0.0161
 1936DOPG   GL045085  16.719  15.504  24.556  0.0829 -0.1304  0.2168
 1936DOPG   PO445086  16.411  15.276  24.380 -0.1278 -0.0273 -0.2706
 1936DOPG   GL145087  16.124  15.569  24.175  0.1790 -0.1843  0.0552
 1936DOPG   GL245088  15.993  15.301  24.002 -0.3226  0.4274  0.1625
 1936DOPG   C1A45089  16.044  15.806  23.750  0.2080 -0.2625  0.1791
 1936DOPG   D2A45090  15.935  15.736  23.324  0.2569 -0.2186  0.0202
 1936DOPG   C3A45091  15.540  15.873  23.209  0.2528 -0.1299  0.1816
 1936DOPG   C4A45092  15.305  16.232  23.158  0.2655 -0.1395  0.0961
 1936DOPG   C1B45093  15.697  15.438  23.612 -0.0352  0.1291 -0.1747
 1936DOPG   D2B45094  15.292  15.434  23.449  0.0527 -0.0201 -0.1657
 1936DOPG   C3B45095  15.089  15.024  23.546 -0.1609  0.1119 -0.0846
 1936DOPG   C4B45096  15.073  14.635  23.490 -0.1259  0.0579  0.0507
 1937DOPG   GL045097  17.884  20.835  22.501 -0.4236 -0.0941 -0.1645
 1937DOPG   PO445098  17.691  21.008  22.165  0.1435 -0.0226  0.0787
 1937DOPG   GL145099  17.722  20.861  21.754  0.2558  0.2543 -0.1426
 1937DOPG   GL245100  17.962  20.874  21.634  0.1797 -0.0035 -0.2782
 1937DOPG   C1A45101  17.462  20.513  21.530 -0.0501 -0.4532 -0.0625
 1937DOPG   D2A45102  17.207  20.258  21.798  0.0131  0.1450 -0.1135
 1937DOPG   C3A45103  17.244  19.802  21.861 -0.2063 -0.2791 -0.3262
 1937DOPG   C4A45104  17.555  19.649  21.671 -0.0621  0.0594  0.1575
 1937DOPG   C1B45105  17.975  20.974  21.116 -0.0209 -0.1085 -0.0114
 1937DOPG   D2B45106  17.744  21.205  20.815 -0.0307  0.0232  0.2007
 1937DOPG   C3B45107  17.338  21.250  20.594 -0.1555 -0.0467  0.1645
 1937DOPG   C4B45108  16.931  21.338  20.556  0.0644 -0.0448  0.1082
 1938DOPG   GL045109  15.293   6.944  17.911  0.1666 -0.1415  0.0987
 1938DOPG   PO445110  15.462   7.390  18.079  0.3213 -0.0053  0.0089
 1938DOPG   GL145111  15.401   7.910  18.106  0.0029 -0.1379  0.4155
 1938DOPG   GL245112  15.330   7.931  18.325  0.0295  0.0222  0.0185
 1938DOPG   C1A45113  15.365   8.248  17.821  0.2331  0.0231  0.1492
 1938DOPG   D2A45114  15.312   8.589  17.549 -0.2423 -0.1534 -0.1739
 1938DOPG   C3A45115  15.155   8.750  17.260  0.2698  0.2218 -0.0430
 1938DOPG   C4A45116  15.065   8.802  16.783  0.0892 -0.1014  0.6014
 1938DOPG   C1B45117  15.154   8.337  18.294  0.2948  0.0207 -0.3153
 1938DOPG   D2B45118  14.990   8.728  18.370  0.4021  0.3054 -0.3581
 1938DOPG   C3B45119  15.087   9.142  18.383 -0.1022  0.2311 -0.3387
 1938DOPG   C4B45120  15.028   9.516  18.411  0.0281 -0.0117 -0.1572
 1939DOPG   GL045121  21.774  19.570  21.846 -0.1067 -0.2392  0.0296
 1939DOPG   PO445122  22.135  20.010  21.813 -0.1238 -0.2176  0.1609
 1939DOPG   GL145123  22.157  19.924  21.375 -0.0021 -0.1899 -0.0879
 1939DOPG   GL245124  21.876  19.902  21.150 -0.1109  0.0788  0.0618
 1939DOPG   C1A45125  22.416  20.047  21.040  0.1447  0.1767  0.4413
 1939DOPG   D2A45126  22.629  19.684  20.819  0.0196 -0.0787  0.4952
 1939DOPG   C3A45127  22.888  19.848  20.505  0.0720 -0.0325 -0.0403
 1939DOPG   C4A45128  23.266  19.738  20.310  0.1288 -0.0255  0.0105
 1939DOPG   C1B45129  21.670  19.982  20.794 -0.0670 -0.3292  0.1759
 1939DOPG   D2B45130  21.547  19.857  20.338  0.0906 -0.0234  0.1181
 1939DOPG   C3B45131  21.658  20.160  19.936  0.1219 -0.0603  0.0738
 1939DOPG   C4B45132  21.704  20.543  19.631  0.2045  0.0604  0.1152
 1940DOPG   GL045133  11.075  14.385  22.880 -0.1940  0.2999  0.0794
 1940DOPG   PO445134  11.337  13.980  23.061 -0.1571 -0.0107  0.1805
 1940DOPG   GL145135  11.639  14.121  22.667  0.0061  0.1485  0.0261
 1940DOPG   GL245136  11.527  14.357  22.520  0.1745  0.4873  0.0451
 1940DOPG   C1A45137  12.055  14.195  22.532 -0.0731 -0.3890  0.3244
 1940DOPG   D2A45138  12.360  14.398  22.243  0.4676 -0.0486  0.0187
 1940DOPG   C3A45139  12.747  14.509  22.357  0.0898 -0.2421 -0.1702
 1940DOPG   C4A45140  12.978  14.404  22.636  0.1567  0.2357 -0.0986
 1940DOPG   C1B45141  11.416  14.747  22.337 -0.3826  0.0003 -0.2967
 1940DOPG   D2B45142  11.192  15.068  22.003  0.1434 -0.0238 -0.2693
 1940DOPG   C3B45143  11.460  15.047  21.664 -0.0336 -0.1088 -0.2051
 1940DOPG   C4B45144  11.723  14.871  21.335 -0.2398 -0.1822  0.0702
 1941DOPG   GL045145   7.770  19.513  20.780  0.1418 -0.1409  0.0943
 1941DOPG   PO445146   7.777  19.130  20.925  0.0759  0.0002  0.0523
 1941DOPG   GL145147   7.598  19.136  20.525  0.3687  0.0358  0.0183
 1941DOPG   GL245148   7.363  19.031  20.269 -0.4396  0.0818 -0.0079
 1941DOPG   C1A45149   7.835  19.089  20.161  0.0257 -0.0272  0.1513
 1941DOPG   D2A45150   8.243  19.031  19.888  0.0646  0.0977 -0.1229
 1941DOPG   C3A45151   8.434  19.415  19.657 -0.2090  0.1166  0.1148
 1941DOPG   C4A45152   8.802  19.606  19.747 -0.0937 -0.1453 -0.0136
 1941DOPG   C1B45153   7.438  19.319  20.002 -0.3130  0.0351  0.0340
 1941DOPG   D2B45154   7.156  19.465  19.597  0.0808  0.0623 -0.0633
 1941DOPG   C3B45155   7.028  19.850  19.463  0.1845  0.1695  0.0558
 1941DOPG   C4B45156   6.645  19.960  19.715  0.2054  0.0510 -0.2001
 1942DOPG   GL045157  19.847   9.587  18.454 -0.1718 -0.2057  0.0813
 1942DOPG   PO445158  20.224   9.613  18.371 -0.3060 -0.3506  0.2058
 1942DOPG   GL145159  20.314   9.205  18.502 -0.0423 -0.1625  0.2971
 1942DOPG   GL245160  20.303   9.163  18.798  0.4979  0.4308 -0.1032
 1942DOPG   C1A45161  20.540   8.812  18.613  0.1269 -0.0457  0.2890
 1942DOPG   D2A45162  20.756   8.519  18.759  0.0017  0.3490 -0.1036
 1942DOPG   C3A45163  20.664   8.054  18.831 -0.0788  0.1254 -0.2075
 1942DOPG   C4A45164  20.604   7.612  19.004 -0.0078 -0.0932  0.4689
 1942DOPG   C1B45165  20.629   9.017  19.096  0.2511  0.0216 -0.0633
 1942DOPG   D2B45166  21.043   8.791  19.061  0.3806 -0.0205 -0.0496
 1942DOPG   C3B45167  21.083   8.350  19.091 -0.0335 -0.1121  0.2796
 1942DOPG   C4B45168  21.184   7.960  18.921  0.1112  0.1359  0.0874
 1943DOPG   GL045169  10.376  22.245  21.418  0.3258 -0.2746  0.1153
 1943DOPG   PO445170  10.637  22.485  21.154 -0.0276 -0.0531 -0.1539
 1943DOPG   GL145171  10.597  22.204  20.899  0.1229  0.1075 -0.2123
 1943DOPG   GL245172  10.898  22.054  20.719 -0.2149 -0.0931  0.1101
 1943DOPG   C1A45173  10.190  22.045  20.664  0.0261  0.2559 -0.1036
 1943DOPG   D2A45174  10.142  21.619  20.463 -0.1481  0.1011  0.0059
 1943DOPG   C3A45175   9.806  21.458  20.155  0.2025 -0.1820 -0.0257
 1943DOPG   C4A45176   9.528  21.445  19.856  0.0067  0.0183 -0.3737
 1943DOPG   C1B45177  10.606  21.774  20.435  0.0534 -0.0507  0.2458
 1943DOPG   D2B45178  10.329  21.770  20.031  0.1982  0.1895  0.0923
 1943DOPG   C3B45179  10.550  22.003  19.763  0.1669 -0.0012 -0.1139
 1943DOPG   C4B45180  10.999  22.050  19.631  0.1075  0.3048 -0.1930
 1944DOPG   GL045181  14.590   8.039  20.540  0.1146  0.0642 -0.1141
 1944DOPG   PO445182  15.004   8.158  20.385  0.1671  0.1241  0.2222
 1944DOPG   GL145183  15.120   8.401  19.962 -0.0708  0.3939 -0.2061
 1944DOPG   GL245184  15.271   8.227  19.724 -0.0567 -0.1253 -0.1867
 1944DOPG   C1A45185  14.838   8.427  19.678  0.0454 -0.1056 -0.1336
 1944DOPG   D2A45186  14.586   8.649  19.329 -0.0103 -0.2326  0.2356
 1944DOPG   C3A45187  14.595   9.110  19.256  0.0728 -0.0981  0.1384
 1944DOPG   C4A45188  14.701   9.418  19.055  0.0043 -0.1519  0.0976
 1944DOPG   C1B45189  15.408   8.633  19.703 -0.1635 -0.1751  0.1003
 1944DOPG   D2B45190  15.635   8.970  19.514 -0.2764 -0.1201  0.1458
 1944DOPG   C3B45191  15.530   9.251  19.841  0.1670 -0.0945 -0.0368
 1944DOPG   C4B45192  15.700   9.497  20.051  0.0780  0.2430  0.0731
 1945DOPG   GL045193  17.400  23.048  21.602  0.1361  0.2615 -0.1280
 1945DOPG   PO445194  17.462  22.654  21.229  0.0018  0.1354  0.0393
 1945DOPG   GL145195  17.561  22.313  20.974  0.0079  0.0029  0.0778
 1945DOPG   GL245196  17.814  22.009  21.038  0.0805  0.2505  0.1696
 1945DOPG   C1A45197  17.410  21.855  20.818 -0.1424  0.0072 -0.1333
 1945DOPG   D2A45198  17.197  21.834  20.453  0.3432  0.0071 -0.0877
 1945DOPG   C3A45199  17.347  22.072  20.030 -0.2289  0.0482 -0.4085
 1945DOPG   C4A45200  17.599  22.481  20.018  0.2801  0.2473  0.2151
 1945DOPG   C1B45201  17.992  22.107  20.674 -0.3559  0.1957  0.0668
 1945DOPG   D2B45202  18.375  21.997  20.424  0.2142  0.1262 -0.2871
 1945DOPG   C3B45203  18.450  21.609  20.579  0.0631  0.0693 -0.1551
 1945DOPG   C4B45204  18.639  21.182  20.511  0.1538 -0.3579 -0.2119
 1946DOPG   GL045205   7.217  10.203  20.024  0.0268 -0.1224 -0.1838
 1946DOPG   PO445206   7.508  10.213  19.708 -0.1830  0.3884  0.3031
 1946DOPG   GL145207   7.800  10.130  19.391  0.3021  0.3388  0.2133
 1946DOPG   GL245208   8.083  10.012  19.695  0.1493 -0.0350  0.2557
 1946DOPG   C1A45209   7.816  10.364  18.989 -0.1462 -0.1597  0.1652
 1946DOPG   D2A45210   8.123  10.409  18.682  0.0740  0.3895 -0.2142
 1946DOPG   C3A45211   8.530  10.594  18.762 -0.0947 -0.0339  0.0689
 1946DOPG   C4A45212   8.703  10.589  19.113  0.1342  0.4871 -0.2234
 1946DOPG   C1B45213   8.286  10.304  19.997 -0.3736 -0.3665 -0.0732
 1946DOPG   D2B45214   8.769  10.205  19.980  0.0969  0.2066  0.1604
 1946DOPG   C3B45215   8.838  10.572  20.050 -0.1900  0.3097  0.1088
 1946DOPG   C4B45216   9.153  10.918  19.850  0.1464  0.1830 -0.3327
 1947DOPG   GL045217  18.360  12.227  22.997  0.1865 -0.0222  0.1557
 1947DOPG   PO445218  18.508  12.105  22.576  0.0478  0.2579  0.1494
 1947DOPG   GL145219  18.576  12.346  22.163 -0.1553  0.0828  0.1767
 1947DOPG   GL245220  18.548  12.669  22.027  0.0629  0.3120 -0.4127
 1947DOPG   C1A45221  18.847  12.378  21.778 -0.0385 -0.1074 -0.1093
 1947DOPG   D2A45222  19.133  12.486  21.432  0.0366  0.0509  0.0302
 1947DOPG   C3A45223  19.244  12.398  20.951  0.1983 -0.1462  0.0226
 1947DOPG   C4A45224  19.379  12.463  20.451 -0.2378 -0.2350 -0.1683
 1947DOPG   C1B45225  18.521  12.810  21.599  0.0260  0.0093  0.0968
 1947DOPG   D2B45226  18.772  12.748  21.215 -0.2070  0.3133  0.0221
 1947DOPG   C3B45227  18.805  13.003  20.942  0.0166 -0.1216  0.0679
 1947DOPG   C4B45228  18.560  13.386  20.747  0.1225  0.2787  0.0450
 1948DOPG   GL045229  21.362  11.366  20.023 -0.0984 -0.2076 -0.2695
 1948DOPG   PO445230  20.910  11.237  19.875  0.0908  0.0917  0.1053
 1948DOPG   GL145231  21.040  11.748  19.888 -0.2108 -0.0500  0.1639
 1948DOPG   GL245232  21.364  11.851  19.761 -0.2013 -0.0227  0.1352
 1948DOPG   C1A45233  21.075  12.183  19.963 -0.1451  0.2812 -0.3959
 1948DOPG   D2A45234  21.171  12.509  19.815 -0.3461  0.0458  0.4534
 1948DOPG   C3A45235  21.027  12.673  19.557  0.0950 -0.0138  0.0217
 1948DOPG   C4A45236  20.877  13.163  19.479  0.0514 -0.1189 -0.1378
 1948DOPG   C1B45237  21.295  12.193  19.445  0.1881  0.1211 -0.0879
 1948DOPG   D2B45238  21.369  12.547  19.077  0.2553  0.1013  0.1873
 1948DOPG   C3B45239  21.747  12.857  19.014 -0.2286  0.0089 -0.2030
 1948DOPG   C4B45240  21.799  13.203  18.674 -0.2400  0.4424  0.2607
 1949DOPG   GL045241  16.555  16.375  24.042  0.1884 -0.1899 -0.1450
 1949DOPG   PO445242  16.599  16.024  24.097  0.0169  0.1212  0.4030
 1949DOPG   GL145243  16.560  15.858  23.824 -0.0445 -0.2360 -0.3548
 1949DOPG   GL245244  16.841  15.874  23.690  0.0051  0.0053  0.0352
 1949DOPG   C1A45245  16.390  15.932  23.352  0.1815  0.1935  0.2326
 1949DOPG   D2A45246  16.310  15.832  22.892  0.0751 -0.1115 -0.2912
 1949DOPG   C3A45247  15.980  16.074  22.550 -0.0656 -0.3007 -0.0192
 1949DOPG   C4A45248  15.978  16.532  22.324 -0.0159  0.2296  0.0039
 1949DOPG   C1B45249  16.608  15.534  23.509  0.2268  0.0214  0.0284
 1949DOPG   D2B45250  16.474  15.356  23.158 -0.1710 -0.1049  0.0709
 1949DOPG   C3B45251  16.554  15.389  22.752 -0.0358 -0.0315 -0.4354
 1949DOPG   C4B45252  16.620  15.718  22.503  0.0004  0.0776 -0.0285
 1950DOPG   GL045253   7.040  16.926  20.757  0.0253  0.0532 -0.2023
 1950DOPG   PO445254   6.973  16.763  20.478 -0.2134 -0.0356  0.2823
 1950DOPG   GL145255   7.225  17.069  20.082 -0.1298  0.2613 -0.1567
 1950DOPG   GL245256   7.525  16.962  20.278  0.0237  0.1037 -0.0255
 1950DOPG   C1A45257   7.207  17.091  19.644  0.3842 -0.0371  0.0118
 1950DOPG   D2A45258   7.170  16.891  19.380 -0.0896 -0.0502 -0.0661
 1950DOPG   C3A45259   6.977  17.199  19.051  0.0371 -0.0336  0.0623
 1950DOPG   C4A45260   6.758  17.462  18.762 -0.2842  0.0768 -0.1382
 1950DOPG   C1B45261   7.791  16.587  20.127  0.0198 -0.0646 -0.0377
 1950DOPG   D2B45262   8.101  16.461  19.876 -0.1411  0.0045 -0.0378
 1950DOPG   C3B45263   8.345  16.727  19.673 -0.1029  0.1437 -0.0267
 1950DOPG   C4B45264   8.496  17.206  19.752  0.4378 -0.4769 -0.1435
 1951DOPG   GL045265  14.758  23.250  20.437  0.0298  0.0847 -0.1463
 1951DOPG   PO445266  14.948  22.958  20.631 -0.3138  0.1607 -0.1246
 1951DOPG   GL145267  15.239  22.682  20.560  0.1541  0.0217 -0.0177
 1951DOPG   GL245268  15.460  22.661  20.770  0.0002 -0.1449 -0.3977
 1951DOPG   C1A45269  15.382  22.255  20.348 -0.0534 -0.1383 -0.2644
 1951DOPG   D2A45270  15.324  21.789  20.379  0.0732 -0.1863 -0.0757
 1951DOPG   C3A45271  15.075  21.588  20.184 -0.0060  0.0618  0.3943
 1951DOPG   C4A45272  14.733  21.482  19.987  0.1389  0.3609 -0.0148
 1951DOPG   C1B45273  15.905  22.465  20.516 -0.0276  0.0721 -0.2122
 1951DOPG   D2B45274  16.247  22.197  20.681  0.1003 -0.0511  0.1825
 1951DOPG   C3B45275  16.287  21.797  20.634  0.1947 -0.2726  0.0329
 1951DOPG   C4B45276  16.504  21.603  20.374 -0.1994  0.0226  0.0169
 1952DOPG   GL045277   9.257  19.978  22.003  0.3721  0.1893  0.0154
 1952DOPG   PO445278   9.582  19.900  22.101  0.2665 -0.1269  0.1367
 1952DOPG   GL145279   9.841  19.887  21.692 -0.2763  0.0137  0.0384
 1952DOPG   GL245280   9.536  20.012  21.565 -0.3145  0.3168 -0.0885
 1952DOPG   C1A45281  10.211  19.625  21.474 -0.0609  0.0061 -0.0159
 1952DOPG   D2A45282  10.406  19.330  21.186 -0.4474  0.1442  0.2370
 1952DOPG   C3A45283  10.360  19.372  20.764 -0.0170  0.2089  0.0493
 1952DOPG   C4A45284  10.141  19.206  20.398  0.2604  0.1242 -0.0531
 1952DOPG   C1B45285   9.736  19.928  21.191  0.0234 -0.0325  0.1753
 1952DOPG   D2B45286   9.942  19.524  20.981  0.1240 -0.0176 -0.1274
 1952DOPG   C3B45287   9.695  19.442  20.603  0.2542  0.2984  0.0897
 1952DOPG   C4B45288   9.270  19.193  20.401 -0.1468 -0.1678  0.1774
 1953DOPG   GL045289  16.778  24.470  17.178  0.0577 -0.1373 -0.0613
 1953DOPG   PO445290  16.812  24.591  17.627  0.2759  0.4038 -0.0336
 1953DOPG   GL145291  16.444  24.367  17.796  0.0043  0.4283 -0.0800
 1953DOPG   GL245292  16.542  24.159  17.514  0.1085 -0.1110 -0.0360
 1953DOPG   C1A45293  16.556  24.041  18.092 -0.1928  0.0047 -0.5601
 1953DOPG   D2A45294  16.456  23.905  18.554  0.1325 -0.1270 -0.0617
 1953DOPG   C3A45295  16.241  23.748  18.815  0.0807 -0.0815 -0.0669
 1953DOPG   C4A45296  15.983  23.733  19.179 -0.1274 -0.2485 -0.2545
 1953DOPG   C1B45297  16.043  24.098  17.502 -0.2238  0.0045 -0.3510
 1953DOPG   D2B45298  15.717  23.902  17.591  0.0024  0.0278 -0.1817
 1953DOPG   C3B45299  15.328  24.047  17.315  0.0343  0.3126 -0.0482
 1953DOPG   C4B45300  15.102  24.381  17.069  0.1023 -0.1896  0.1873
 1954DOPG   GL045301  22.201  18.252  21.860  0.0480 -0.3199  0.0692
 1954DOPG   PO445302  22.076  17.921  22.059  0.1700 -0.0084 -0.0084
 1954DOPG   GL145303  21.925  17.788  21.653  0.0957 -0.2183 -0.0432
 1954DOPG   GL245304  21.991  17.943  21.526  0.0136  0.3506  0.1385
 1954DOPG   C1A45305  21.726  17.492  21.446  0.2256  0.1145 -0.0862
 1954DOPG   D2A45306  21.296  17.303  21.755  0.1860  0.3274  0.3506
 1954DOPG   C3A45307  20.848  17.128  21.542 -0.2793  0.1004  0.1350
 1954DOPG   C4A45308  20.493  17.110  21.218 -0.1947  0.0397  0.4348
 1954DOPG   C1B45309  21.910  17.820  21.073 -0.2541 -0.1083  0.0445
 1954DOPG   D2B45310  21.903  17.771  20.640  0.2935 -0.2569  0.0891
 1954DOPG   C3B45311  21.600  18.050  20.341 -0.4537  0.0211  0.2152
 1954DOPG   C4B45312  21.469  17.899  19.959  0.1156  0.1413  0.2617
 1955DOPG   GL045313  24.341  13.203  20.326  0.2820  0.3434 -0.0511
 1955DOPG   PO445314  24.179  13.381  19.870 -0.0285 -0.2324 -0.5319
 1955DOPG   GL145315  23.897  13.432  19.643  0.0538  0.2158  0.3665
 1955DOPG   GL245316  23.654  13.180  19.393  0.2227 -0.0399 -0.1781
 1955DOPG   C1A45317  23.899  13.560  19.122 -0.4374 -0.1268 -0.0325
 1955DOPG   D2A45318  23.765  13.904  18.933  0.4566 -0.1406 -0.0527
 1955DOPG   C3A45319  23.787  14.035  18.470  0.1117 -0.0493 -0.1763
 1955DOPG   C4A45320  23.617  14.351  18.320  0.1556  0.1651 -0.0383
 1955DOPG   C1B45321  23.399  13.381  19.658  0.0879 -0.2577 -0.1221
 1955DOPG   D2B45322  23.142  13.502  20.048  0.0206 -0.0883 -0.1767
 1955DOPG   C3B45323  22.690  13.643  20.022  0.2930  0.1451  0.0202
 1955DOPG   C4B45324  22.302  13.863  19.828  0.0268  0.0028  0.0732
 1956DOPG   GL045325  13.795   9.699  22.005  0.2000  0.1605  0.0884
 1956DOPG   PO445326  13.730  10.139  22.192  0.1842 -0.1718  0.1592
 1956DOPG   GL145327  13.884  10.148  21.677 -0.1370 -0.0303 -0.0371
 1956DOPG   GL245328  13.912   9.780  21.471 -0.0440  0.0898  0.1808
 1956DOPG   C1A45329  14.274  10.194  21.374 -0.1864  0.2792 -0.0770
 1956DOPG   D2A45330  14.379  10.386  21.008 -0.1466  0.1944  0.1808
 1956DOPG   C3A45331  14.747  10.647  20.907 -0.1326 -0.0067 -0.1220
 1956DOPG   C4A45332  15.170  10.775  20.937 -0.3675 -0.0426 -0.2676
 1956DOPG   C1B45333  13.590  10.023  21.323 -0.1872  0.3530 -0.3317
 1956DOPG   D2B45334  13.342  10.271  21.095  0.1218  0.2282 -0.1080
 1956DOPG   C3B45335  13.457  10.665  21.012 -0.3088 -0.2598 -0.1807
 1956DOPG   C4B45336  13.643  11.058  21.157  0.1006 -0.1725 -0.1716
 1957DOPG   GL045337  11.051  18.444  22.864 -0.0485 -0.2974  0.2726
 1957DOPG   PO445338  11.414  18.533  22.780 -0.0797 -0.2472 -0.1644
 1957DOPG   GL145339  11.698  18.346  22.463  0.0543  0.0740  0.0339
 1957DOPG   GL245340  11.744  17.972  22.508  0.1391 -0.4331  0.2238
 1957DOPG   C1A45341  11.845  18.186  21.941  0.1812 -0.5373  0.2265
 1957DOPG   D2A45342  12.163  18.132  21.548 -0.2487 -0.1828 -0.3260
 1957DOPG   C3A45343  11.983  18.032  21.207  0.1037 -0.1117  0.0179
 1957DOPG   C4A45344  11.675  17.735  21.088 -0.0184 -0.2154  0.0327
 1957DOPG   C1B45345  11.884  17.689  22.225  0.1128 -0.0547  0.3483
 1957DOPG   D2B45346  12.098  17.462  21.982 -0.1157  0.1944  0.2103
 1957DOPG   C3B45347  12.456  17.811  21.853 -0.1069  0.0250 -0.1033
 1957DOPG   C4B45348  12.771  17.991  21.929  0.1481 -0.2513  0.0202
 1958DOPG   GL045349  11.708  15.733  23.305  0.0331  0.0649  0.0365
 1958DOPG   PO445350  11.929  15.719  23.748 -0.0712 -0.0880  0.6229
 1958DOPG   GL145351  12.183  15.640  23.420 -0.1932 -0.0194  0.0313
 1958DOPG   GL245352  12.233  15.902  23.149  0.0619 -0.3842 -0.1666
 1958DOPG   C1A45353  12.410  15.455  23.078  0.0819  0.0875 -0.1131
 1958DOPG   D2A45354  12.405  15.177  22.671 -0.2609  0.1718 -0.2912
 1958DOPG   C3A45355  12.711  15.423  22.427  0.0858 -0.2446 -0.0176
 1958DOPG   C4A45356  13.117  15.588  22.342  0.0057  0.0985 -0.0559
 1958DOPG   C1B45357  11.995  16.002  22.983 -0.1377  0.0703  0.0180
 1958DOPG   D2B45358  11.639  15.837  22.834 -0.1289 -0.0601  0.0068
 1958DOPG   C3B45359  11.489  16.147  22.505 -0.0981  0.1529  0.0414
 1958DOPG   C4B45360  11.442  16.617  22.519  0.2128 -0.0311  0.0369
 1959DOPG   GL045361  12.797  22.518  22.071  0.1337 -0.2334  0.3289
 1959DOPG   PO445362  12.546  22.570  21.697 -0.1207  0.4763  0.2246
 1959DOPG   GL145363  12.922  22.454  21.295 -0.1794  0.0204 -0.0791
 1959DOPG   GL245364  13.199  22.290  21.345  0.0345 -0.1307  0.2858
 1959DOPG   C1A45365  12.836  22.298  20.971  0.1070 -0.1434  0.1375
 1959DOPG   D2A45366  12.334  22.485  20.886 -0.0795  0.0089 -0.3167
 1959DOPG   C3A45367  11.938  22.434  20.606  0.0941 -0.0198 -0.2274
 1959DOPG   C4A45368  11.751  22.343  20.177  0.4320  0.3042 -0.1256
 1959DOPG   C1B45369  13.305  21.949  21.106 -0.2432 -0.0487  0.2481
 1959DOPG   D2B45370  13.524  21.900  20.681 -0.1900 -0.0419 -0.1018
 1959DOPG   C3B45371  13.878  21.583  20.572  0.1009 -0.0733  0.1601
 1959DOPG   C4B45372  14.250  21.732  20.541  0.1053 -0.1247 -0.0197
 1960DOPG   GL045373   8.394  11.841  21.424  0.2622 -0.1559  0.4124
 1960DOPG   PO445374   8.209  11.533  21.214 -0.1569 -0.0891  0.0107
 1960DOPG   GL145375   8.328  11.193  20.887  0.2105 -0.1239  0.1224
 1960DOPG   GL245376   8.482  10.866  20.837  0.2319  0.3016  0.0083
 1960DOPG   C1A45377   8.203  11.208  20.439  0.0131 -0.1832  0.3197
 1960DOPG   D2A45378   8.161  11.571  20.108 -0.1693 -0.0007  0.2141
 1960DOPG   C3A45379   8.096  11.938  20.280 -0.0046  0.0453  0.1562
 1960DOPG   C4A45380   8.166  12.399  20.085 -0.0189  0.0046 -0.0094
 1960DOPG   C1B45381   8.878  10.809  20.827 -0.2567 -0.0954  0.2664
 1960DOPG   D2B45382   9.174  11.126  20.791 -0.2935 -0.2261 -0.1634
 1960DOPG   C3B45383   9.498  11.130  20.436 -0.1212 -0.1135  0.0389
 1960DOPG   C4B45384   9.670  11.268  19.987 -0.0116  0.4624 -0.0806
 1961DOPG   GL045385  22.037  11.301  18.720 -0.3089 -0.2386 -0.3324
 1961DOPG   PO445386  21.645  11.118  18.499 -0.2166 -0.0148  0.0332
 1961DOPG   GL145387  21.604  11.525  18.566 -0.3387  0.0805 -0.0184
 1961DOPG   GL245388  21.539  11.663  18.323  0.2420 -0.4233 -0.2100
 1961DOPG   C1A45389  21.461  11.968  18.827  0.0888  0.1458 -0.0203
 1961DOPG   D2A45390  21.221  12.359  18.664 -0.1015 -0.0473 -0.0098
 1961DOPG   C3A45391  20.849  12.258  18.421 -0.1476 -0.1105  0.1824
 1961DOPG   C4A45392  20.542  12.416  18.116 -0.2382  0.1098 -0.0554
 1961DOPG   C1B45393  21.460  12.125  18.279  0.1437 -0.1013  0.0754
 1961DOPG   D2B45394  21.220  12.530  18.156  0.1001  0.0046  0.3084
 1961DOPG   C3B45395  20.984  12.641  17.796 -0.3203  0.1935  0.0967
 1961DOPG   C4B45396  21.062  12.703  17.357  0.1390  0.1311  0.0652
 1962DOPG   GL045397  17.123  16.298  23.775 -0.1810 -0.1235  0.0626
 1962DOPG   PO445398  17.324  16.048  23.578  0.0170 -0.0368  0.1190
 1962DOPG   GL145399  17.503  16.066  23.256 -0.0256  0.0617 -0.0879
 1962DOPG   GL245400  17.643  16.325  23.109 -0.3943  0.2223  0.3713
 1962DOPG   C1A45401  17.610  15.713  22.988  0.0711 -0.1573  0.1685
 1962DOPG   D2A45402  17.430  15.348  23.028  0.2528 -0.0351 -0.2523
 1962DOPG   C3A45403  17.144  15.130  22.758 -0.0884  0.1297  0.3309
 1962DOPG   C4A45404  16.809  15.050  22.454  0.0157 -0.1363  0.0908
 1962DOPG   C1B45405  17.515  16.133  22.767  0.1246 -0.1652 -0.1423
 1962DOPG   D2B45406  17.429  16.093  22.315  0.0871 -0.0629 -0.3986
 1962DOPG   C3B45407  17.765  16.382  22.019  0.1768  0.0631  0.1732
 1962DOPG   C4B45408  17.619  16.763  21.881  0.0784  0.0361  0.2370
 1963DOPG   GL045409  16.445  22.787  21.764 -0.0343  0.2759 -0.1563
 1963DOPG   PO445410  16.273  22.333  21.803 -0.1514  0.0017  0.1696
 1963DOPG   GL145411  16.178  21.968  21.618  0.0649 -0.0654 -0.0188
 1963DOPG   GL245412  16.293  21.745  21.706  0.2290  0.1295 -0.3598
 1963DOPG   C1A45413  15.827  21.793  21.286 -0.3513  0.0937 -0.3105
 1963DOPG   D2A45414  15.888  21.553  20.874  0.1045 -0.0379  0.0018
 1963DOPG   C3A45415  15.651  21.163  20.826  0.2606  0.0082 -0.1264
 1963DOPG   C4A45416  15.442  20.727  20.828 -0.0796  0.2612 -0.1025
 1963DOPG   C1B45417  16.618  21.465  21.598  0.1743  0.2303  0.1479
 1963DOPG   D2B45418  16.531  21.063  21.557  0.2263  0.0462  0.0026
 1963DOPG   C3B45419  16.132  21.008  21.569 -0.0343 -0.1120 -0.0759
 1963DOPG   C4B45420  15.732  21.058  21.308  0.1051  0.0972  0.1907
 1964DOPG   GL045421  14.203  15.929  24.170  0.2534  0.1077 -0.2141
 1964DOPG   PO445422  14.505  15.730  24.340 -0.2119  0.2986 -0.0217
 1964DOPG   GL145423  14.620  15.811  23.888 -0.2238  0.0529 -0.1964
 1964DOPG   GL245424  14.581  16.103  23.603 -0.0098  0.1954 -0.0772
 1964DOPG   C1A45425  14.910  15.754  23.438  0.1190  0.2535 -0.1194
 1964DOPG   D2A45426  15.101  15.814  23.036  0.0983  0.0676 -0.0208
 1964DOPG   C3A45427  14.830  15.706  22.670  0.0645  0.1479  0.1010
 1964DOPG   C4A45428  14.665  15.516  22.252 -0.2705 -0.2028 -0.2680
 1964DOPG   C1B45429  14.554  16.145  23.208  0.0540  0.1289  0.0709
 1964DOPG   D2B45430  14.762  16.170  22.776 -0.0460 -0.1056  0.3929
 1964DOPG   C3B45431  15.084  16.488  22.814  0.0222 -0.1733  0.3746
 1964DOPG   C4B45432  15.145  16.890  22.626 -0.0944  0.3009 -0.0022
 1965DOPG   GL045433  19.058  21.837  21.802  0.1757 -0.2882 -0.0183
 1965DOPG   PO445434  18.664  21.823  21.995  0.0324  0.1596  0.0857
 1965DOPG   GL145435  18.579  21.724  21.578  0.1071 -0.0967 -0.2743
 1965DOPG   GL245436  18.660  21.971  21.346 -0.1894  0.0761  0.1052
 1965DOPG   C1A45437  18.430  21.358  21.417  0.1239 -0.0925 -0.2645
 1965DOPG   D2A45438  18.531  20.951  21.182  0.1219  0.1502  0.2791
 1965DOPG   C3A45439  18.571  20.468  21.167  0.1681  0.0397 -0.2225
 1965DOPG   C4A45440  18.562  20.155  20.943 -0.1178 -0.0454  0.2827
 1965DOPG   C1B45441  18.810  21.647  20.938 -0.0452 -0.1767  0.2288
 1965DOPG   D2B45442  18.991  21.276  20.820 -0.1688 -0.1217 -0.2483
 1965DOPG   C3B45443  19.468  21.182  20.667  0.0217 -0.2395 -0.0847
 1965DOPG   C4B45444  19.574  21.197  20.276  0.0444 -0.0140 -0.0656
 1966DOPG   GL045445  11.365  10.413  22.868 -0.1139 -0.2943 -0.1949
 1966DOPG   PO445446  11.516  10.124  22.800 -0.0492  0.1809 -0.2059
 1966DOPG   GL145447  11.632  10.365  22.415  0.5148 -0.2948 -0.0487
 1966DOPG   GL245448  11.516  10.125  22.188  0.2784 -0.0547  0.3064
 1966DOPG   C1A45449  11.615  10.627  22.107 -0.0530 -0.0769 -0.2961
 1966DOPG   D2A45450  11.725  10.732  21.616  0.1422  0.1155  0.1106
 1966DOPG   C3A45451  11.308  10.635  21.404  0.0028  0.0290 -0.1467
 1966DOPG   C4A45452  11.067  10.709  21.028  0.1490  0.1282 -0.1655
 1966DOPG   C1B45453  11.452  10.256  21.720 -0.1714 -0.1346  0.1347
 1966DOPG   D2B45454  11.581  10.151  21.374  0.1834  0.2016 -0.0343
 1966DOPG   C3B45455  11.488  10.359  21.007 -0.3995 -0.2405  0.0299
 1966DOPG   C4B45456  11.440  10.228  20.599  0.0516  0.2928  0.1354
 1967DOPG   GL045457  22.392  13.302  21.884 -0.1265  0.0137  0.1364
 1967DOPG   PO445458  22.501  13.691  21.654  0.3435  0.2269  0.0365
 1967DOPG   GL145459  22.445  13.935  21.311 -0.1348 -0.1963 -0.1161
 1967DOPG   GL245460  22.265  13.861  21.074  0.3247  0.0225 -0.1296
 1967DOPG   C1A45461  22.678  14.234  21.235  0.0315  0.1971  0.1010
 1967DOPG   D2A45462  22.763  14.648  21.272  0.0887 -0.0868  0.0627
 1967DOPG   C3A45463  23.110  14.920  21.195  0.2193 -0.0388 -0.3432
 1967DOPG   C4A45464  23.414  14.992  20.852 -0.2638  0.1456 -0.0015
 1967DOPG   C1B45465  22.424  14.019  20.694 -0.0685  0.2962 -0.1990
 1967DOPG   D2B45466  22.427  14.152  20.305 -0.2071  0.1061 -0.0833
 1967DOPG   C3B45467  22.281  14.546  20.372  0.1079  0.2465 -0.1329
 1967DOPG   C4B45468  21.977  14.643  20.721 -0.0535  0.1235  0.0901
 1968DOPG   GL045469  13.254  15.688  23.957 -0.0894  0.0233 -0.0515
 1968DOPG   PO445470  13.649  15.459  23.986  0.0686 -0.0758 -0.1660
 1968DOPG   GL145471  13.856  15.219  23.699  0.1566  0.1258 -0.0970
 1968DOPG   GL245472  13.641  15.132  23.468 -0.1186  0.0510  0.2217
 1968DOPG   C1A45473  14.132  15.190  23.300  0.1895 -0.3611  0.1975
 1968DOPG   D2A45474  14.109  15.240  22.854  0.2501  0.2831  0.0516
 1968DOPG   C3A45475  13.823  15.178  22.441  0.1016  0.1122  0.0801
 1968DOPG   C4A45476  13.668  14.838  22.117 -0.2782 -0.2340  0.1741
 1968DOPG   C1B45477  13.636  15.053  23.017 -0.2343  0.1238  0.1733
 1968DOPG   D2B45478  13.347  14.775  22.741 -0.3609 -0.1225 -0.1469
 1968DOPG   C3B45479  13.237  14.756  22.340 -0.1111 -0.0869  0.1905
 1968DOPG   C4B45480  13.215  14.871  21.898 -0.3117  0.3408 -0.0320
 1969DOPG   GL045481  12.915  24.818  19.510 -0.0953  0.0760  0.1398
 1969DOPG   PO445482  12.636  24.821  19.188  0.0376 -0.2751 -0.2993
 1969DOPG   GL145483  12.454  24.537  19.435 -0.2368 -0.1424 -0.4033
 1969DOPG   GL245484  12.601  24.341  19.421  0.0408  0.0770  0.2725
 1969DOPG   C1A45485  12.085  24.183  19.437 -0.1361  0.1582 -0.1355
 1969DOPG   D2A45486  11.982  23.798  19.338 -0.3572  0.0508 -0.3452
 1969DOPG   C3A45487  11.862  23.667  18.995  0.0117  0.2469  0.1142
 1969DOPG   C4A45488  11.682  23.650  18.600 -0.1857 -0.1086  0.0161
 1969DOPG   C1B45489  12.421  24.076  19.134 -0.0011 -0.0042 -0.0379
 1969DOPG   D2B45490  12.334  23.712  18.812  0.0384  0.0097 -0.0064
 1969DOPG   C3B45491  12.137  23.431  18.588  0.0721 -0.0968 -0.1925
 1969DOPG   C4B45492  12.045  23.541  18.124 -0.2580 -0.0836  0.0965
 1970DOPG   GL045493   7.577  24.170  19.433 -0.4036 -0.1792  0.1471
 1970DOPG   PO445494   7.554  23.726  19.471  0.0196 -0.1535 -0.1937
 1970DOPG   GL145495   7.927  23.701  19.202 -0.1810 -0.1246 -0.0200
 1970DOPG   GL245496   8.006  23.906  18.889 -0.0120 -0.1089 -0.1371
 1970DOPG   C1A45497   8.369  23.761  19.161 -0.2663  0.1650 -0.2416
 1970DOPG   D2A45498   8.869  23.810  19.195 -0.2467 -0.1440 -0.2340
 1970DOPG   C3A45499   9.019  23.491  18.697 -0.1010 -0.0269 -0.3747
 1970DOPG   C4A45500   9.087  23.663  18.275 -0.0161  0.0806  0.1012
 1970DOPG   C1B45501   8.152  23.396  18.888 -0.2376 -0.0476 -0.0414
 1970DOPG   D2B45502   8.184  22.980  18.898 -0.0776 -0.1253 -0.1675
 1970DOPG   C3B45503   8.576  22.883  18.997 -0.0429  0.0314  0.1165
 1970DOPG   C4B45504   8.912  22.651  19.224  0.0062 -0.0177  0.1166
 1971DOPG   GL045505  17.239  11.161  21.598  0.1771  0.5404  0.2492
 1971DOPG   PO445506  16.926  10.988  21.791  0.1191 -0.0142 -0.0232
 1971DOPG   GL145507  16.745  11.114  21.547 -0.0288  0.0841 -0.4678
 1971DOPG   GL245508  16.779  11.550  21.557  0.0459  0.2248 -0.0783
 1971DOPG   C1A45509  16.552  11.291  21.192  0.1486  0.1995 -0.2388
 1971DOPG   D2A45510  16.492  11.457  20.808 -0.2014  0.0504 -0.1219
 1971DOPG   C3A45511  16.275  11.817  20.770  0.1064 -0.0690  0.1085
 1971DOPG   C4A45512  16.318  12.145  20.515 -0.0442 -0.1001 -0.0805
 1971DOPG   C1B45513  16.598  11.813  21.260  0.0184  0.0012  0.0243
 1971DOPG   D2B45514  16.728  12.130  20.972  0.2032  0.0455  0.0626
 1971DOPG   C3B45515  16.916  12.549  20.975 -0.3202  0.0375 -0.2238
 1971DOPG   C4B45516  17.223  12.836  20.761  0.0136 -0.0278  0.0462
 1972DOPG   GL045517  23.613  17.574  22.382 -0.0457  0.1611 -0.2668
 1972DOPG   PO445518  23.630  17.366  21.976  0.2003  0.1050 -0.0052
 1972DOPG   GL145519  23.412  17.569  21.700 -0.2820 -0.0183  0.0982
 1972DOPG   GL245520  23.487  17.204  21.513  0.1022  0.0755  0.0985
 1972DOPG   C1A45521  23.212  17.674  21.339  0.0712 -0.3057  0.0362
 1972DOPG   D2A45522  22.790  17.737  21.122  0.4391  0.0604 -0.2049
 1972DOPG   C3A45523  22.727  17.471  20.852  0.0178 -0.5687  0.0388
 1972DOPG   C4A45524  22.644  17.221  20.550  0.0467 -0.0069  0.1170
 1972DOPG   C1B45525  23.379  16.873  21.140  0.0063 -0.1334  0.2024
 1972DOPG   D2B45526  23.288  16.562  20.918 -0.0976  0.3061 -0.3418
 1972DOPG   C3B45527  22.959  16.201  20.981  0.0380  0.1864  0.0090
 1972DOPG   C4B45528  22.598  15.873  20.926  0.0699  0.0343 -0.3188
 1973DOPG   GL045529  20.023  13.822  22.539  0.1622  0.0255  0.0772
 1973DOPG   PO445530  19.907  14.134  22.619  0.1003 -0.1153 -0.0230
 1973DOPG   GL145531  19.464  14.137  22.465 -0.0626 -0.1039 -0.0329
 1973DOPG   GL245532  19.438  14.422  22.412  0.0409  0.1350 -0.1649
 1973DOPG   C1A45533  19.339  14.181  21.962  0.0285  0.1101  0.2730
 1973DOPG   D2A45534  19.367  14.233  21.594  0.1185  0.0215  0.0839
 1973DOPG   C3A45535  19.206  13.927  21.225 -0.0427  0.0257  0.1915
 1973DOPG   C4A45536  18.959  14.045  20.842 -0.0030 -0.2069 -0.0861
 1973DOPG   C1B45537  19.228  14.628  22.048  0.0050 -0.1527  0.0708
 1973DOPG   D2B45538  18.843  14.824  21.869 -0.3298 -0.2147  0.0956
 1973DOPG   C3B45539  18.863  15.189  21.709  0.0686  0.2769  0.2479
 1973DOPG   C4B45540  19.072  15.580  21.816  0.0349  0.0417  0.2742
 1974DOPG   GL045541  21.282  24.226  18.932 -0.1161 -0.0931  0.2262
 1974DOPG   PO445542  21.431  23.775  19.079 -0.4365  0.0085 -0.1366
 1974DOPG   GL145543  21.306  23.436  19.086 -0.4043  0.0641 -0.0409
 1974DOPG   GL245544  21.064  23.393  19.349 -0.2193 -0.1942 -0.2699
 1974DOPG   C1A45545  20.913  23.217  18.881 -0.1456  0.1621 -0.1123
 1974DOPG   D2A45546  21.073  22.790  18.721 -0.1495  0.2481 -0.0585
 1974DOPG   C3A45547  21.010  22.369  18.809 -0.2019  0.0543  0.1324
 1974DOPG   C4A45548  21.116  22.013  19.069 -0.0332  0.1650  0.0643
 1974DOPG   C1B45549  20.731  23.106  19.435  0.2069 -0.0471 -0.1598
 1974DOPG   D2B45550  20.652  22.814  19.158 -0.2271  0.2529  0.4665
 1974DOPG   C3B45551  20.273  22.787  18.971 -0.4350  0.0720 -0.2160
 1974DOPG   C4B45552  19.925  22.790  19.195 -0.2485  0.2639  0.0254
 1975DOPG   GL045553  22.721  19.670  21.354  0.1162 -0.0582  0.2878
 1975DOPG   PO445554  22.753  19.286  21.528 -0.0417 -0.3975 -0.4040
 1975DOPG   GL145555  22.448  19.238  21.156  0.0378  0.2110  0.0770
 1975DOPG   GL245556  22.272  19.482  21.127  0.0672 -0.1173  0.0690
 1975DOPG   C1A45557  22.352  19.077  20.767 -0.6660  0.1165 -0.2291
 1975DOPG   D2A45558  22.251  19.360  20.392 -0.2612  0.3351  0.2201
 1975DOPG   C3A45559  22.443  19.726  20.268  0.3322  0.2695  0.2451
 1975DOPG   C4A45560  22.554  20.197  20.281  0.1009 -0.0655  0.1423
 1975DOPG   C1B45561  22.075  19.642  20.768 -0.1487  0.4453 -0.2148
 1975DOPG   D2B45562  22.194  19.904  20.613  0.1871  0.1370  0.0991
 1975DOPG   C3B45563  22.003  19.945  20.159 -0.4860  0.1194 -0.3481
 1975DOPG   C4B45564  22.050  19.628  19.937  0.1649 -0.0822  0.0317
 1976DOPG   GL045565  13.529   6.692  17.362  0.4657  0.1081  0.0740
 1976DOPG   PO445566  13.428   7.056  17.511 -0.0160  0.5379  0.1198
 1976DOPG   GL145567  13.627   7.459  17.678 -0.1128 -0.0838  0.2257
 1976DOPG   GL245568  13.400   7.577  17.480 -0.2026 -0.2567  0.2094
 1976DOPG   C1A45569  13.840   7.879  17.650  0.0518 -0.3406  0.2686
 1976DOPG   D2A45570  14.270   7.994  17.455 -0.0980 -0.1365  0.2105
 1976DOPG   C3A45571  14.629   8.086  17.277  0.1864 -0.1055  0.1002
 1976DOPG   C4A45572  14.764   8.448  17.232  0.1840 -0.4550 -0.2090
 1976DOPG   C1B45573  13.413   8.067  17.542 -0.1010  0.0205  0.1134
 1976DOPG   D2B45574  13.321   8.386  17.640  0.1621 -0.0767 -0.1038
 1976DOPG   C3B45575  13.604   8.554  17.842  0.1417 -0.3054  0.0525
 1976DOPG   C4B45576  13.947   8.328  17.971  0.2007  0.1541 -0.1581
 1977DOPG   GL045577  20.939  24.491  18.077  0.0149  0.0610 -0.0609
 1977DOPG   PO445578  20.818  24.356  18.545  0.1691  0.1432 -0.0777
 1977DOPG   GL145579  20.973  23.934  18.347 -0.1671  0.4243  0.0447
 1977DOPG   GL245580  21.287  23.905  18.526 -0.0560 -0.0319 -0.1062
 1977DOPG   C1A45581  20.692  23.575  18.306 -0.1446  0.0953 -0.1447
 1977DOPG   D2A45582  20.782  23.178  18.108  0.3943  0.0916 -0.0518
 1977DOPG   C3A45583  20.960  23.305  17.813  0.1340  0.2593  0.2258
 1977DOPG   C4A45584  21.277  22.988  17.524 -0.0201  0.1671  0.3056
 1977DOPG   C1B45585  21.233  23.382  18.509  0.1197 -0.0843 -0.1626
 1977DOPG   D2B45586  21.145  22.998  18.287  0.1148 -0.1978  0.0963
 1977DOPG   C3B45587  21.262  22.858  18.007 -0.1152 -0.0776  0.2257
 1977DOPG   C4B45588  21.396  22.510  17.703  0.0986  0.2595 -0.0645
 1978DOPG   GL045589  16.478   9.588  20.589 -0.0671  0.0363  0.1987
 1978DOPG   PO445590  16.485   9.607  20.988 -0.0823 -0.1900 -0.0814
 1978DOPG   GL145591  16.347   9.984  20.913  0.2292  0.2906 -0.0685
 1978DOPG   GL245592  16.237  10.207  21.145  0.2425 -0.1312 -0.0357
 1978DOPG   C1A45593  16.484  10.340  20.769  0.2295  0.1880 -0.1055
 1978DOPG   D2A45594  16.924  10.365  20.579  0.3036  0.1507 -0.2879
 1978DOPG   C3A45595  16.841  10.659  20.181  0.0343  0.0555 -0.1299
 1978DOPG   C4A45596  16.659  11.068  19.891  0.1676  0.4601  0.2208
 1978DOPG   C1B45597  16.018  10.567  20.973 -0.2019 -0.0330  0.0501
 1978DOPG   D2B45598  16.128  10.962  20.783 -0.0351 -0.2513  0.2310
 1978DOPG   C3B45599  16.226  11.162  20.356  0.0073  0.1469 -0.0554
 1978DOPG   C4B45600  16.243  11.511  20.138 -0.3116  0.1692  0.1379
 1979DOPG   GL045601  17.591   8.441  17.852 -0.1241  0.2768  0.3459
 1979DOPG   PO445602  17.337   8.235  17.606 -0.2061 -0.0414 -0.1522
 1979DOPG   GL145603  17.089   8.604  17.612  0.0173  0.0655 -0.2795
 1979DOPG   GL245604  16.737   8.488  17.757 -0.1792  0.1778  0.1734
 1979DOPG   C1A45605  16.749   8.965  17.559  0.3373 -0.0754  0.3074
 1979DOPG   D2A45606  16.688   9.294  17.821 -0.0110 -0.0280  0.0290
 1979DOPG   C3A45607  16.400   9.684  17.736  0.1739  0.3100  0.2091
 1979DOPG   C4A45608  16.068   9.864  17.651  0.0595 -0.2147  0.1523
 1979DOPG   C1B45609  16.252   8.594  17.960 -0.0914 -0.1252  0.3205
 1979DOPG   D2B45610  15.911   8.862  18.240  0.1490 -0.2540  0.0993
 1979DOPG   C3B45611  15.961   9.110  18.649  0.0640 -0.1961  0.0739
 1979DOPG   C4B45612  15.945   9.582  18.919 -0.0425 -0.1722 -0.1380
 1980DOPG   GL045613  19.666  24.362  18.031  0.2625 -0.1663 -0.1064
 1980DOPG   PO445614  19.272  24.105  18.006  0.1692  0.0361  0.0875
 1980DOPG   GL145615  19.361  23.684  17.783 -0.0074  0.1744 -0.2294
 1980DOPG   GL245616  19.076  23.571  17.778  0.3054 -0.0745  0.1117
 1980DOPG   C1A45617  19.376  23.241  17.933 -0.0849 -0.1482 -0.1174
 1980DOPG   D2A45618  19.443  22.792  18.042  0.2128 -0.0091  0.1958
 1980DOPG   C3A45619  19.592  22.536  17.689 -0.0897 -0.0653 -0.4024
 1980DOPG   C4A45620  19.285  22.483  17.306 -0.0984  0.1053  0.0207
 1980DOPG   C1B45621  18.740  23.509  17.569  0.0273  0.3596  0.1655
 1980DOPG   D2B45622  18.580  23.235  17.388  0.0038 -0.3692  0.2014
 1980DOPG   C3B45623  18.672  23.336  16.985  0.2436 -0.0590  0.0306
 1980DOPG   C4B45624  18.744  23.720  16.669 -0.0627 -0.2876  0.1267
 1981DOPG   GL045625   7.745  17.916  21.624 -0.0814 -0.0575 -0.0407
 1981DOPG   PO445626   7.994  18.152  21.294 -0.1281  0.1870 -0.1315
 1981DOPG   GL145627   8.162  18.387  20.815  0.1208  0.0874  0.5211
 1981DOPG   GL245628   8.306  18.720  20.749 -0.1191  0.0113  0.1501
 1981DOPG   C1A45629   8.479  18.300  20.593  0.2698  0.0627  0.0013
 1981DOPG   D2A45630   8.955  18.309  20.725  0.0635  0.0774 -0.0615
 1981DOPG   C3A45631   9.354  18.143  20.764 -0.1051  0.4169 -0.2040
 1981DOPG   C4A45632   9.840  18.143  20.788 -0.0830  0.0589  0.2279
 1981DOPG   C1B45633   8.350  19.122  20.446 -0.1372  0.0528  0.0940
 1981DOPG   D2B45634   8.403  19.403  20.180  0.0624 -0.0459 -0.0488
 1981DOPG   C3B45635   8.214  19.748  20.084 -0.3571 -0.0826  0.0439
 1981DOPG   C4B45636   7.771  19.675  20.258 -0.1011  0.0452 -0.0328
 1982DOPG   GL045637  23.390  18.846  21.884 -0.0352 -0.3322 -0.2349
 1982DOPG   PO445638  23.053  18.659  21.636  0.1051 -0.3282 -0.3044
 1982DOPG   GL145639  22.839  18.862  21.267  0.1403  0.1374 -0.1663
 1982DOPG   GL245640  22.489  18.761  21.140 -0.1044 -0.2434 -0.0214
 1982DOPG   C1A45641  22.896  18.862  20.875  0.0722  0.5407 -0.0265
 1982DOPG   D2A45642  22.720  18.810  20.485 -0.1012 -0.2966  0.0109
 1982DOPG   C3A45643  22.509  18.458  20.523 -0.0604  0.2537 -0.0756
 1982DOPG   C4A45644  22.126  18.198  20.443 -0.1052 -0.0469  0.2008
 1982DOPG   C1B45645  22.594  18.416  21.066  0.2727 -0.1948 -0.1538
 1982DOPG   D2B45646  22.851  18.217  20.768 -0.0421  0.1426 -0.1281
 1982DOPG   C3B45647  23.188  17.975  20.891  0.3282 -0.3244 -0.2050
 1982DOPG   C4B45648  23.709  18.090  20.620  0.1384  0.1523 -0.3581
 1983DOPG   GL045649  21.629  12.006  20.709  0.0534 -0.0292 -0.4496
 1983DOPG   PO445650  21.198  12.006  20.764 -0.0383  0.1321  0.0062
 1983DOPG   GL145651  21.044  11.973  20.459  0.1655 -0.3159  0.3202
 1983DOPG   GL245652  20.835  12.195  20.473 -0.2108 -0.0431 -0.0455
 1983DOPG   C1A45653  20.620  11.863  20.123  0.0806  0.1238 -0.2564
 1983DOPG   D2A45654  20.270  11.637  20.078 -0.1942  0.0949  0.0096
 1983DOPG   C3A45655  19.937  11.822  19.978 -0.2419 -0.1784  0.0009
 1983DOPG   C4A45656  19.590  11.677  19.960 -0.4313  0.3039  0.1953
 1983DOPG   C1B45657  20.963  12.572  20.256  0.0743 -0.1009  0.1327
 1983DOPG   D2B45658  20.791  12.847  19.988 -0.2521 -0.3731  0.1693
 1983DOPG   C3B45659  21.210  13.124  19.929 -0.2440 -0.0703 -0.2293
 1983DOPG   C4B45660  21.509  13.360  19.745 -0.0722 -0.1544  0.2521
 1984DOPG   GL045661  12.062  23.482  20.785 -0.1306 -0.1818 -0.0220
 1984DOPG   PO445662  11.794  23.373  21.107  0.0103 -0.2773 -0.0025
 1984DOPG   GL145663  11.594  23.251  20.737 -0.0421 -0.1830 -0.1860
 1984DOPG   GL245664  11.832  23.220  20.397 -0.0364  0.3424 -0.0592
 1984DOPG   C1A45665  11.379  22.908  20.473 -0.2549  0.3904 -0.1365
 1984DOPG   D2A45666  10.914  22.845  20.232 -0.0806  0.1808 -0.1516
 1984DOPG   C3A45667  10.896  22.508  19.935 -0.1258 -0.0845 -0.1846
 1984DOPG   C4A45668  10.981  22.522  19.557 -0.2554 -0.1969  0.0256
 1984DOPG   C1B45669  11.797  22.875  20.064 -0.2301 -0.1737  0.0830
 1984DOPG   D2B45670  11.699  22.663  19.633 -0.1629 -0.0290  0.2900
 1984DOPG   C3B45671  11.423  22.235  19.393 -0.0246  0.0282 -0.1062
 1984DOPG   C4B45672  11.320  21.834  19.203 -0.0386  0.3065  0.0770
 1985DOPG   GL045673  14.584  20.296  22.966 -0.2749 -0.1962  0.0395
 1985DOPG   PO445674  14.950  20.480  23.115 -0.3705 -0.0987 -0.0110
 1985DOPG   GL145675  15.012  20.470  22.624  0.0897  0.0293 -0.0483
 1985DOPG   GL245676  15.367  20.556  22.501 -0.0131 -0.0373  0.0229
 1985DOPG   C1A45677  15.141  20.148  22.266  0.0727  0.2718  0.0358
 1985DOPG   D2A45678  15.402  19.834  22.111 -0.2180  0.2214  0.4845
 1985DOPG   C3A45679  15.317  19.543  21.712  0.1119  0.1250  0.2317
 1985DOPG   C4A45680  14.822  19.531  21.596  0.0288  0.0406 -0.0789
 1985DOPG   C1B45681  15.539  20.451  22.089  0.3274  0.2909  0.0782
 1985DOPG   D2B45682  15.881  20.192  22.038 -0.1307 -0.4424 -0.2300
 1985DOPG   C3B45683  16.162  20.051  21.696 -0.0484 -0.2809  0.0318
 1985DOPG   C4B45684  16.406  20.067  21.246 -0.0698  0.0984 -0.0864
 1986DOPG   GL045685  13.206  24.123  20.730  0.0901  0.2288 -0.0360
 1986DOPG   PO445686  13.332  23.747  20.470 -0.1898 -0.1119  0.0997
 1986DOPG   GL145687  13.535  23.335  20.240  0.1938  0.2320  0.0850
 1986DOPG   GL245688  13.688  23.465  19.930  0.0535  0.2660  0.2276
 1986DOPG   C1A45689  13.756  22.944  20.122  0.0946 -0.1196 -0.0514
 1986DOPG   D2A45690  13.574  22.531  20.309  0.0266  0.2248 -0.0922
 1986DOPG   C3A45691  13.539  22.242  20.052  0.3757 -0.0596  0.0167
 1986DOPG   C4A45692  13.589  22.197  19.637 -0.0482  0.0609 -0.0529
 1986DOPG   C1B45693  13.206  23.236  19.865  0.0552 -0.0464 -0.2174
 1986DOPG   D2B45694  13.002  22.893  19.791 -0.0064  0.1527 -0.2381
 1986DOPG   C3B45695  13.181  22.674  19.395 -0.0559 -0.0050  0.2393
 1986DOPG   C4B45696  13.057  22.735  19.021  0.1131 -0.3782 -0.3079
 1987DOPG   GL045697  17.553  23.946  20.064  0.4601  0.2825 -0.0731
 1987DOPG   PO445698  17.913  23.759  19.970  0.0098  0.3484 -0.0404
 1987DOPG   GL145699  17.658  23.385  19.822 -0.2976  0.0720  0.2348
 1987DOPG   GL245700  17.573  23.077  20.011 -0.0275 -0.0191  0.1804
 1987DOPG   C1A45701  17.585  23.266  19.375  0.0778  0.0841  0.2918
 1987DOPG   D2A45702  17.583  22.999  19.069  0.0902 -0.4287  0.1142
 1987DOPG   C3A45703  17.524  23.008  18.704 -0.1037 -0.1517 -0.2174
 1987DOPG   C4A45704  17.666  23.318  18.391  0.0870 -0.2599  0.0385
 1987DOPG   C1B45705  17.381  22.897  19.675  0.0723 -0.0477 -0.1086
 1987DOPG   D2B45706  17.401  22.640  19.407  0.2583 -0.0440  0.0300
 1987DOPG   C3B45707  17.218  22.613  18.962  0.2164  0.2105  0.3433
 1987DOPG   C4B45708  16.813  22.598  18.656  0.1176 -0.1740 -0.0902
 1988DOPG   GL045709  18.040  16.457  23.938 -0.0672 -0.0657  0.2865
 1988DOPG   PO445710  18.361  16.246  23.753  0.0249  0.2531  0.2175
 1988DOPG   GL145711  18.214  16.378  23.228  0.3814  0.0235  0.1890
 1988DOPG   GL245712  18.261  16.754  23.316 -0.0010  0.2459  0.2110
 1988DOPG   C1A45713  18.028  16.490  22.820 -0.3228  0.0055 -0.0934
 1988DOPG   D2A45714  17.725  16.493  22.545  0.0391  0.2532  0.4213
 1988DOPG   C3A45715  17.449  16.701  22.359 -0.1208 -0.1653 -0.0983
 1988DOPG   C4A45716  17.145  16.515  22.080 -0.0527 -0.0108 -0.2058
 1988DOPG   C1B45717  17.808  16.810  23.144 -0.5112  0.0063  0.1291
 1988DOPG   D2B45718  17.541  17.216  23.044  0.1610 -0.1856  0.1964
 1988DOPG   C3B45719  17.371  17.092  22.647  0.2237 -0.2941  0.0536
 1988DOPG   C4B45720  17.054  16.913  22.511  0.0556  0.1625 -0.0946
 1989DOPG   GL045721  13.677  24.401  19.838  0.0014 -0.0973 -0.0970
 1989DOPG   PO445722  13.261  24.644  19.902  0.1852  0.0625 -0.1323
 1989DOPG   GL145723  13.167  24.319  19.590 -0.1129 -0.1333  0.0898
 1989DOPG   GL245724  12.952  24.107  19.676 -0.2407 -0.1916  0.1334
 1989DOPG   C1A45725  13.002  24.195  19.151 -0.1739  0.2421 -0.2344
 1989DOPG   D2A45726  12.811  24.122  18.724  0.1601 -0.1257 -0.0562
 1989DOPG   C3A45727  13.186  24.151  18.347  0.0139  0.2873 -0.1229
 1989DOPG   C4A45728  13.262  23.916  18.007  0.0397 -0.1204  0.0921
 1989DOPG   C1B45729  12.967  23.583  19.680 -0.0342  0.2725  0.0301
 1989DOPG   D2B45730  12.733  23.278  19.588 -0.0530 -0.0089  0.0805
 1989DOPG   C3B45731  12.745  23.027  19.267 -0.0744 -0.1937 -0.1641
 1989DOPG   C4B45732  12.669  23.154  18.826 -0.2478 -0.3773  0.0140
 1990DOPG   GL045733  13.997  24.700  19.000  0.2966 -0.0974 -0.4115
 1990DOPG   PO445734  13.783  24.902  18.607 -0.0908  0.3172  0.1196
 1990DOPG   GL145735  13.692  24.514  18.647  0.1595 -0.2373  0.0563
 1990DOPG   GL245736  13.416  24.494  18.698  0.1918 -0.0401 -0.1616
 1990DOPG   C1A45737  13.714  24.224  18.338 -0.1382  0.0595  0.0013
 1990DOPG   D2A45738  13.827  23.832  18.174  0.2171 -0.0441 -0.1137
 1990DOPG   C3A45739  14.059  23.805  17.835 -0.2222  0.2575  0.1138
 1990DOPG   C4A45740  14.361  23.964  17.540 -0.0688 -0.3196  0.0394
 1990DOPG   C1B45741  13.307  23.970  18.747  0.0770  0.3085  0.0281
 1990DOPG   D2B45742  13.412  23.656  18.981  0.0230 -0.1284 -0.1776
 1990DOPG   C3B45743  13.105  23.709  19.202  0.3421 -0.0527 -0.0532
 1990DOPG   C4B45744  12.697  23.554  19.141 -0.2843 -0.2453 -0.1520
 1991DOPG   GL045745   9.603   7.645  20.091 -0.2553  0.3065 -0.2466
 1991DOPG   PO445746   9.880   7.767  20.458 -0.2749  0.3152  0.2306
 1991DOPG   GL145747  10.019   8.180  20.376  0.4402 -0.0396  0.0400
 1991DOPG   GL245748  10.061   8.394  20.616  0.1397 -0.2509  0.1586
 1991DOPG   C1A45749  10.211   8.370  20.019 -0.1712  0.0686  0.0599
 1991DOPG   D2A45750  10.187   8.636  19.720  0.2142  0.1403  0.1382
 1991DOPG   C3A45751  10.545   8.926  19.610 -0.0330 -0.4046  0.2737
 1991DOPG   C4A45752  10.698   9.091  19.222 -0.2089  0.0332 -0.5061
 1991DOPG   C1B45753  10.148   8.686  20.882  0.1194 -0.0680 -0.2599
 1991DOPG   D2B45754  10.289   9.119  20.898  0.1159 -0.1551  0.1236
 1991DOPG   C3B45755  10.227   9.188  20.529  0.0574  0.0158 -0.0209
 1991DOPG   C4B45756  10.313   9.053  20.067  0.1116  0.1726 -0.0384
 1992DOPG   GL045757  12.681   8.430  21.940  0.2058  0.0739  0.1856
 1992DOPG   PO445758  12.979   8.544  21.676 -0.0712 -0.1281 -0.3197
 1992DOPG   GL145759  12.975   8.732  21.242 -0.0796  0.0116 -0.0624
 1992DOPG   GL245760  13.241   8.742  20.997 -0.0468  0.1964 -0.1216
 1992DOPG   C1A45761  12.887   9.122  20.943  0.0340 -0.1640  0.1683
 1992DOPG   D2A45762  12.644   9.293  21.151 -0.0426 -0.3194 -0.0483
 1992DOPG   C3A45763  12.275   9.470  20.849  0.1303  0.0485  0.0257
 1992DOPG   C4A45764  12.097   9.444  20.438 -0.0587  0.1594 -0.3426
 1992DOPG   C1B45765  13.429   9.048  20.725 -0.1035  0.0374  0.2894
 1992DOPG   D2B45766  13.391   9.496  20.584  0.1230 -0.0667 -0.0058
 1992DOPG   C3B45767  13.173   9.617  20.226 -0.1490 -0.0880 -0.0723
 1992DOPG   C4B45768  13.276   9.773  19.766 -0.1008 -0.0116 -0.3222
 1993DOPG   GL045769  20.938  19.936  22.015 -0.3150  0.1363  0.1569
 1993DOPG   PO445770  20.466  19.683  21.927  0.4152  0.2913 -0.0361
 1993DOPG   GL145771  20.496  19.490  21.541 -0.0341 -0.3802  0.2130
 1993DOPG   GL245772  20.643  19.241  21.406  0.0174 -0.0843 -0.0388
 1993DOPG   C1A45773  20.432  19.692  21.063  0.1676 -0.1573  0.1603
 1993DOPG   D2A45774  20.144  19.806  20.655 -0.1842 -0.1997 -0.0391
 1993DOPG   C3A45775  20.101  19.506  20.360 -0.0995  0.2330 -0.1107
 1993DOPG   C4A45776  20.101  19.258  19.979 -0.0485  0.0376  0.1863
 1993DOPG   C1B45777  20.453  19.146  21.100 -0.1877  0.3421 -0.0434
 1993DOPG   D2B45778  20.223  19.104  20.721 -0.0846  0.2803 -0.2511
 1993DOPG   C3B45779  20.192  18.867  20.369  0.1622  0.1344  0.2505
 1993DOPG   C4B45780  20.151  18.768  19.974 -0.0854 -0.2514  0.2826
 1994DOPG   GL045781  17.586  22.035  21.481  0.0718 -0.0301  0.0284
 1994DOPG   PO445782  17.812  22.045  21.783 -0.0707  0.2389  0.2994
 1994DOPG   GL145783  17.983  21.786  21.433 -0.1621 -0.0688  0.2597
 1994DOPG   GL245784  17.967  21.386  21.516 -0.3483  0.0735 -0.0190
 1994DOPG   C1A45785  18.155  21.471  21.022 -0.1294  0.0089  0.2672
 1994DOPG   D2A45786  18.149  21.176  20.565 -0.1133  0.0811  0.0409
 1994DOPG   C3A45787  18.007  20.812  20.651  0.0335  0.1539  0.0042
 1994DOPG   C4A45788  17.534  20.771  20.632 -0.2214 -0.1336 -0.0095
 1994DOPG   C1B45789  17.675  21.532  21.148  0.1202 -0.1861  0.3465
 1994DOPG   D2B45790  17.192  21.502  21.158  0.1764  0.1371  0.3073
 1994DOPG   C3B45791  17.012  21.259  21.275 -0.1141  0.1564  0.0276
 1994DOPG   C4B45792  16.674  20.992  21.125  0.3432  0.3471 -0.0017
 1995DOPG   GL045793  18.905   9.620  18.297  0.2024 -0.1689  0.2181
 1995DOPG   PO445794  18.851   9.260  18.056  0.0387  0.0688  0.1584
 1995DOPG   GL145795  19.054   9.535  17.745  0.0347 -0.1977  0.2721
 1995DOPG   GL245796  19.157   9.188  17.656 -0.0311 -0.0300  0.0865
 1995DOPG   C1A45797  18.828   9.924  17.605  0.0782 -0.0188  0.0450
 1995DOPG   D2A45798  19.013  10.255  17.664  0.0625  0.0786 -0.0949
 1995DOPG   C3A45799  18.818  10.581  17.600  0.5767 -0.0896  0.0547
 1995DOPG   C4A45800  18.446  10.669  17.458 -0.0204  0.0248  0.2852
 1995DOPG   C1B45801  19.366   8.799  17.476  0.1059 -0.1128  0.1294
 1995DOPG   D2B45802  19.762   8.678  17.214 -0.0523  0.0826  0.2926
 1995DOPG   C3B45803  20.023   8.341  16.998 -0.0686  0.1632 -0.1583
 1995DOPG   C4B45804  19.986   7.857  16.959  0.1615  0.1153 -0.1615
 1996DOPG   GL045805  15.435  22.845  21.742 -0.0356 -0.1497 -0.2786
 1996DOPG   PO445806  15.553  22.661  21.375 -0.0194  0.0270  0.0985
 1996DOPG   GL145807  15.586  22.335  21.180  0.0170 -0.4554  0.1149
 1996DOPG   GL245808  15.413  21.996  21.255  0.3971  0.0698 -0.0210
 1996DOPG   C1A45809  15.884  22.226  21.013 -0.1642  0.0512 -0.1828
 1996DOPG   D2A45810  16.247  21.964  21.152 -0.1826 -0.1191 -0.0876
 1996DOPG   C3A45811  16.711  22.212  21.021 -0.0670  0.1612  0.1796
 1996DOPG   C4A45812  17.051  22.234  20.710 -0.1724  0.2662 -0.1003
 1996DOPG   C1B45813  15.476  21.853  20.816  0.0127  0.2504  0.1654
 1996DOPG   D2B45814  15.780  21.967  20.552 -0.0831  0.1034 -0.4155
 1996DOPG   C3B45815  15.762  21.893  20.100 -0.2046 -0.1620 -0.0201
 1996DOPG   C4B45816  16.052  21.674  20.022  0.0913 -0.0890  0.2334
 1997DOPG   GL045817  10.877  22.013  21.459  0.1339  0.1077  0.1625
 1997DOPG   PO445818  11.126  21.811  21.764 -0.1974  0.1040  0.0287
 1997DOPG   GL145819  11.393  21.669  21.415 -0.5215 -0.1574 -0.0487
 1997DOPG   GL245820  11.754  21.690  21.565  0.1838 -0.3169  0.0429
 1997DOPG   C1A45821  11.356  21.283  21.124 -0.0032  0.2726 -0.1550
 1997DOPG   D2A45822  11.394  20.784  20.966  0.1274 -0.0290 -0.1888
 1997DOPG   C3A45823  11.213  20.561  20.607  0.2019 -0.0069 -0.0354
 1997DOPG   C4A45824  11.167  20.319  20.298  0.0212  0.2133 -0.3921
 1997DOPG   C1B45825  11.913  21.588  21.191 -0.0643  0.3181  0.0027
 1997DOPG   D2B45826  12.127  21.465  20.812 -0.1167  0.0164  0.1502
 1997DOPG   C3B45827  12.230  21.057  20.686  0.1901  0.0412  0.0818
 1997DOPG   C4B45828  12.582  20.801  20.427  0.1537 -0.0570 -0.0605
 1998DOPG   GL045829  21.393  10.974  16.959 -0.1202 -0.0132  0.1497
 1998DOPG   PO445830  21.113  11.229  16.744  0.0593  0.0832  0.0430
 1998DOPG   GL145831  20.660  11.213  16.616 -0.4862  0.0644  0.1709
 1998DOPG   GL245832  20.326  11.072  16.645 -0.2064  0.2943 -0.4262
 1998DOPG   C1A45833  20.409  11.558  16.743 -0.1809  0.1184  0.5112
 1998DOPG   D2A45834  20.164  12.046  16.936 -0.0443  0.1084 -0.0296
 1998DOPG   C3A45835  20.366  12.368  16.782  0.2808 -0.1580  0.3210
 1998DOPG   C4A45836  20.571  12.628  16.534 -0.0418  0.1070 -0.0088
 1998DOPG   C1B45837  19.997  11.281  16.518  0.0778 -0.0368 -0.1508
 1998DOPG   D2B45838  19.610  11.461  16.802  0.1729 -0.4283 -0.3765
 1998DOPG   C3B45839  19.589  11.735  17.131 -0.0993 -0.0645  0.1168
 1998DOPG   C4B45840  19.585  12.150  17.295 -0.0002 -0.0146  0.0735
 1999DOPG   GL045841  17.386  10.663  21.422 -0.0501 -0.0982 -0.1060
 1999DOPG   PO445842  17.136  10.274  21.216  0.1548 -0.0512  0.2138
 1999DOPG   GL145843  16.997  10.591  21.102  0.3768 -0.2117 -0.1931
 1999DOPG   GL245844  16.698  10.638  21.234  0.0718 -0.1110 -0.1753
 1999DOPG   C1A45845  17.096  11.047  21.110 -0.3003 -0.1698 -0.1221
 1999DOPG   D2A45846  17.456  11.266  21.005 -0.2011  0.1547 -0.0642
 1999DOPG   C3A45847  17.759  11.201  20.681  0.0001 -0.4570  0.0267
 1999DOPG   C4A45848  17.609  11.353  20.323  0.0215  0.1870 -0.0775
 1999DOPG   C1B45849  16.623  10.843  20.848  0.2584  0.1180  0.2238
 1999DOPG   D2B45850  16.649  11.000  20.421 -0.1237  0.1873  0.1038
 1999DOPG   C3B45851  16.706  11.449  20.283 -0.3811  0.0985  0.1369
 1999DOPG   C4B45852  16.755  11.902  20.454 -0.2616 -0.2806  0.2248
 2000DOPG   GL045853  13.718   7.072  19.214  0.0471 -0.1151 -0.1403
 2000DOPG   PO445854  13.398   6.778  19.048  0.0707  0.0937  0.0760
 2000DOPG   GL145855  13.407   7.121  18.749 -0.1590  0.3001  0.1423
 2000DOPG   GL245856  13.432   7.393  18.900 -0.1887  0.1200  0.0264
 2000DOPG   C1A45857  13.227   7.327  18.410 -0.0627 -0.0365 -0.0406
 2000DOPG   D2A45858  13.115   7.722  18.350 -0.0680  0.2107 -0.0381
 2000DOPG   C3A45859  12.896   7.924  18.062  0.2003 -0.3290  0.0348
 2000DOPG   C4A45860  12.926   7.999  17.555 -0.2544 -0.0667 -0.0866
 2000DOPG   C1B45861  13.038   7.586  18.836 -0.0753 -0.2267 -0.1570
 2000DOPG   D2B45862  12.972   7.951  18.814  0.2602 -0.2352 -0.2051
 2000DOPG   C3B45863  12.973   8.227  18.448 -0.0973  0.3612 -0.1231
 2000DOPG   C4B45864  12.657   8.332  18.265 -0.1840 -0.1504  0.1446
 2001DOPG   GL045865   9.518  17.665  22.578 -0.0815  0.2322  0.0639
 2001DOPG   PO445866   9.079  17.737  22.346 -0.0401 -0.2326  0.1714
 2001DOPG   GL145867   9.466  17.461  22.149  0.1754 -0.0982 -0.1124
 2001DOPG   GL245868   9.559  17.625  21.919  0.2347 -0.0669 -0.1576
 2001DOPG   C1A45869   9.769  17.175  21.900  0.1828  0.1725  0.0221
 2001DOPG   D2A45870  10.074  17.326  21.751 -0.2883  0.3680  0.0848
 2001DOPG   C3A45871  10.049  17.744  21.783 -0.0484 -0.0220  0.0090
 2001DOPG   C4A45872   9.871  18.062  21.945  0.3022 -0.1308  0.0955
 2001DOPG   C1B45873   9.602  17.815  21.474  0.1867 -0.1526 -0.1371
 2001DOPG   D2B45874   9.562  17.812  21.080  0.0322  0.0946 -0.1582
 2001DOPG   C3B45875   9.254  17.504  20.785  0.0314  0.0393 -0.2002
 2001DOPG   C4B45876   9.162  17.193  21.151 -0.2424 -0.1104 -0.1893
 2002DOPG   GL045877  18.482  14.221  22.925 -0.0037  0.1159  0.4314
 2002DOPG   PO445878  18.453  13.896  23.061  0.0693 -0.1209  0.1416
 2002DOPG   GL145879  18.256  13.767  22.754  0.1953  0.0719  0.0353
 2002DOPG   GL245880  18.230  13.961  22.492 -0.2010  0.1644 -0.0260
 2002DOPG   C1A45881  17.929  13.589  22.479  0.0311 -0.4266  0.2977
 2002DOPG   D2A45882  18.121  13.758  22.017 -0.3922 -0.1253 -0.6618
 2002DOPG   C3A45883  18.568  13.790  21.987 -0.0192  0.0889  0.1851
 2002DOPG   C4A45884  18.963  13.452  22.207  0.0676 -0.3514 -0.1233
 2002DOPG   C1B45885  18.112  14.245  22.269  0.2096 -0.1904  0.2702
 2002DOPG   D2B45886  18.151  14.699  22.181 -0.0291  0.1951 -0.1793
 2002DOPG   C3B45887  17.791  14.864  22.268  0.3625 -0.2566 -0.2829
 2002DOPG   C4B45888  17.692  15.220  22.472  0.0859 -0.0157 -0.0049
 2003DOPG   GL045889   4.994  13.375  19.255  0.3270  0.0388  0.0322
 2003DOPG   PO445890   5.273  13.716  19.169  0.1158  0.2140  0.0448
 2003DOPG   GL145891   5.624  13.649  19.053  0.0950  0.0953 -0.0160
 2003DOPG   GL245892   5.832  13.847  19.219 -0.3237 -0.0511  0.1386
 2003DOPG   C1A45893   6.029  13.457  18.994  0.3309  0.0013 -0.0549
 2003DOPG   D2A45894   6.483  13.331  18.802 -0.0553  0.3640  0.2130
 2003DOPG   C3A45895   6.807  13.134  18.463 -0.1100  0.0864 -0.1094
 2003DOPG   C4A45896   6.977  12.802  18.188 -0.2338  0.1106  0.1834
 2003DOPG   C1B45897   6.043  14.232  19.106 -0.2052 -0.1670 -0.2665
 2003DOPG   D2B45898   6.304  14.374  18.834 -0.1450 -0.1293 -0.3554
 2003DOPG   C3B45899   6.504  14.565  19.200 -0.1365  0.0545  0.0954
 2003DOPG   C4B45900   6.644  14.702  19.615 -0.2235 -0.0801  0.0082
 2004DOPG   GL045901  23.759  12.260  19.194  0.0367  0.2934  0.0639
 2004DOPG   PO445902  23.725  12.120  19.573 -0.0846 -0.0483 -0.1134
 2004DOPG   GL145903  23.392  12.451  19.421  0.1448  0.2688  0.0833
 2004DOPG   GL245904  23.443  12.714  19.554  0.0881 -0.0251 -0.0339
 2004DOPG   C1A45905  23.089  12.624  19.072 -0.1860 -0.0920 -0.0289
 2004DOPG   D2A45906  22.909  12.613  18.676 -0.0799 -0.1261 -0.1293
 2004DOPG   C3A45907  22.589  12.859  18.543 -0.0588  0.3675  0.2184
 2004DOPG   C4A45908  22.250  13.227  18.337  0.2482  0.1138 -0.0585
 2004DOPG   C1B45909  23.133  13.060  19.395  0.0306  0.1312  0.4755
 2004DOPG   D2B45910  22.894  13.382  19.273  0.0439  0.1696  0.3598
 2004DOPG   C3B45911  22.699  13.657  19.482  0.0256 -0.1802  0.1149
 2004DOPG   C4B45912  22.654  14.114  19.379  0.1959  0.1515  0.0858
 2005DOPG   GL045913  13.355  21.807  22.116 -0.3245 -0.0982 -0.0931
 2005DOPG   PO445914  13.103  22.150  21.905  0.2719  0.0027 -0.0757
 2005DOPG   GL145915  13.192  21.929  21.643 -0.1378 -0.0448  0.0104
 2005DOPG   GL245916  12.881  21.929  21.501 -0.0997  0.1956  0.3871
 2005DOPG   C1A45917  13.419  21.548  21.418  0.0930  0.2120 -0.1969
 2005DOPG   D2A45918  13.355  21.475  21.021 -0.0652  0.1716  0.1019
 2005DOPG   C3A45919  13.069  21.473  20.636  0.2296  0.1453  0.0404
 2005DOPG   C4A45920  12.686  21.302  20.526  0.1926  0.0893 -0.0742
 2005DOPG   C1B45921  12.753  21.795  21.043  0.3208  0.0310 -0.2908
 2005DOPG   D2B45922  12.475  21.884  20.804  0.0012 -0.1161 -0.0353
 2005DOPG   C3B45923  12.366  22.263  20.396  0.0904  0.0420 -0.0604
 2005DOPG   C4B45924  12.212  22.053  20.075  0.3787 -0.0240 -0.1972
 2006DOPG   GL045925  22.192  11.596  19.697  0.1124 -0.0731 -0.2653
 2006DOPG   PO445926  22.280  11.918  19.883  0.0315  0.3816 -0.0326
 2006DOPG   GL145927  22.216  12.132  19.529 -0.2079 -0.1811 -0.1686
 2006DOPG   GL245928  22.364  12.378  19.390  0.0649 -0.0546  0.2310
 2006DOPG   C1A45929  21.918  12.434  19.169 -0.2231 -0.0598  0.2253
 2006DOPG   D2A45930  22.279  12.628  18.821 -0.2584 -0.0268  0.1114
 2006DOPG   C3A45931  22.119  12.614  18.355  0.3506 -0.1215  0.0798
 2006DOPG   C4A45932  21.912  12.500  18.044  0.1651 -0.1077  0.0250
 2006DOPG   C1B45933  22.162  12.831  19.409  0.2939  0.0023 -0.2802
 2006DOPG   D2B45934  22.130  13.200  19.090  0.2073 -0.0399 -0.1854
 2006DOPG   C3B45935  21.696  13.331  19.140 -0.0041 -0.3166  0.0978
 2006DOPG   C4B45936  21.276  13.490  19.294 -0.0930 -0.0959  0.1013
 2007DOPG   GL045937   6.936  13.702  21.585 -0.1083  0.1002  0.1487
 2007DOPG   PO445938   6.841  13.653  21.140  0.0292  0.0642 -0.0079
 2007DOPG   GL145939   7.078  13.811  20.939 -0.0591 -0.1917 -0.0786
 2007DOPG   GL245940   6.968  14.069  20.810 -0.1427  0.0674  0.2628
 2007DOPG   C1A45941   7.459  13.892  20.853  0.1856 -0.4422 -0.4022
 2007DOPG   D2A45942   7.744  14.005  20.516  0.1472  0.0277 -0.0503
 2007DOPG   C3A45943   7.654  14.251  20.203  0.0612  0.1053  0.0865
 2007DOPG   C4A45944   7.311  14.455  20.103 -0.1393  0.0469  0.0500
 2007DOPG   C1B45945   7.167  13.822  20.452  0.0498  0.0585 -0.0741
 2007DOPG   D2B45946   7.487  13.681  20.196  0.0914  0.0860  0.2828
 2007DOPG   C3B45947   7.869  13.727  20.078  0.4064  0.1198  0.1017
 2007DOPG   C4B45948   8.272  13.843  19.942 -0.0064  0.0863  0.0562
 2008DOPG   GL045949  17.877  14.750  23.790 -0.1202  0.0548  0.0634
 2008DOPG   PO445950  17.912  14.389  23.562 -0.1563  0.3010  0.1523
 2008DOPG   GL145951  17.710  14.197  23.256 -0.3119  0.2408 -0.0559
 2008DOPG   GL245952  17.945  14.210  22.973 -0.4999 -0.1399 -0.1508
 2008DOPG   C1A45953  17.322  14.264  23.010 -0.0991  0.0194 -0.0178
 2008DOPG   D2A45954  16.958  14.037  22.705  0.0945 -0.1446  0.2733
 2008DOPG   C3A45955  16.713  14.114  22.357  0.1277 -0.0823 -0.5711
 2008DOPG   C4A45956  16.642  14.141  21.933 -0.5082 -0.3967  0.0310
 2008DOPG   C1B45957  18.064  14.481  22.695 -0.2400 -0.0545  0.1467
 2008DOPG   D2B45958  17.990  14.896  22.733 -0.1705 -0.0798  0.1284
 2008DOPG   C3B45959  18.217  15.060  22.477 -0.1733 -0.1524 -0.2041
 2008DOPG   C4B45960  18.171  15.498  22.305  0.0416 -0.0299 -0.0225
 2009DOPG   GL045961  13.113  23.707  21.014  0.0373  0.0792 -0.1540
 2009DOPG   PO445962  12.841  23.433  21.335  0.0191  0.2492 -0.1898
 2009DOPG   GL145963  12.600  23.220  21.063  0.0910  0.1313  0.2006
 2009DOPG   GL245964  12.755  22.905  21.034 -0.1090 -0.0819 -0.1323
 2009DOPG   C1A45965  12.416  23.160  20.696 -0.1463 -0.1659  0.2455
 2009DOPG   D2A45966  12.197  22.823  20.384 -0.1008 -0.3187  0.1224
 2009DOPG   C3A45967  12.162  22.587  20.056  0.0049  0.3461  0.4021
 2009DOPG   C4A45968  12.168  22.440  19.653 -0.3023  0.1206  0.0035
 2009DOPG   C1B45969  12.637  22.761  20.592 -0.1237  0.5748 -0.0179
 2009DOPG   D2B45970  12.645  22.669  20.151 -0.3736 -0.1807 -0.1185
 2009DOPG   C3B45971  12.684  22.222  19.975 -0.0238 -0.0413 -0.0837
 2009DOPG   C4B45972  12.603  21.971  19.669  0.1914 -0.0655  0.1656
 2010DOPG   GL045973   7.349  18.881  21.032 -0.0720 -0.2146  0.0516
 2010DOPG   PO445974   7.056  18.766  20.660 -0.0063 -0.1138 -0.1169
 2010DOPG   GL145975   6.884  19.164  20.517  0.4531  0.2271 -0.0088
 2010DOPG   GL245976   6.691  19.134  20.828  0.0492  0.1907  0.0016
 2010DOPG   C1A45977   6.468  19.221  20.383 -0.2077  0.0987 -0.2738
 2010DOPG   D2A45978   6.034  19.163  20.196  0.3095 -0.0667  0.2144
 2010DOPG   C3A45979   6.071  18.868  19.896 -0.1409  0.2791  0.0520
 2010DOPG   C4A45980   6.053  18.597  19.613 -0.1181 -0.0738 -0.1620
 2010DOPG   C1B45981   6.429  19.481  21.048  0.1782 -0.0296  0.3500
 2010DOPG   D2B45982   6.099  19.684  21.150  0.0566  0.0715  0.1312
 2010DOPG   C3B45983   5.992  19.698  21.549  0.2982 -0.1877 -0.0076
 2010DOPG   C4B45984   6.017  19.760  21.972 -0.0831  0.0512  0.2376
 2011DOPG   GL045985  23.949  13.097  18.915  0.2331 -0.1988 -0.0085
 2011DOPG   PO445986  24.480  13.139  19.124 -0.0345  0.0635  0.0064
 2011DOPG   GL145987  24.441  13.613  19.091 -0.2427  0.3069  0.2686
 2011DOPG   GL245988  24.284  13.685  19.465  0.0143  0.1206  0.1865
 2011DOPG   C1A45989  24.410  14.041  18.960 -0.2550  0.0833 -0.0039
 2011DOPG   D2A45990  24.125  14.306  18.891  0.1219  0.2587 -0.2528
 2011DOPG   C3A45991  24.242  14.755  18.920 -0.2576 -0.1408  0.2667
 2011DOPG   C4A45992  24.459  15.137  18.912  0.0355 -0.0682  0.1339
 2011DOPG   C1B45993  24.092  14.009  19.319 -0.0385 -0.2818 -0.1228
 2011DOPG   D2B45994  23.590  13.853  19.393 -0.0285 -0.1435  0.0597
 2011DOPG   C3B45995  23.277  13.708  19.174  0.1054  0.6257  0.5196
 2011DOPG   C4B45996  22.879  13.870  19.022 -0.1890  0.2109  0.0443
 2012DOPG   GL045997  13.398  25.139  16.986  0.0641 -0.0562 -0.0218
 2012DOPG   PO445998  13.081  25.215  17.328  0.3167 -0.1802 -0.0021
 2012DOPG   GL145999  12.718  24.872  17.313 -0.0129 -0.3718  0.0628
 2012DOPG   GL246000  12.323  24.872  17.336 -0.0214  0.0076  0.1773
 2012DOPG   C1A46001  12.646  24.432  17.277 -0.0632 -0.0004 -0.0956
 2012DOPG   D2A46002  12.893  24.134  17.106 -0.0218  0.0228  0.1408
 2012DOPG   C3A46003  13.322  24.009  17.213 -0.1106 -0.0218 -0.0509
 2012DOPG   C4A46004  13.488  24.399  17.288 -0.1528  0.1573  0.0618
 2012DOPG   C1B46005  11.817  24.878  17.343  0.2275  0.0589  0.2002
 2012DOPG   D2B46006  11.719  24.942  17.724  0.1230  0.0462 -0.3309
 2012DOPG   C3B46007  12.075  24.687  17.993 -0.1963 -0.2467 -0.0891
 2012DOPG   C4B46008  12.330  24.400  18.209  0.0320  0.1055 -0.0217
 2013DOPG   GL046009  12.336  20.424  23.262 -0.2842 -0.2583  0.2165
 2013DOPG   PO446010  12.333  20.020  23.241  0.0782  0.1427  0.0254
 2013DOPG   GL146011  12.313  19.754  22.810 -0.0310 -0.2500  0.0226
 2013DOPG   GL246012  12.337  19.391  22.723 -0.1596 -0.0096  0.1745
 2013DOPG   C1A46013  12.485  19.952  22.520 -0.3760  0.0244 -0.1258
 2013DOPG   D2A46014  12.669  20.249  22.221 -0.1620  0.0715  0.3939
 2013DOPG   C3A46015  13.002  20.431  22.142 -0.1457 -0.1031  0.0802
 2013DOPG   C4A46016  13.184  20.832  22.001 -0.3264 -0.1413  0.1147
 2013DOPG   C1B46017  12.668  19.190  22.373 -0.0163 -0.0155  0.2045
 2013DOPG   D2B46018  12.866  19.014  22.066  0.2045 -0.1200  0.3008
 2013DOPG   C3B46019  13.291  18.935  22.064  0.0377  0.1523  0.0999
 2013DOPG   C4B46020  13.611  19.075  22.057  0.0454 -0.1280 -0.0657
 2014DOPG   GL046021  21.338  21.519  21.774 -0.3685 -0.1015 -0.1263
 2014DOPG   PO446022  21.271  21.328  21.481  0.1660 -0.1341  0.0167
 2014DOPG   GL146023  21.349  21.080  21.126  0.0696 -0.2096 -0.0297
 2014DOPG   GL246024  21.244  20.825  21.211  0.0990  0.1194  0.2460
 2014DOPG   C1A46025  21.405  21.029  20.756 -0.1263 -0.1197 -0.1559
 2014DOPG   D2A46026  21.572  21.130  20.447 -0.0713 -0.1551  0.1337
 2014DOPG   C3A46027  21.370  21.222  20.061  0.0334 -0.1648 -0.1605
 2014DOPG   C4A46028  21.526  21.719  19.868 -0.1464  0.0162 -0.0731
 2014DOPG   C1B46029  21.126  20.663  20.876  0.2700 -0.2359  0.1165
 2014DOPG   D2B46030  20.773  20.509  20.561  0.0043 -0.5040 -0.0347
 2014DOPG   C3B46031  20.497  20.635  20.203 -0.0834 -0.1132 -0.2788
 2014DOPG   C4B46032  20.283  20.792  19.879  0.1977  0.4792  0.4761
 2015DOPG   GL046033  22.922  13.854  22.377  0.1291 -0.0977  0.0632
 2015DOPG   PO446034  22.473  13.757  22.148 -0.0917 -0.2829 -0.2048
 2015DOPG   GL146035  22.029  13.712  21.891  0.1719  0.1122 -0.0823
 2015DOPG   GL246036  22.051  13.699  21.596  0.1050 -0.5221 -0.0117
 2015DOPG   C1A46037  21.683  14.009  21.902 -0.0881 -0.4976  0.1515
 2015DOPG   D2A46038  21.315  14.253  22.063  0.1402  0.2029  0.2023
 2015DOPG   C3A46039  21.244  14.547  21.872  0.0973 -0.1195 -0.1105
 2015DOPG   C4A46040  20.949  15.056  21.749  0.2417 -0.0546  0.1607
 2015DOPG   C1B46041  21.918  14.057  21.328  0.0018 -0.0416  0.0842
 2015DOPG   D2B46042  21.863  14.052  20.881  0.0468 -0.0331 -0.1432
 2015DOPG   C3B46043  21.564  14.302  20.725  0.2545 -0.1413  0.0729
 2015DOPG   C4B46044  21.179  14.495  20.730  0.1145 -0.0167  0.1538
 2016DOPG   GL046045  10.567  19.388  22.215 -0.0029  0.3264  0.3951
 2016DOPG   PO446046  10.281  19.175  21.948  0.2420  0.0390 -0.2010
 2016DOPG   GL146047  10.585  19.099  21.693  0.2136  0.0812 -0.1569
 2016DOPG   GL246048  10.645  18.722  21.822  0.2156  0.0258 -0.1489
 2016DOPG   C1A46049  10.855  18.898  21.296  0.1446  0.2167  0.2341
 2016DOPG   D2A46050  11.335  18.706  21.184 -0.1082 -0.0432  0.0613
 2016DOPG   C3A46051  11.645  18.928  21.171 -0.0882 -0.2600 -0.0148
 2016DOPG   C4A46052  12.024  18.910  20.929 -0.0352 -0.0735 -0.0221
 2016DOPG   C1B46053  10.319  18.618  21.503  0.0051 -0.0403  0.2043
 2016DOPG   D2B46054  10.310  18.872  21.149 -0.1133  0.0631 -0.4637
 2016DOPG   C3B46055  10.682  18.875  20.861  0.1148  0.1142 -0.2776
 2016DOPG   C4B46056  11.066  18.930  20.585 -0.1245  0.4382 -0.1298
 2017DOPG   GL046057  14.202  21.518  22.161 -0.1694  0.2589  0.0526
 2017DOPG   PO446058  13.965  21.880  22.163  0.2251 -0.0852 -0.0361
 2017DOPG   GL146059  13.831  21.547  21.867  0.2175 -0.3181  0.0465
 2017DOPG   GL246060  13.803  21.799  21.716 -0.0086 -0.0518  0.0126
 2017DOPG   C1A46061  13.756  21.222  21.624  0.0260 -0.2867  0.1404
 2017DOPG   D2A46062  13.492  20.990  21.327 -0.0433  0.1150 -0.0320
 2017DOPG   C3A46063  13.527  21.111  20.826  0.3000  0.2338  0.1043
 2017DOPG   C4A46064  13.556  21.227  20.401 -0.1754  0.2129 -0.0402
 2017DOPG   C1B46065  13.937  21.679  21.413  0.2507  0.2700  0.0723
 2017DOPG   D2B46066  13.840  21.409  21.149 -0.2815 -0.1517 -0.4333
 2017DOPG   C3B46067  13.983  21.051  21.107  0.0085 -0.4231  0.0668
 2017DOPG   C4B46068  13.860  20.640  21.030 -0.0794 -0.3286 -0.5740
 2018DOPG   GL046069   5.907  10.314  17.928 -0.0881 -0.0734  0.2904
 2018DOPG   PO446070   6.285  10.218  18.102 -0.1428  0.3693  0.2694
 2018DOPG   GL146071   6.351  10.657  17.835  0.2708  0.0777  0.4236
 2018DOPG   GL246072   6.311  11.049  17.850 -0.0305  0.1746  0.0401
 2018DOPG   C1A46073   6.715  10.828  17.722 -0.0983  0.2172  0.0944
 2018DOPG   D2A46074   6.939  11.237  17.653 -0.0033 -0.0149 -0.0655
 2018DOPG   C3A46075   7.403  11.307  17.714 -0.3956 -0.2189 -0.0886
 2018DOPG   C4A46076   7.623  11.317  18.015  0.0161  0.3309 -0.2015
 2018DOPG   C1B46077   6.582  11.364  18.022 -0.0245  0.0096  0.1035
 2018DOPG   D2B46078   6.764  11.651  18.180  0.0356  0.1439 -0.0739
 2018DOPG   C3B46079   6.611  12.000  18.042  0.0005 -0.0020 -0.1690
 2018DOPG   C4B46080   6.744  12.447  17.901  0.2671  0.3053  0.0558
 2019DOPG   GL046081  18.500  21.053  22.462 -0.4001  0.1941  0.0862
 2019DOPG   PO446082  18.415  20.591  22.465  0.1102  0.1116 -0.2493
 2019DOPG   GL146083  18.431  20.338  22.165  0.0715 -0.0105  0.2078
 2019DOPG   GL246084  18.622  20.589  21.968  0.0165  0.1284 -0.4164
 2019DOPG   C1A46085  18.446  20.057  21.982 -0.1634  0.0501  0.2366
 2019DOPG   D2A46086  18.522  19.883  21.539  0.0747  0.3806  0.0399
 2019DOPG   C3A46087  18.924  20.055  21.251 -0.4229  0.2691 -0.0277
 2019DOPG   C4A46088  19.289  20.392  21.213 -0.2776  0.0332  0.5557
 2019DOPG   C1B46089  18.300  20.441  21.598 -0.0591  0.1500 -0.0369
 2019DOPG   D2B46090  18.034  20.523  21.323  0.2312 -0.2138 -0.1347
 2019DOPG   C3B46091  18.140  20.402  21.007 -0.0296  0.1241 -0.0617
 2019DOPG   C4B46092  18.140  20.286  20.626 -0.0573 -0.2874  0.0337
 2020DOPG   GL046093  10.035  23.138  20.198 -0.0154 -0.1677  0.0342
 2020DOPG   PO446094  10.075  23.422  20.538  0.1305 -0.3195  0.5899
 2020DOPG   GL146095  10.075  22.958  20.695 -0.2045 -0.2305 -0.0483
 2020DOPG   GL246096   9.778  22.825  20.756  0.0135 -0.1624 -0.0790
 2020DOPG   C1A46097  10.046  22.682  20.363 -0.0764 -0.0536  0.1544
 2020DOPG   D2A46098  10.254  22.706  19.988 -0.3654  0.1460  0.0698
 2020DOPG   C3A46099  10.461  22.459  19.647  0.0220  0.1177 -0.0522
 2020DOPG   C4A46100  10.337  22.499  19.126  0.0209 -0.2782  0.0558
 2020DOPG   C1B46101   9.633  22.898  20.386  0.3171  0.2781  0.1109
 2020DOPG   D2B46102   9.699  22.644  19.986  0.1253 -0.2644  0.0757
 2020DOPG   C3B46103   9.614  22.344  19.851  0.0647  0.1304  0.2318
 2020DOPG   C4B46104   9.628  21.988  19.573 -0.0071  0.0072  0.2000
 2021DOPG   GL046105  16.602  12.564  22.672  0.0777  0.0215  0.1431
 2021DOPG   PO446106  17.021  12.395  22.871  0.2625 -0.2015 -0.0983
 2021DOPG   GL146107  17.036  12.623  22.465 -0.1571 -0.0240 -0.0056
 2021DOPG   GL246108  17.244  12.923  22.390 -0.2875 -0.3047  0.5249
 2021DOPG   C1A46109  16.772  12.794  22.199 -0.2592  0.2839  0.1263
 2021DOPG   D2A46110  16.367  12.810  21.975 -0.0059  0.4297  0.1327
 2021DOPG   C3A46111  16.075  13.062  21.801 -0.1345 -0.2514 -0.2431
 2021DOPG   C4A46112  15.806  13.440  21.717 -0.0370 -0.0590 -0.2358
 2021DOPG   C1B46113  17.070  13.186  22.102 -0.0806 -0.2456 -0.0584
 2021DOPG   D2B46114  16.798  13.030  21.754 -0.3124 -0.0629  0.1275
 2021DOPG   C3B46115  16.608  13.334  21.512  0.3385  0.0549  0.0515
 2021DOPG   C4B46116  16.193  13.562  21.391  0.0370  0.1203 -0.0321
 2022DOPG   GL046117  21.768  15.986  22.588 -0.0318 -0.2920  0.0492
 2022DOPG   PO446118  21.529  15.753  22.851  0.0704  0.3135  0.0493
 2022DOPG   GL146119  21.256  15.792  22.497 -0.0248 -0.1177  0.2191
 2022DOPG   GL246120  21.249  16.106  22.297 -0.3175 -0.0119 -0.1844
 2022DOPG   C1A46121  20.897  15.783  22.211 -0.2295  0.0801 -0.0728
 2022DOPG   D2A46122  20.849  15.522  21.785 -0.0038  0.1681  0.1835
 2022DOPG   C3A46123  20.556  15.611  21.387 -0.2271  0.3468 -0.1528
 2022DOPG   C4A46124  20.691  15.467  21.010  0.1890  0.0957 -0.0096
 2022DOPG   C1B46125  21.308  16.304  21.863 -0.0462 -0.1571  0.0427
 2022DOPG   D2B46126  21.013  16.466  21.516 -0.1930 -0.3026  0.0350
 2022DOPG   C3B46127  21.181  16.397  21.153  0.3308  0.0820  0.2525
 2022DOPG   C4B46128  21.222  16.415  20.691  0.3855 -0.4572 -0.0342
 2023DOPG   GL046129  21.581  16.739  22.701 -0.2388  0.0403  0.1349
 2023DOPG   PO446130  21.242  16.677  22.965 -0.3244  0.3000  0.2399
 2023DOPG   GL146131  21.049  16.678  22.504  0.1109 -0.0696 -0.1712
 2023DOPG   GL246132  21.308  16.721  22.234  0.3459 -0.0925  0.0238
 2023DOPG   C1A46133  20.907  16.440  22.125 -0.0925  0.0068 -0.1442
 2023DOPG   D2A46134  20.789  16.099  21.840 -0.1196  0.1724  0.2230
 2023DOPG   C3A46135  21.155  15.890  21.635 -0.3248  0.0779  0.0187
 2023DOPG   C4A46136  21.153  15.795  21.184  0.1114 -0.0558  0.0809
 2023DOPG   C1B46137  21.300  16.806  21.778  0.1862  0.1148  0.2519
 2023DOPG   D2B46138  21.500  16.635  21.432 -0.0673  0.2600 -0.2919
 2023DOPG   C3B46139  21.639  16.569  21.040 -0.1234 -0.1245  0.1795
 2023DOPG   C4B46140  21.727  16.374  20.757 -0.0151 -0.1251 -0.4004
 2024DOPG   GL046141  12.773  17.440  24.092 -0.0534 -0.0506  0.2550
 2024DOPG   PO446142  12.704  17.155  23.833 -0.3063 -0.2479  0.2503
 2024DOPG   GL146143  12.575  17.186  23.395 -0.0390 -0.0980  0.1582
 2024DOPG   GL246144  12.426  17.400  23.230  0.1501  0.5174  0.1444
 2024DOPG   C1A46145  12.539  16.821  23.007  0.0946 -0.2226  0.0676
 2024DOPG   D2A46146  12.604  16.607  22.693 -0.2137 -0.1094 -0.1671
 2024DOPG   C3A46147  12.372  16.429  22.351 -0.0277  0.0459  0.0410
 2024DOPG   C4A46148  11.992  16.251  22.506 -0.0978 -0.1798  0.1464
 2024DOPG   C1B46149  12.484  17.642  22.835  0.3543  0.5930 -0.0277
 2024DOPG   D2B46150  12.387  17.575  22.414  0.1694  0.2960 -0.0469
 2024DOPG   C3B46151  12.667  17.418  22.171  0.1817  0.1036  0.3309
 2024DOPG   C4B46152  13.040  17.570  22.015  0.3846 -0.3159  0.2736
 2025DOPG   GL046153  17.927  24.246  19.498 -0.1268  0.1657  0.0612
 2025DOPG   PO446154  18.311  24.163  19.221  0.1209 -0.1889 -0.1028
 2025DOPG   GL146155  18.014  23.954  19.041  0.0583 -0.3413  0.0392
 2025DOPG   GL246156  17.802  23.740  19.076  0.1478 -0.1284  0.1028
 2025DOPG   C1A46157  18.006  23.786  18.507 -0.1768  0.2620  0.0243
 2025DOPG   D2A46158  18.088  23.535  18.244 -0.1363 -0.0417 -0.3476
 2025DOPG   C3A46159  18.142  23.138  18.285 -0.0677  0.0773 -0.2052
 2025DOPG   C4A46160  18.581  22.946  18.210 -0.1021 -0.1345  0.1176
 2025DOPG   C1B46161  17.478  24.090  19.103  0.0457  0.4381  0.0789
 2025DOPG   D2B46162  17.129  24.067  18.819 -0.2237  0.2994  0.0064
 2025DOPG   C3B46163  16.932  23.675  18.779  0.0933 -0.2299 -0.1629
 2025DOPG   C4B46164  16.586  23.339  18.622 -0.2201 -0.2317  0.0612
 2026DOPG   GL046165  14.492   7.606  20.050  0.0235  0.1441  0.0979
 2026DOPG   PO446166  14.036   7.455  19.962 -0.2450 -0.1290  0.2149
 2026DOPG   GL146167  14.051   7.398  19.542  0.0723 -0.2615 -0.2309
 2026DOPG   GL246168  14.212   7.295  19.272  0.2135 -0.2734 -0.1267
 2026DOPG   C1A46169  13.755   7.551  19.276  0.1922 -0.0984  0.1875
 2026DOPG   D2A46170  13.276   7.716  19.304 -0.1221 -0.2501  0.3537
 2026DOPG   C3A46171  13.117   8.016  19.655  0.0730  0.3928  0.1588
 2026DOPG   C4A46172  12.800   8.259  19.628  0.0406 -0.1526  0.0764
 2026DOPG   C1B46173  14.291   7.802  19.338 -0.1793  0.3445  0.1510
 2026DOPG   D2B46174  14.165   7.920  19.658  0.1574 -0.0809 -0.1431
 2026DOPG   C3B46175  14.014   8.297  19.798  0.1049 -0.0093 -0.5187
 2026DOPG   C4B46176  13.764   8.592  19.564 -0.2355  0.0216  0.0985
 2027DOPG   GL046177  12.760  19.204  23.547  0.3367  0.0706  0.1947
 2027DOPG   PO446178  12.663  19.395  23.142  0.3230  0.0577  0.0833
 2027DOPG   GL146179  12.941  19.149  22.823 -0.2375  0.0286  0.2695
 2027DOPG   GL246180  13.255  19.123  22.666  0.3152  0.0009 -0.2658
 2027DOPG   C1A46181  12.900  18.778  22.647  0.0659 -0.0973  0.1518
 2027DOPG   D2A46182  13.064  18.448  22.300  0.0689  0.3587 -0.2249
 2027DOPG   C3A46183  12.902  18.560  21.848 -0.0713 -0.2417 -0.2940
 2027DOPG   C4A46184  12.977  18.698  21.366 -0.0473  0.0294 -0.0555
 2027DOPG   C1B46185  13.314  19.446  22.309 -0.1554 -0.1625 -0.1385
 2027DOPG   D2B46186  13.083  19.467  22.042 -0.0382  0.0438 -0.0810
 2027DOPG   C3B46187  12.615  19.637  22.105 -0.3271  0.0984  0.0095
 2027DOPG   C4B46188  12.220  19.583  22.251  0.0768 -0.1679 -0.0960
 2028DOPG   GL046189  12.664  24.277  20.416  0.0374  0.0846  0.3656
 2028DOPG   PO446190  12.997  24.095  20.145  0.0692  0.3108 -0.3667
 2028DOPG   GL146191  12.517  24.169  19.895  0.0331  0.0418 -0.0712
 2028DOPG   GL246192  12.166  23.942  19.928  0.0435 -0.2994  0.0895
 2028DOPG   C1A46193  12.488  23.724  19.589  0.1626 -0.2915 -0.3854
 2028DOPG   D2A46194  12.201  23.363  19.576 -0.0642  0.1335 -0.4011
 2028DOPG   C3A46195  12.222  23.199  19.166 -0.0078  0.3365 -0.2550
 2028DOPG   C4A46196  12.213  22.962  18.759 -0.2847  0.0543  0.1978
 2028DOPG   C1B46197  11.924  23.622  19.864  0.2327 -0.2338 -0.2306
 2028DOPG   D2B46198  11.686  23.303  19.591  0.1018 -0.1545 -0.3926
 2028DOPG   C3B46199  11.665  23.208  19.165  0.0667 -0.1722 -0.2596
 2028DOPG   C4B46200  11.408  23.328  18.843 -0.0838 -0.0876 -0.1809
 2029DOPG   GL046201  14.792  24.233  19.260  0.0442  0.0816  0.3968
 2029DOPG   PO446202  14.394  24.317  19.118 -0.3039 -0.0712  0.3129
 2029DOPG   GL146203  14.520  23.927  18.968 -0.3407  0.1935  0.0174
 2029DOPG   GL246204  14.361  23.623  18.866  0.1718 -0.2005 -0.2115
 2029DOPG   C1A46205  14.885  23.774  18.883  0.2243 -0.1684 -0.2362
 2029DOPG   D2A46206  15.232  23.623  18.534 -0.0026  0.2417  0.1064
 2029DOPG   C3A46207  15.077  23.274  18.265  0.0640  0.1383  0.0490
 2029DOPG   C4A46208  15.247  22.962  18.044  0.0520  0.0342 -0.0646
 2029DOPG   C1B46209  14.287  23.208  18.758  0.0390  0.1910  0.1712
 2029DOPG   D2B46210  14.505  22.892  18.878 -0.0653 -0.1439  0.1773
 2029DOPG   C3B46211  14.843  22.762  19.088  0.0002 -0.4176 -0.2278
 2029DOPG   C4B46212  15.013  22.435  19.032 -0.3659 -0.2376 -0.1281
 2030DOPG   GL046213  20.763  11.080  19.393  0.1674 -0.0787 -0.0584
 2030DOPG   PO446214  20.567  10.751  19.083 -0.1956 -0.2807  0.1831
 2030DOPG   GL146215  20.512  11.142  18.963 -0.0927 -0.0459  0.1339
 2030DOPG   GL246216  20.174  11.146  19.158  0.1873 -0.1978 -0.2574
 2030DOPG   C1A46217  20.396  11.502  18.694  0.2291 -0.1977  0.1202
 2030DOPG   D2A46218  20.500  11.904  18.552 -0.1070 -0.1986  0.0521
 2030DOPG   C3A46219  20.307  12.246  18.732  0.0725 -0.0651  0.2475
 2030DOPG   C4A46220  19.920  12.385  18.740 -0.1276 -0.2046 -0.4509
 2030DOPG   C1B46221  20.394  11.428  19.384  0.1005 -0.0673  0.2021
 2030DOPG   D2B46222  20.281  11.815  19.603  0.0399 -0.3500 -0.1926
 2030DOPG   C3B46223  19.936  11.968  19.524  0.1051 -0.1812  0.1463
 2030DOPG   C4B46224  19.529  12.171  19.576  0.0380  0.0632  0.1827
 2031DOPG   GL046225   5.080  12.765  18.493  0.0316  0.1381 -0.1216
 2031DOPG   PO446226   5.463  12.828  18.347  0.0763  0.1807  0.2083
 2031DOPG   GL146227   5.816  12.789  18.131 -0.1261 -0.0069  0.1702
 2031DOPG   GL246228   5.837  12.899  17.771 -0.2552 -0.1558  0.1556
 2031DOPG   C1A46229   6.137  13.059  18.210  0.4534  0.0149 -0.1313
 2031DOPG   D2A46230   6.451  13.364  18.222  0.0295 -0.0375 -0.3489
 2031DOPG   C3A46231   6.311  13.761  18.268  0.1724  0.2935 -0.0433
 2031DOPG   C4A46232   6.206  14.070  18.122  0.1623  0.1123 -0.2162
 2031DOPG   C1B46233   6.303  12.855  17.784  0.0615  0.1347  0.0445
 2031DOPG   D2B46234   6.611  13.043  17.883 -0.4204  0.2724 -0.0590
 2031DOPG   C3B46235   7.051  13.054  17.689 -0.1952 -0.1841 -0.1525
 2031DOPG   C4B46236   7.317  13.253  17.383 -0.0666  0.0890 -0.1237
 2032DOPG   GL046237  15.259  11.212  22.073  0.2763  0.2972 -0.1760
 2032DOPG   PO446238  15.316  10.779  22.139 -0.1105  0.0948  0.0281
 2032DOPG   GL146239  15.234  10.930  21.651 -0.0384 -0.0552 -0.1844
 2032DOPG   GL246240  15.172  10.666  21.527  0.1449  0.1772  0.1475
 2032DOPG   C1A46241  15.388  11.217  21.228  0.3118 -0.1019  0.1101
 2032DOPG   D2A46242  15.258  11.217  20.820  0.3111 -0.2396  0.0599
 2032DOPG   C3A46243  14.961  10.891  20.482  0.6005  0.0753 -0.2393
 2032DOPG   C4A46244  14.803  10.744  20.094 -0.3531 -0.2432 -0.0359
 2032DOPG   C1B46245  14.811  10.376  21.380 -0.0631  0.2307  0.1282
 2032DOPG   D2B46246  14.682   9.927  21.140  0.2280 -0.2830  0.2538
 2032DOPG   C3B46247  14.788  10.104  20.758 -0.2174  0.0753  0.1129
 2032DOPG   C4B46248  14.982  10.441  20.494 -0.2602 -0.2451 -0.3082
 2033DOPG   GL046249   7.663  16.580  21.201  0.0959  0.3344 -0.1330
 2033DOPG   PO446250   7.770  16.272  20.992  0.2355  0.0751  0.1546
 2033DOPG   GL146251   8.036  16.189  20.628  0.1499  0.0430  0.0243
 2033DOPG   GL246252   8.128  16.327  20.359  0.1273 -0.0259  0.0595
 2033DOPG   C1A46253   8.167  15.827  20.411  0.1171  0.1203 -0.0811
 2033DOPG   D2A46254   8.396  15.393  20.512  0.2797  0.3540  0.0540
 2033DOPG   C3A46255   8.791  15.107  20.520 -0.0599  0.0377 -0.3797
 2033DOPG   C4A46256   9.228  14.879  20.492  0.1962 -0.1429  0.0160
 2033DOPG   C1B46257   8.677  16.142  20.447  0.2405  0.0221  0.1406
 2033DOPG   D2B46258   9.157  15.990  20.218 -0.2787  0.3889  0.3689
 2033DOPG   C3B46259   9.538  16.227  20.206  0.0892 -0.0207 -0.2176
 2033DOPG   C4B46260   9.472  16.623  20.096 -0.2200 -0.1346  0.0126
 2034DOPG   GL046261  24.483  17.899  21.998 -0.1669 -0.0373 -0.3504
 2034DOPG   PO446262  24.857  17.706  21.890 -0.1939  0.1339  0.1030
 2034DOPG   GL146263  24.767  17.880  21.587 -0.3564 -0.0458  0.1721
 2034DOPG   GL246264  24.526  18.099  21.551  0.1538  0.0003  0.5435
 2034DOPG   C1A46265  25.111  18.146  21.291 -0.0973 -0.1852 -0.1334
 2034DOPG   D2A46266  25.028  18.286  20.853 -0.2871  0.0540 -0.0887
 2034DOPG   C3A46267  25.291  18.113  20.573  0.2924  0.0777 -0.1024
 2034DOPG   C4A46268  25.392  17.728  20.671 -0.1982 -0.1220  0.0404
 2034DOPG   C1B46269  24.920  18.352  21.779 -0.1329  0.1433  0.0308
 2034DOPG   D2B46270  25.026  18.679  21.474 -0.2175 -0.0864 -0.1478
 2034DOPG   C3B46271  24.898  18.737  20.964 -0.1265  0.0227  0.2559
 2034DOPG   C4B46272  25.001  18.666  20.521  0.2860  0.4387 -0.0795
 2035DOPG   GL046273  15.943  13.509  23.888 -0.4223  0.0734  0.1386
 2035DOPG   PO446274  16.247  13.677  23.745  0.0996  0.2088  0.2535
 2035DOPG   GL146275  15.894  13.758  23.457  0.0401  0.2058 -0.0850
 2035DOPG   GL246276  15.605  13.800  23.662 -0.0369  0.1986  0.1351
 2035DOPG   C1A46277  15.745  13.593  23.029  0.0310 -0.0976 -0.1901
 2035DOPG   D2A46278  15.960  13.818  22.700  0.0833  0.1241 -0.2828
 2035DOPG   C3A46279  15.731  13.950  22.490  0.0793 -0.0650  0.0230
 2035DOPG   C4A46280  15.740  13.915  22.094 -0.0945 -0.0586  0.0784
 2035DOPG   C1B46281  15.531  13.999  23.237  0.3537  0.0741 -0.0254
 2035DOPG   D2B46282  15.504  14.207  22.822  0.2323  0.3273 -0.1109
 2035DOPG   C3B46283  15.167  14.169  22.645  0.4944 -0.2582  0.2396
 2035DOPG   C4B46284  14.987  14.354  22.410  0.1546 -0.0969 -0.1141
 2036DOPG   GL046285  14.082   9.310  21.772  0.0084  0.0348 -0.1313
 2036DOPG   PO446286  13.654   9.263  21.585 -0.0510 -0.3453 -0.0908
 2036DOPG   GL146287  13.541   9.363  21.179 -0.1901  0.1552  0.2397
 2036DOPG   GL246288  13.724   9.379  20.989 -0.0685 -0.2291 -0.0212
 2036DOPG   C1A46289  13.268   9.698  21.020  0.3059 -0.2688  0.2766
 2036DOPG   D2A46290  13.242  10.042  20.687  0.0126  0.0081  0.4413
 2036DOPG   C3A46291  13.062  10.535  20.627  0.1184 -0.2388 -0.3590
 2036DOPG   C4A46292  12.942  10.863  20.844  0.2760 -0.2817  0.1626
 2036DOPG   C1B46293  13.918   9.549  20.560  0.2014 -0.0453  0.1012
 2036DOPG   D2B46294  14.384   9.388  20.486  0.2381 -0.0133 -0.0478
 2036DOPG   C3B46295  14.725   9.471  20.786  0.0354  0.3864 -0.1837
 2036DOPG   C4B46296  15.069   9.698  20.855  0.1946 -0.0366  0.3329
 2037DOPG   GL046297  15.223   7.449  19.235  0.0364 -0.4739 -0.1623
 2037DOPG   PO446298  15.408   7.932  19.349  0.1616 -0.1768  0.1610
 2037DOPG   GL146299  15.131   8.160  19.249 -0.0628  0.0290  0.2312
 2037DOPG   GL246300  15.173   8.438  19.271  0.1603  0.6381 -0.1280
 2037DOPG   C1A46301  14.616   8.169  19.189 -0.1139  0.2439 -0.3448
 2037DOPG   D2A46302  14.387   8.317  18.770 -0.0830  0.3047 -0.1470
 2037DOPG   C3A46303  14.103   8.588  18.889 -0.0642 -0.2540 -0.2680
 2037DOPG   C4A46304  13.752   8.489  19.018 -0.1715  0.1329 -0.0298
 2037DOPG   C1B46305  15.174   9.026  19.415  0.1014 -0.1458  0.2963
 2037DOPG   D2B46306  14.919   9.403  19.564  0.0919  0.3841  0.1231
 2037DOPG   C3B46307  14.625   9.700  19.496 -0.1782 -0.3470 -0.0218
 2037DOPG   C4B46308  14.659  10.011  19.700 -0.0792  0.1415  0.2206
 2038DOPG   GL046309  11.086   8.072  21.729  0.2328  0.1133  0.1968
 2038DOPG   PO446310  10.576   8.025  21.533 -0.4269  0.1322 -0.1660
 2038DOPG   GL146311  10.768   8.197  21.151 -0.0556 -0.2164  0.0186
 2038DOPG   GL246312  11.111   8.206  21.125  0.0560 -0.2044 -0.0923
 2038DOPG   C1A46313  10.834   8.179  20.748 -0.0537  0.0115  0.2362
 2038DOPG   D2A46314  10.500   8.418  20.501  0.0772  0.1121 -0.2190
 2038DOPG   C3A46315  10.665   8.730  20.719 -0.0587 -0.2060 -0.2960
 2038DOPG   C4A46316  10.620   8.742  21.119  0.0588  0.1230  0.1448
 2038DOPG   C1B46317  11.165   8.618  20.899  0.1779 -0.2549 -0.1028
 2038DOPG   D2B46318  11.124   8.966  20.635 -0.1404 -0.3182  0.0669
 2038DOPG   C3B46319  11.071   9.099  20.175  0.0195  0.2126  0.0220
 2038DOPG   C4B46320  11.003   8.915  19.787  0.3850 -0.0276 -0.0714
 2039DOPG   GL046321  11.126  17.188  22.515 -0.1666 -0.1915 -0.0706
 2039DOPG   PO446322  11.417  17.595  22.633 -0.3219 -0.0457 -0.1962
 2039DOPG   GL146323  11.445  17.498  22.251 -0.0306  0.0947  0.0658
 2039DOPG   GL246324  11.382  17.760  22.098 -0.2818 -0.2226 -0.0706
 2039DOPG   C1A46325  11.589  17.371  21.817 -0.2361  0.4384 -0.0628
 2039DOPG   D2A46326  11.588  17.349  21.383  0.0946 -0.0442 -0.2431
 2039DOPG   C3A46327  11.219  17.496  21.198  0.4517  0.0447  0.2607
 2039DOPG   C4A46328  10.962  17.857  20.982  0.0211  0.0741  0.0694
 2039DOPG   C1B46329  11.375  18.252  21.938  0.4154 -0.2363  0.0214
 2039DOPG   D2B46330  11.102  18.464  21.619 -0.2523 -0.1624  0.1039
 2039DOPG   C3B46331  11.147  18.892  21.744  0.2455 -0.2402  0.0991
 2039DOPG   C4B46332  10.984  19.326  21.563  0.3298 -0.1506 -0.2845
 2040DOPG   GL046333  20.024  12.749  21.768  0.2435 -0.0120 -0.2011
 2040DOPG   PO446334  20.426  12.724  21.909  0.0039  0.0672  0.4229
 2040DOPG   GL146335  20.485  12.904  21.548 -0.0005 -0.0546  0.0730
 2040DOPG   GL246336  20.741  12.819  21.337  0.0386  0.0543  0.0765
 2040DOPG   C1A46337  20.325  13.131  21.227  0.2713  0.1215  0.2130
 2040DOPG   D2A46338  20.123  13.145  20.802  0.4103 -0.1650 -0.1456
 2040DOPG   C3A46339  20.264  13.421  20.432  0.2561 -0.0792 -0.1703
 2040DOPG   C4A46340  20.254  13.928  20.429  0.0731  0.5107  0.1190
 2040DOPG   C1B46341  20.842  12.986  21.070 -0.3512  0.0562  0.1010
 2040DOPG   D2B46342  20.619  13.202  20.845 -0.1769 -0.1018  0.1374
 2040DOPG   C3B46343  20.667  13.564  20.715  0.1830 -0.0545 -0.0364
 2040DOPG   C4B46344  20.484  14.002  20.928  0.0860  0.1033 -0.0076
 2041DOPG   GL046345   8.837  24.930  18.358  0.0203  0.3720  0.2924
 2041DOPG   PO446346   9.053  24.544  18.284  0.0482  0.1075 -0.0180
 2041DOPG   GL146347   8.859  24.095  18.098  0.1508 -0.0716  0.1719
 2041DOPG   GL246348   8.700  24.064  17.811 -0.0938 -0.0835 -0.0283
 2041DOPG   C1A46349   8.493  23.994  18.307 -0.1458  0.0005  0.0586
 2041DOPG   D2A46350   8.034  23.821  18.325 -0.1703  0.0478  0.0352
 2041DOPG   C3A46351   7.957  23.258  18.383 -0.0118  0.0937 -0.0054
 2041DOPG   C4A46352   8.111  22.821  18.332 -0.1954 -0.3194  0.2432
 2041DOPG   C1B46353   8.987  23.756  17.760 -0.2472  0.2187 -0.3145
 2041DOPG   D2B46354   9.155  23.332  17.868  0.3555 -0.1112  0.0468
 2041DOPG   C3B46355   8.976  23.179  18.353 -0.0424 -0.0727 -0.0073
 2041DOPG   C4B46356   8.955  22.921  18.688  0.2067 -0.3112  0.0079
 2042DOPG   GL046357  23.628  12.477  19.963 -0.4832  0.1332 -0.1564
 2042DOPG   PO446358  23.585  12.778  20.242 -0.0454  0.0644  0.0421
 2042DOPG   GL146359  23.307  13.059  20.400 -0.0483 -0.2408  0.1675
 2042DOPG   GL246360  23.346  13.418  20.518 -0.6217  0.1008  0.0382
 2042DOPG   C1A46361  22.870  13.033  20.269  0.1679  0.2223 -0.1925
 2042DOPG   D2A46362  22.400  13.224  20.202 -0.0781  0.0017  0.0243
 2042DOPG   C3A46363  22.213  13.634  20.216 -0.1212  0.0959  0.0491
 2042DOPG   C4A46364  21.948  14.063  20.304  0.1628 -0.1051  0.1381
 2042DOPG   C1B46365  23.330  13.837  20.375  0.4894  0.3830 -0.0823
 2042DOPG   D2B46366  22.989  14.075  20.191 -0.1323  0.2683  0.1890
 2042DOPG   C3B46367  22.746  14.153  19.932 -0.3055  0.1760 -0.0536
 2042DOPG   C4B46368  22.438  14.376  19.795  0.2398 -0.3470  0.0773
 2043DOPG   GL046369  13.222  25.493  18.315 -0.0506 -0.1510 -0.0196
 2043DOPG   PO446370  13.004  25.291  18.437 -0.2276  0.1347 -0.0657
 2043DOPG   GL146371  13.160  24.969  18.556 -0.1909  0.0029  0.1072
 2043DOPG   GL246372  13.320  24.805  18.304  0.0110 -0.0120 -0.1174
 2043DOPG   C1A46373  12.878  24.649  18.577  0.0685  0.1786 -0.1065
 2043DOPG   D2A46374  12.512  24.587  18.803  0.1995  0.0204 -0.1469
 2043DOPG   C3A46375  12.114  24.549  18.996  0.4753  0.0981  0.0272
 2043DOPG   C4A46376  11.865  24.222  18.982  0.0561  0.1439  0.0743
 2043DOPG   C1B46377  13.388  24.442  17.994 -0.1404  0.1919  0.3315
 2043DOPG   D2B46378  13.696  24.250  17.738  0.2490 -0.3352  0.0565
 2043DOPG   C3B46379  13.531  23.852  17.581 -0.1481  0.2704 -0.1452
 2043DOPG   C4B46380  13.759  23.677  17.300 -0.2404 -0.3997 -0.1570
 2044DOPG   GL046381   9.575  24.693  20.258 -0.0874  0.1232  0.0745
 2044DOPG   PO446382   9.945  24.509  20.250 -0.4257  0.1092  0.0505
 2044DOPG   GL146383  10.199  24.106  19.923 -0.0064 -0.0007  0.0851
 2044DOPG   GL246384   9.967  23.803  19.684 -0.1376 -0.0959  0.1303
 2044DOPG   C1A46385  10.470  23.835  19.723 -0.0870  0.0671 -0.1482
 2044DOPG   D2A46386  10.585  23.426  19.554 -0.2241 -0.0514  0.0198
 2044DOPG   C3A46387  10.562  23.279  19.205 -0.0793 -0.2167 -0.0484
 2044DOPG   C4A46388  10.270  23.066  19.004  0.1385 -0.1278  0.0929
 2044DOPG   C1B46389  10.168  23.602  19.364  0.2526  0.3626 -0.1333
 2044DOPG   D2B46390  10.399  23.667  19.004 -0.1103  0.0374 -0.3271
 2044DOPG   C3B46391  10.335  23.386  18.590  0.0390  0.0772 -0.1674
 2044DOPG   C4B46392  10.611  23.247  18.291  0.0712 -0.1934 -0.1149
 2045DOPG   GL046393   8.062   9.015  20.053 -0.2273 -0.0525 -0.1317
 2045DOPG   PO446394   8.124   8.901  19.585  0.1550  0.2588 -0.0379
 2045DOPG   GL146395   8.617   8.939  19.598 -0.0276  0.0853  0.0334
 2045DOPG   GL246396   8.945   8.798  19.550 -0.0316  0.1406  0.0291
 2045DOPG   C1A46397   8.974   9.241  19.810 -0.1821  0.0969  0.0796
 2045DOPG   D2A46398   9.428   9.380  19.676  0.2572  0.2043  0.0060
 2045DOPG   C3A46399   9.611   9.732  19.545 -0.4005  0.1388 -0.0104
 2045DOPG   C4A46400  10.034   9.803  19.508  0.1153 -0.2914  0.0479
 2045DOPG   C1B46401   9.377   8.899  19.502  0.1124  0.0950 -0.0565
 2045DOPG   D2B46402   9.754   8.909  19.247  0.1429  0.0155  0.0053
 2045DOPG   C3B46403  10.186   8.834  19.250  0.0154  0.0323  0.0060
 2045DOPG   C4B46404  10.476   8.593  19.038 -0.1777  0.1217 -0.1962
 2046DOPG   GL046405  12.476  12.484  23.661 -0.4709 -0.2996 -0.4000
 2046DOPG   PO446406  12.960  12.625  23.444  0.2794  0.0278  0.2514
 2046DOPG   GL146407  13.207  12.796  23.104  0.1338  0.1437 -0.1301
 2046DOPG   GL246408  12.950  12.680  22.959 -0.1184  0.0600 -0.1725
 2046DOPG   C1A46409  13.417  13.050  22.772 -0.0287  0.0108  0.1263
 2046DOPG   D2A46410  13.837  13.363  22.670  0.1649 -0.2290 -0.0823
 2046DOPG   C3A46411  14.130  13.450  22.274 -0.2349  0.3077 -0.0440
 2046DOPG   C4A46412  14.237  13.149  21.935  0.1338 -0.1529 -0.1755
 2046DOPG   C1B46413  13.191  12.636  22.489 -0.1961  0.2407  0.1394
 2046DOPG   D2B46414  13.590  12.473  22.231  0.0625 -0.3738 -0.2683
 2046DOPG   C3B46415  13.551  12.137  22.059  0.3160  0.1033 -0.1928
 2046DOPG   C4B46416  13.456  11.669  22.240 -0.1864 -0.0314 -0.2009
 2047DOPG   GL046417  10.942  23.843  20.678  0.2077  0.3189  0.1607
 2047DOPG   PO446418  11.240  24.079  20.345 -0.0921 -0.1378 -0.0425
 2047DOPG   GL146419  11.206  23.868  19.952  0.0364  0.1654  0.2569
 2047DOPG   GL246420  11.193  24.084  19.777 -0.5545 -0.0307  0.3786
 2047DOPG   C1A46421  11.447  23.713  19.448  0.2742 -0.1458 -0.0575
 2047DOPG   D2A46422  11.411  23.983  19.015  0.3187  0.0926 -0.1506
 2047DOPG   C3A46423  11.184  23.754  18.644  0.2088 -0.1336  0.0411
 2047DOPG   C4A46424  10.679  23.702  18.591 -0.3427 -0.2837  0.1021
 2047DOPG   C1B46425  10.895  23.912  19.484  0.1857 -0.0164 -0.2353
 2047DOPG   D2B46426  10.908  23.763  19.138  0.3886 -0.1033  0.4770
 2047DOPG   C3B46427  10.908  24.130  18.891  0.1836 -0.2116 -0.1313
 2047DOPG   C4B46428  10.676  24.215  18.556 -0.0392  0.1056  0.0418
 2048DOPG   GL046429   5.893  17.285  18.994 -0.0882 -0.1555 -0.0601
 2048DOPG   PO446430   6.113  17.643  19.074 -0.0182  0.1652 -0.0163
 2048DOPG   GL146431   5.711  17.741  19.194  0.1046  0.1321  0.4651
 2048DOPG   GL246432   5.492  17.551  19.204  0.0595  0.1369 -0.0336
 2048DOPG   C1A46433   5.357  17.986  19.358  0.0720 -0.5249 -0.1564
 2048DOPG   D2A46434   5.257  18.381  19.325  0.4720 -0.0815  0.0195
 2048DOPG   C3A46435   5.572  18.684  19.503 -0.1943  0.4799  0.1095
 2048DOPG   C4A46436   5.705  19.093  19.697  0.1729  0.0729  0.1267
 2048DOPG   C1B46437   5.414  17.683  18.702  0.0894 -0.0776 -0.2570
 2048DOPG   D2B46438   5.475  17.764  18.232 -0.1069  0.1547  0.0311
 2048DOPG   C3B46439   5.921  17.963  18.011 -0.3038 -0.3730 -0.0849
 2048DOPG   C4B46440   6.358  17.754  17.960  0.1701 -0.0165  0.4340
 2049DOPG   GL046441   5.647  12.930  19.642  0.1720  0.0751  0.3208
 2049DOPG   PO446442   5.941  13.060  19.889 -0.1085 -0.3548 -0.0667
 2049DOPG   GL146443   6.124  12.910  19.446 -0.2142 -0.1266  0.1243
 2049DOPG   GL246444   6.335  12.599  19.372 -0.0678 -0.2539  0.0906
 2049DOPG   C1A46445   6.189  12.889  19.027 -0.2253 -0.0619 -0.0853
 2049DOPG   D2A46446   5.922  13.075  18.685  0.2369  0.0046  0.0789
 2049DOPG   C3A46447   5.943  13.463  18.486  0.4487 -0.1075  0.1122
 2049DOPG   C4A46448   5.717  13.833  18.315  0.0176  0.1335 -0.1231
 2049DOPG   C1B46449   6.669  12.883  19.365 -0.0784 -0.5048  0.1262
 2049DOPG   D2B46450   6.828  13.302  19.493 -0.0679 -0.1510  0.1049
 2049DOPG   C3B46451   6.448  13.632  19.387 -0.0565 -0.2259  0.2736
 2049DOPG   C4B46452   6.548  14.044  19.166  0.0077  0.1816  0.0743
 2050DOPG   GL046453  10.351   9.311  22.467 -0.3121  0.0116  0.1705
 2050DOPG   PO446454  10.561   9.587  22.725 -0.1258  0.0931  0.2769
 2050DOPG   GL146455  10.538   9.869  22.262 -0.2558  0.2495 -0.0032
 2050DOPG   GL246456  10.655  10.101  22.318 -0.3988  0.2179 -0.0807
 2050DOPG   C1A46457  10.558   9.888  21.759 -0.5657 -0.2801 -0.1781
 2050DOPG   D2A46458  10.393  10.117  21.469 -0.0485 -0.0968 -0.0238
 2050DOPG   C3A46459  10.644  10.578  21.423  0.0390 -0.0308  0.4382
 2050DOPG   C4A46460  10.556  11.099  21.401  0.0462 -0.1017 -0.4570
 2050DOPG   C1B46461  11.050   9.874  21.985  0.3263  0.3054  0.0344
 2050DOPG   D2B46462  11.202   9.826  21.614 -0.2072 -0.0775  0.2517
 2050DOPG   C3B46463  11.210   9.425  21.322  0.2200 -0.1566  0.0423
 2050DOPG   C4B46464  11.083   8.989  21.342  0.2140 -0.1722 -0.2826
 2051DOPG   GL046465  17.599  24.543  18.031  0.1082  0.1975  0.3044
 2051DOPG   PO446466  17.444  24.539  17.592  0.0270  0.1092 -0.2924
 2051DOPG   GL146467  17.180  24.252  17.426  0.2563  0.1535 -0.2175
 2051DOPG   GL246468  16.952  24.027  17.233  0.3027  0.2355 -0.1038
 2051DOPG   C1A46469  16.965  23.846  17.744 -0.1559 -0.0365  0.2977
 2051DOPG   D2A46470  16.389  23.746  17.753  0.0143  0.2177 -0.1537
 2051DOPG   C3A46471  16.108  23.951  17.967  0.0526  0.0974 -0.3090
 2051DOPG   C4A46472  15.965  24.396  17.888 -0.1252 -0.0647  0.0236
 2051DOPG   C1B46473  16.635  23.693  17.286 -0.1983 -0.1879  0.1216
 2051DOPG   D2B46474  16.497  23.333  17.550  0.0576 -0.1998  0.0568
 2051DOPG   C3B46475  16.262  22.964  17.709  0.4307 -0.0421  0.2834
 2051DOPG   C4B46476  16.192  22.644  17.865  0.1380 -0.1906  0.1496
 2052DOPG   GL046477  17.165  13.353  23.002 -0.1693  0.0684  0.2844
 2052DOPG   PO446478  17.428  13.679  23.167  0.3212  0.0819  0.1082
 2052DOPG   GL146479  17.385  13.812  22.749 -0.1465 -0.1542 -0.3503
 2052DOPG   GL246480  17.706  14.085  22.568  0.0258  0.0750  0.1833
 2052DOPG   C1A46481  17.227  13.857  22.314  0.0877  0.0305 -0.0426
 2052DOPG   D2A46482  17.206  14.158  21.993 -0.0280  0.3025 -0.4086
 2052DOPG   C3A46483  16.901  14.570  22.108  0.3478  0.2860 -0.2739
 2052DOPG   C4A46484  16.462  14.556  22.338  0.1930  0.0380 -0.0877
 2052DOPG   C1B46485  17.662  13.933  22.145 -0.0926 -0.3627  0.0285
 2052DOPG   D2B46486  17.521  13.774  21.819  0.1719 -0.3480  0.2027
 2052DOPG   C3B46487  17.196  13.992  21.529  0.0031 -0.1425 -0.0656
 2052DOPG   C4B46488  17.096  14.334  21.215  0.1306  0.0111  0.0867
 2053DOPG   GL046489  19.435  24.435  16.048 -0.0351 -0.0113  0.0778
 2053DOPG   PO446490  19.131  24.128  15.948  0.1965 -0.1195  0.2034
 2053DOPG   GL146491  18.897  23.763  16.035 -0.4383  0.0384 -0.2969
 2053DOPG   GL246492  18.929  23.574  15.773  0.0832 -0.3806 -0.1130
 2053DOPG   C1A46493  18.757  23.490  16.225  0.1591 -0.1021  0.1758
 2053DOPG   D2A46494  18.407  23.244  16.453  0.1952  0.0836 -0.0711
 2053DOPG   C3A46495  18.552  22.886  16.696  0.0040  0.0504 -0.2106
 2053DOPG   C4A46496  18.863  22.771  16.994  0.1243  0.2104  0.0029
 2053DOPG   C1B46497  18.909  23.163  15.898 -0.0868  0.3189 -0.0377
 2053DOPG   D2B46498  18.817  23.005  16.288  0.1192 -0.1939  0.1370
 2053DOPG   C3B46499  19.049  23.094  16.569  0.1714  0.1626 -0.4505
 2053DOPG   C4B46500  19.269  23.439  16.411  0.4125  0.1462 -0.0851
 2054DOPG   GL046501  17.409  14.455  23.659 -0.0631 -0.0344  0.2299
 2054DOPG   PO446502  16.865  14.448  23.838  0.0696 -0.1444  0.3399
 2054DOPG   GL146503  16.968  14.387  23.409 -0.0160  0.2687 -0.0456
 2054DOPG   GL246504  16.801  14.199  23.231  0.0138 -0.1359  0.0803
 2054DOPG   C1A46505  17.131  14.773  23.164 -0.0529  0.0939 -0.0330
 2054DOPG   D2A46506  17.498  14.791  22.741  0.0449 -0.2761  0.2705
 2054DOPG   C3A46507  17.302  14.886  22.272 -0.0872 -0.0620 -0.0420
 2054DOPG   C4A46508  17.369  14.870  21.899 -0.1806 -0.2999  0.3765
 2054DOPG   C1B46509  16.856  14.446  22.933 -0.2560  0.1782 -0.1742
 2054DOPG   D2B46510  16.954  14.564  22.604 -0.2679  0.1148 -0.0066
 2054DOPG   C3B46511  17.327  14.348  22.480  0.2362  0.0636  0.1826
 2054DOPG   C4B46512  17.538  14.472  22.148 -0.1992  0.0898  0.1384
 2055DOPG   GL046513  16.159  12.215  23.353  0.0384  0.0286  0.1019
 2055DOPG   PO446514  15.958  12.519  23.079 -0.1428 -0.0517  0.0435
 2055DOPG   GL146515  15.824  12.652  22.744  0.2519  0.2193  0.1713
 2055DOPG   GL246516  15.724  12.325  22.555 -0.2321  0.3923  0.0585
 2055DOPG   C1A46517  15.842  12.925  22.353 -0.2467  0.3305 -0.2340
 2055DOPG   D2A46518  15.436  12.935  22.126  0.2217 -0.3200 -0.4778
 2055DOPG   C3A46519  15.126  12.768  22.393  0.0250 -0.0300 -0.0914
 2055DOPG   C4A46520  14.792  12.914  22.570 -0.1028  0.0991  0.2359
 2055DOPG   C1B46521  15.494  12.423  22.226 -0.1816 -0.3632  0.1900
 2055DOPG   D2B46522  15.163  12.473  21.931  0.1916  0.0769  0.2356
 2055DOPG   C3B46523  15.216  12.417  21.541 -0.0664  0.1097  0.0966
 2055DOPG   C4B46524  15.337  12.524  21.254  0.0075  0.0625 -0.0358
 2056DOPG   GL046525   8.039   9.877  20.994  0.0532 -0.1242  0.0836
 2056DOPG   PO446526   7.927   9.840  20.560 -0.0413  0.1152  0.3709
 2056DOPG   GL146527   8.304  10.106  20.460  0.0764 -0.2947 -0.0673
 2056DOPG   GL246528   8.348   9.817  20.197 -0.0017 -0.2436 -0.1155
 2056DOPG   C1A46529   8.514  10.368  20.453 -0.1179 -0.0272  0.2503
 2056DOPG   D2A46530   8.495  10.824  20.290 -0.1010 -0.0247 -0.2157
 2056DOPG   C3A46531   8.125  10.805  20.094  0.0033 -0.1488  0.2574
 2056DOPG   C4A46532   7.934  11.191  19.854  0.0349 -0.0765  0.3163
 2056DOPG   C1B46533   8.666   9.675  19.978 -0.0385  0.1310 -0.0423
 2056DOPG   D2B46534   8.566   9.453  19.524  0.2090  0.1796 -0.0145
 2056DOPG   C3B46535   8.374   9.731  19.222 -0.0793  0.0102 -0.3600
 2056DOPG   C4B46536   8.307  10.245  19.176 -0.2034  0.2925  0.1293
 2057DOPG   GL046537   9.890  25.154  18.238  0.1322 -0.0406 -0.1977
 2057DOPG   PO446538  10.229  24.948  18.039 -0.1687  0.0635  0.1669
 2057DOPG   GL146539  10.073  24.545  18.006  0.0573 -0.2581 -0.0642
 2057DOPG   GL246540   9.838  24.420  17.861  0.2288  0.0632  0.2579
 2057DOPG   C1A46541  10.005  24.194  18.267 -0.2188  0.4724 -0.0956
 2057DOPG   D2A46542  10.066  23.765  18.344 -0.2326 -0.2943 -0.2621
 2057DOPG   C3A46543  10.475  23.685  18.152  0.0361 -0.0068  0.3085
 2057DOPG   C4A46544  10.783  23.507  17.841 -0.1271  0.1425  0.1694
 2057DOPG   C1B46545  10.164  24.369  17.522  0.2282 -0.0351  0.0950
 2057DOPG   D2B46546  10.043  24.317  17.100 -0.1101  0.2807 -0.0657
 2057DOPG   C3B46547   9.923  24.168  16.737  0.1226 -0.0834 -0.0857
 2057DOPG   C4B46548   9.877  23.830  16.342  0.1031  0.0047 -0.0650
 2058DOPG   GL046549  21.940  15.575  23.081 -0.0204  0.0357 -0.1216
 2058DOPG   PO446550  21.780  15.270  22.900  0.3438  0.1758  0.0508
 2058DOPG   GL146551  21.710  15.152  22.455  0.0745 -0.0159 -0.1066
 2058DOPG   GL246552  21.821  15.501  22.270 -0.0717  0.0011 -0.2650
 2058DOPG   C1A46553  21.587  15.055  22.035 -0.0655 -0.0563 -0.0311
 2058DOPG   D2A46554  21.482  14.976  21.663  0.1879 -0.0911  0.2243
 2058DOPG   C3A46555  21.609  15.164  21.296  0.1898 -0.1766  0.1615
 2058DOPG   C4A46556  21.591  15.522  20.935 -0.0173  0.0725 -0.0668
 2058DOPG   C1B46557  21.989  15.521  21.923 -0.1622 -0.0181  0.2744
 2058DOPG   D2B46558  22.010  15.436  21.432 -0.0884 -0.2955 -0.0027
 2058DOPG   C3B46559  22.004  15.806  21.210 -0.2869 -0.0938 -0.1014
 2058DOPG   C4B46560  21.976  16.200  21.124  0.0381  0.2359  0.0304
 2059DOPG   GL046561  14.780  17.093  23.687 -0.1798  0.0173 -0.2073
 2059DOPG   PO446562  14.782  17.558  23.883 -0.2574 -0.0293 -0.0624
 2059DOPG   GL146563  15.054  17.579  23.553 -0.0674  0.1970 -0.2810
 2059DOPG   GL246564  15.421  17.603  23.450  0.1370  0.4014  0.3852
 2059DOPG   C1A46565  15.024  17.676  23.139 -0.0112  0.0274 -0.0873
 2059DOPG   D2A46566  14.907  17.918  22.805  0.1573  0.1499 -0.1820
 2059DOPG   C3A46567  14.738  17.745  22.353 -0.1229 -0.2090 -0.1685
 2059DOPG   C4A46568  14.923  17.578  22.021  0.0380  0.0953  0.1780
 2059DOPG   C1B46569  15.529  17.939  23.156  0.2099 -0.2362 -0.0761
 2059DOPG   D2B46570  15.659  17.907  22.767  0.3396 -0.2101 -0.3482
 2059DOPG   C3B46571  15.253  17.778  22.420 -0.0345 -0.1959 -0.0997
 2059DOPG   C4B46572  15.059  18.141  22.097 -0.0636 -0.1391 -0.0013
 2060DOPG   GL046573  15.805  24.244  20.213 -0.0920 -0.2008 -0.4304
 2060DOPG   PO446574  15.412  23.861  20.322 -0.4551  0.0159  0.1675
 2060DOPG   GL146575  15.279  23.550  20.148  0.1426 -0.0590  0.0241
 2060DOPG   GL246576  15.130  23.735  19.863  0.3280  0.0334 -0.1844
 2060DOPG   C1A46577  15.044  23.150  19.990  0.0401  0.0281  0.1141
 2060DOPG   D2A46578  14.906  22.665  20.111  0.1916  0.4402  0.2161
 2060DOPG   C3A46579  14.723  22.482  19.828  0.0758 -0.0597  0.0362
 2060DOPG   C4A46580  14.655  22.384  19.437  0.0063  0.1550  0.1159
 2060DOPG   C1B46581  15.025  23.625  19.490 -0.1592  0.0388  0.0893
 2060DOPG   D2B46582  14.921  23.158  19.355  0.1302  0.0830  0.0009
 2060DOPG   C3B46583  15.133  22.667  19.453  0.0477  0.3162  0.0272
 2060DOPG   C4B46584  15.177  22.212  19.558  0.3010 -0.2335 -0.0742
 2061DOPG   GL046585  22.246  14.381  22.861  0.3466 -0.0627  0.1953
 2061DOPG   PO446586  21.913  14.230  22.731  0.3080 -0.0857  0.4223
 2061DOPG   GL146587  21.879  14.554  22.417  0.2213  0.0463  0.1084
 2061DOPG   GL246588  21.713  14.602  22.108 -0.0944  0.2340 -0.0246
 2061DOPG   C1A46589  22.159  14.576  21.982  0.2001 -0.1645  0.2238
 2061DOPG   D2A46590  22.088  14.878  21.660  0.0485  0.1900 -0.4690
 2061DOPG   C3A46591  22.101  14.920  21.165 -0.2615 -0.0224 -0.2180
 2061DOPG   C4A46592  21.852  15.118  20.860  0.2108  0.1440  0.0050
 2061DOPG   C1B46593  21.721  14.518  21.731 -0.2323  0.0443  0.0795
 2061DOPG   D2B46594  21.830  14.508  21.260 -0.0826 -0.3554  0.0648
 2061DOPG   C3B46595  21.542  14.750  21.022 -0.1447 -0.1573  0.3315
 2061DOPG   C4B46596  21.466  14.880  20.589 -0.3087 -0.0583  0.2333
 2062DOPG   GL046597  20.393  19.150  22.269 -0.3876 -0.1906 -0.1361
 2062DOPG   PO446598  20.412  18.880  21.951 -0.2812 -0.1302 -0.0912
 2062DOPG   GL146599  20.321  18.883  21.517 -0.1198 -0.4394 -0.5772
 2062DOPG   GL246600  20.572  18.660  21.489 -0.0185 -0.2626  0.2860
 2062DOPG   C1A46601  20.077  18.807  21.172 -0.1254 -0.1127 -0.0711
 2062DOPG   D2A46602  19.708  18.938  21.034 -0.2544  0.0241 -0.1324
 2062DOPG   C3A46603  19.285  18.815  21.006 -0.2411 -0.1276  0.0730
 2062DOPG   C4A46604  19.058  18.429  20.968  0.0432 -0.1943 -0.2817
 2062DOPG   C1B46605  20.580  18.598  21.029 -0.1202  0.3270 -0.1124
 2062DOPG   D2B46606  20.255  18.591  20.750 -0.2242  0.0854 -0.2902
 2062DOPG   C3B46607  20.009  18.371  20.979 -0.0708  0.1697 -0.0263
 2062DOPG   C4B46608  19.886  18.049  21.260  0.3202 -0.1049 -0.1340
 2063DOPG   GL046609  13.827  18.294  24.328 -0.1292  0.3009  0.1659
 2063DOPG   PO446610  14.093  18.203  24.106 -0.2059 -0.0284 -0.0315
 2063DOPG   GL146611  14.131  18.031  23.714 -0.0543 -0.2732 -0.0347
 2063DOPG   GL246612  14.153  18.142  23.314 -0.1125 -0.0594 -0.0865
 2063DOPG   C1A46613  14.069  17.693  23.448 -0.0810 -0.1394 -0.0749
 2063DOPG   D2A46614  13.909  17.455  23.201  0.1813  0.1253 -0.0261
 2063DOPG   C3A46615  14.056  17.236  22.735  0.0148  0.0051 -0.0589
 2063DOPG   C4A46616  13.722  16.962  22.479  0.1861  0.3056 -0.0929
 2063DOPG   C1B46617  14.239  18.342  22.949 -0.1293 -0.4248 -0.1038
 2063DOPG   D2B46618  14.349  18.401  22.520  0.0916  0.2094  0.0670
 2063DOPG   C3B46619  14.282  18.085  22.264 -0.1737  0.1297  0.2119
 2063DOPG   C4B46620  14.058  17.773  22.019  0.1674 -0.2168  0.0607
 2064DOPG   GL046621  14.692  24.852  18.657 -0.3318  0.2162 -0.0635
 2064DOPG   PO446622  14.936  24.518  18.374 -0.2919  0.2069  0.2633
 2064DOPG   GL146623  14.782  24.176  18.191  0.0591 -0.1439 -0.1754
 2064DOPG   GL246624  14.886  23.912  18.382 -0.3715 -0.3556 -0.0977
 2064DOPG   C1A46625  14.526  23.841  18.034  0.3574 -0.2531  0.2358
 2064DOPG   D2A46626  14.680  23.385  17.995  0.3374 -0.3609  0.1512
 2064DOPG   C3A46627  14.622  23.098  17.589  0.3794 -0.1532 -0.0998
 2064DOPG   C4A46628  14.532  23.332  17.272  0.0312 -0.1615 -0.1759
 2064DOPG   C1B46629  14.702  23.523  18.509  0.3923  0.1455 -0.0027
 2064DOPG   D2B46630  14.548  23.081  18.374 -0.0442  0.1688 -0.0236
 2064DOPG   C3B46631  14.813  22.836  18.236 -0.1723 -0.3694  0.1883
 2064DOPG   C4B46632  14.847  22.742  17.879  0.0548  0.2328  0.1358
 2065DOPG   GL046633  10.597  13.019  22.911  0.5112 -0.0673 -0.0070
 2065DOPG   PO446634  10.918  13.227  22.970 -0.2213  0.1920  0.0706
 2065DOPG   GL146635  10.989  13.523  22.724  0.0290  0.0148 -0.0136
 2065DOPG   GL246636  11.270  13.665  22.700  0.1424  0.1408 -0.0015
 2065DOPG   C1A46637  10.912  13.937  22.529 -0.2087 -0.2038  0.0349
 2065DOPG   D2A46638  11.031  14.436  22.384 -0.1042 -0.2300  0.1042
 2065DOPG   C3A46639  10.837  14.892  22.543 -0.0799 -0.2724 -0.1396
 2065DOPG   C4A46640  10.789  15.372  22.446 -0.0550  0.1299  0.1313
 2065DOPG   C1B46641  11.360  13.845  22.372  0.0262 -0.2686  0.4157
 2065DOPG   D2B46642  11.636  14.013  22.006 -0.1690  0.0940 -0.4368
 2065DOPG   C3B46643  12.084  14.065  21.980  0.0125  0.0691 -0.1210
 2065DOPG   C4B46644  12.429  14.122  21.798  0.0426  0.0304  0.0973
 2066DOPG   GL046645  22.118  22.482  21.028 -0.0150  0.5150 -0.3750
 2066DOPG   PO446646  22.194  22.351  20.608  0.1177  0.0166 -0.2591
 2066DOPG   GL146647  22.014  22.120  20.254 -0.1531 -0.2437  0.1808
 2066DOPG   GL246648  21.730  22.352  20.250 -0.0680 -0.2541 -0.2919
 2066DOPG   C1A46649  22.018  21.948  19.942 -0.0143 -0.0699 -0.3223
 2066DOPG   D2A46650  21.998  21.802  19.521  0.0123 -0.2472 -0.0625
 2066DOPG   C3A46651  21.754  21.520  19.244 -0.1105  0.4285 -0.0764
 2066DOPG   C4A46652  21.322  21.680  19.368 -0.1638 -0.1046  0.0410
 2066DOPG   C1B46653  21.377  22.019  20.252 -0.0659  0.1987  0.2951
 2066DOPG   D2B46654  21.052  21.722  20.304  0.3275 -0.2568  0.0430
 2066DOPG   C3B46655  21.107  21.335  20.562  0.2151 -0.3427  0.4689
 2066DOPG   C4B46656  20.875  20.989  20.674  0.1864  0.0842 -0.0900
 2067DOPG   GL046657  11.614  17.783  23.493 -0.0873 -0.0191 -0.0298
 2067DOPG   PO446658  11.955  17.585  23.527  0.2165 -0.0169  0.0066
 2067DOPG   GL146659  12.043  17.766  23.116 -0.1201 -0.0492  0.0669
 2067DOPG   GL246660  12.012  17.607  22.785 -0.0856 -0.2204 -0.2317
 2067DOPG   C1A46661  12.234  18.037  22.737  0.2223 -0.0427  0.3031
 2067DOPG   D2A46662  12.224  18.025  22.293 -0.0231  0.2486  0.1928
 2067DOPG   C3A46663  12.326  18.307  22.040  0.2492  0.1942  0.0669
 2067DOPG   C4A46664  12.543  18.534  22.229 -0.2144  0.2218  0.0073
 2067DOPG   C1B46665  11.918  17.274  22.416 -0.0491  0.0661 -0.3526
 2067DOPG   D2B46666  11.499  17.025  22.190 -0.0166  0.0282  0.0089
 2067DOPG   C3B46667  11.357  16.891  21.779  0.1920 -0.0852 -0.2732
 2067DOPG   C4B46668  11.505  16.863  21.543 -0.0594  0.0231 -0.0917
 2068DOPG   GL046669   7.361  11.313  19.997 -0.1688  0.1478  0.1867
 2068DOPG   PO446670   7.045  11.059  19.916 -0.1676 -0.1088  0.1765
 2068DOPG   GL146671   7.410  10.799  19.766  0.2693  0.1185 -0.0007
 2068DOPG   GL246672   7.682  10.680  20.021  0.0351  0.0064  0.1498
 2068DOPG   C1A46673   7.686  10.953  19.430  0.0017  0.2912 -0.3296
 2068DOPG   D2A46674   7.972  11.248  19.060  0.3173  0.0078 -0.2308
 2068DOPG   C3A46675   7.923  11.597  19.161 -0.0930 -0.4428  0.0283
 2068DOPG   C4A46676   8.187  11.933  19.212 -0.0369  0.1058 -0.2387
 2068DOPG   C1B46677   8.019  10.599  19.662  0.1156  0.1575 -0.1439
 2068DOPG   D2B46678   8.547  10.510  19.610  0.0116  0.0811  0.2238
 2068DOPG   C3B46679   8.717  10.175  19.487 -0.1217  0.0260  0.2673
 2068DOPG   C4B46680   8.937   9.787  19.588 -0.0353  0.1414  0.3239
 2069DOPG   GL046681  21.253  19.501  22.156  0.0123 -0.0521  0.0828
 2069DOPG   PO446682  21.234  19.559  21.734 -0.0995 -0.0617  0.0779
 2069DOPG   GL146683  21.304  19.261  21.307  0.0342 -0.0024 -0.0361
 2069DOPG   GL246684  21.516  18.968  21.324 -0.2547  0.2602 -0.0313
 2069DOPG   C1A46685  21.201  19.228  20.938  0.1907  0.0976 -0.0017
 2069DOPG   D2A46686  21.048  19.660  20.779 -0.1855 -0.0085  0.1234
 2069DOPG   C3A46687  20.725  19.640  20.546  0.1690  0.0069  0.5869
 2069DOPG   C4A46688  20.532  19.466  20.101 -0.1176 -0.0618  0.0008
 2069DOPG   C1B46689  21.447  18.746  20.957 -0.2598 -0.0075  0.4005
 2069DOPG   D2B46690  21.338  18.882  20.516  0.3221 -0.1567 -0.2876
 2069DOPG   C3B46691  21.037  19.177  20.373  0.2114  0.1357 -0.0410
 2069DOPG   C4B46692  21.096  19.556  20.203  0.1393 -0.3424 -0.2632
 2070DOPG   GL046693  17.553  15.711  23.998  0.4205  0.2059 -0.1013
 2070DOPG   PO446694  17.326  15.250  23.998  0.1272  0.0187 -0.3209
 2070DOPG   GL146695  17.113  15.415  23.639 -0.1680 -0.3351  0.2045
 2070DOPG   GL246696  17.331  15.522  23.467 -0.2644  0.2664  0.1496
 2070DOPG   C1A46697  16.813  15.120  23.354  0.0372  0.3522 -0.1898
 2070DOPG   D2A46698  16.724  14.968  22.969 -0.1468  0.3834 -0.1723
 2070DOPG   C3A46699  16.403  14.689  22.959  0.0753 -0.3255  0.2299
 2070DOPG   C4A46700  16.421  14.294  22.771  0.1529  0.0486 -0.1051
 2070DOPG   C1B46701  16.977  15.544  23.141  0.3396  0.1384  0.0265
 2070DOPG   D2B46702  17.107  15.930  23.076 -0.3569  0.3965  0.3516
 2070DOPG   C3B46703  16.883  16.247  23.076  0.3482 -0.3670 -0.2093
 2070DOPG   C4B46704  16.837  16.672  22.877  0.0749 -0.0724  0.1250
 2071DOPG   GL046705  21.610  13.053  22.171 -0.3237  0.2181  0.0523
 2071DOPG   PO446706  21.308  13.271  21.884 -0.2437 -0.0927 -0.2124
 2071DOPG   GL146707  20.961  13.328  21.541  0.1914 -0.0191 -0.3173
 2071DOPG   GL246708  20.587  13.409  21.527 -0.1029  0.0598 -0.2360
 2071DOPG   C1A46709  20.875  13.744  21.358  0.0624  0.1620  0.3035
 2071DOPG   D2A46710  20.587  14.087  21.432 -0.0970 -0.0165 -0.2033
 2071DOPG   C3A46711  20.075  14.021  21.446  0.3469 -0.1641 -0.0713
 2071DOPG   C4A46712  19.717  13.849  21.263 -0.1394  0.1074 -0.0330
 2071DOPG   C1B46713  20.379  13.620  21.285 -0.0725  0.3335  0.2067
 2071DOPG   D2B46714  20.071  13.735  20.872 -0.1523  0.1123  0.1772
 2071DOPG   C3B46715  19.935  14.189  20.969 -0.0709 -0.1450 -0.1522
 2071DOPG   C4B46716  19.582  14.464  21.210 -0.1415  0.1403 -0.0462
 2072DOPG   GL046717   8.529  20.078  21.687 -0.0229 -0.3175  0.3197
 2072DOPG   PO446718   8.833  19.944  21.440  0.0899  0.0066 -0.0534
 2072DOPG   GL146719   9.096  20.180  21.091 -0.1119 -0.0529 -0.3335
 2072DOPG   GL246720   8.904  20.269  20.829 -0.0038 -0.0041  0.2181
 2072DOPG   C1A46721   9.526  20.409  21.060 -0.0073  0.2636  0.0636
 2072DOPG   D2A46722   9.896  20.461  20.770 -0.0591 -0.1021 -0.2286
 2072DOPG   C3A46723  10.269  20.252  20.674  0.0639  0.0229  0.1760
 2072DOPG   C4A46724  10.287  19.851  20.618 -0.4977 -0.0927 -0.2791
 2072DOPG   C1B46725   8.777  20.679  20.864  0.1448  0.2185 -0.0067
 2072DOPG   D2B46726   8.451  20.955  20.581 -0.0660  0.0801 -0.1012
 2072DOPG   C3B46727   8.229  20.719  20.197  0.0211 -0.3808  0.0007
 2072DOPG   C4B46728   7.915  20.622  19.929 -0.0408  0.0134 -0.1244
 2073DOPG   GL046729   6.690  23.669  20.367 -0.1041 -0.2464 -0.0443
 2073DOPG   PO446730   6.824  23.496  20.019  0.3109 -0.2208 -0.2780
 2073DOPG   GL146731   7.202  23.277  20.136 -0.1275 -0.1719  0.0207
 2073DOPG   GL246732   7.443  23.432  20.307 -0.0312 -0.3159  0.0249
 2073DOPG   C1A46733   7.179  22.910  20.181  0.0203 -0.3004  0.2252
 2073DOPG   D2A46734   7.441  22.615  20.229 -0.2953  0.2089  0.0854
 2073DOPG   C3A46735   7.494  22.233  19.934 -0.1988 -0.0055 -0.0855
 2073DOPG   C4A46736   7.495  21.743  19.808 -0.4217 -0.1354 -0.0681
 2073DOPG   C1B46737   7.762  23.083  20.235 -0.1912 -0.0795  0.1965
 2073DOPG   D2B46738   8.047  22.917  19.818 -0.3536 -0.1060 -0.0638
 2073DOPG   C3B46739   8.120  22.722  19.391  0.1505  0.0729  0.0374
 2073DOPG   C4B46740   8.450  22.442  19.139  0.0869 -0.0805  0.0809
 2074DOPG   GL046741  13.166  18.311  23.803  0.0884 -0.0283  0.2274
 2074DOPG   PO446742  13.188  17.979  23.657  0.0245 -0.0301  0.3278
 2074DOPG   GL146743  13.293  17.956  23.152  0.0696  0.2484 -0.1330
 2074DOPG   GL246744  13.667  17.839  23.036 -0.0801  0.1420 -0.1163
 2074DOPG   C1A46745  13.425  18.066  22.699 -0.1211 -0.0085 -0.1594
 2074DOPG   D2A46746  13.572  17.756  22.290  0.0050 -0.0206 -0.1609
 2074DOPG   C3A46747  13.858  17.429  22.306  0.0836 -0.0348 -0.1990
 2074DOPG   C4A46748  14.349  17.418  22.234  0.0776 -0.2186 -0.1891
 2074DOPG   C1B46749  13.480  17.594  22.753  0.0746  0.0372 -0.1638
 2074DOPG   D2B46750  13.342  17.303  22.398 -0.1968  0.2057 -0.0824
 2074DOPG   C3B46751  13.452  17.350  21.975  0.0351 -0.0198  0.0782
 2074DOPG   C4B46752  13.654  17.594  21.747 -0.0059 -0.0420  0.0875
 2075DOPG   GL046753  15.474  14.326  23.679 -0.1409 -0.0561 -0.1301
 2075DOPG   PO446754  15.667  14.519  23.969 -0.3354  0.0190  0.0795
 2075DOPG   GL146755  15.873  14.852  23.778 -0.3191 -0.1373  0.0570
 2075DOPG   GL246756  15.689  14.889  23.589  0.2586 -0.1973 -0.0422
 2075DOPG   C1A46757  16.077  15.096  23.402  0.0147  0.1689  0.3144
 2075DOPG   D2A46758  16.076  15.125  22.844 -0.2486 -0.3482 -0.3330
 2075DOPG   C3A46759  15.667  15.145  22.708  0.2434 -0.0084 -0.1216
 2075DOPG   C4A46760  15.379  14.830  22.526  0.0543 -0.1743  0.2996
 2075DOPG   C1B46761  15.596  15.141  23.190  0.2460 -0.0208 -0.2598
 2075DOPG   D2B46762  15.397  15.442  22.958 -0.2862 -0.0080 -0.2665
 2075DOPG   C3B46763  15.406  15.725  22.585  0.0542  0.0620 -0.0825
 2075DOPG   C4B46764  15.649  15.825  22.263  0.0977 -0.0720 -0.1349
 2076DOPG   GL046765  20.765  22.402  20.893  0.0070  0.1482 -0.1011
 2076DOPG   PO446766  20.657  22.841  21.022 -0.1221  0.0045  0.1118
 2076DOPG   GL146767  20.797  22.808  20.533  0.0100  0.4624 -0.0441
 2076DOPG   GL246768  20.912  23.070  20.550  0.3947  0.0297  0.1181
 2076DOPG   C1A46769  20.574  22.550  20.290  0.0729  0.1311  0.0631
 2076DOPG   D2A46770  20.419  22.414  19.950 -0.1356 -0.0152  0.2830
 2076DOPG   C3A46771  20.571  22.002  19.655  0.0314 -0.0468  0.0291
 2076DOPG   C4A46772  20.765  21.706  19.342  0.1016  0.1330  0.1030
 2076DOPG   C1B46773  21.179  22.758  20.218 -0.0383 -0.0335 -0.5072
 2076DOPG   D2B46774  21.286  22.511  19.909  0.0328  0.0586 -0.0572
 2076DOPG   C3B46775  21.000  22.327  20.054 -0.1428 -0.0763  0.0375
 2076DOPG   C4B46776  20.859  22.172  20.429  0.1084 -0.0486 -0.2123
 2077DOPG   GL046777  11.636  22.578  21.324 -0.2187 -0.0836 -0.1561
 2077DOPG   PO446778  11.433  22.576  21.006  0.2259 -0.1704  0.5010
 2077DOPG   GL146779  11.415  22.457  20.641 -0.0610 -0.1369  0.2387
 2077DOPG   GL246780  11.397  22.076  20.673 -0.0771  0.3481 -0.2765
 2077DOPG   C1A46781  11.129  22.314  20.370 -0.1698 -0.0031 -0.0855
 2077DOPG   D2A46782  10.948  22.078  20.168  0.1933 -0.3646 -0.1232
 2077DOPG   C3A46783  10.533  22.228  20.215  0.2887 -0.1953  0.3187
 2077DOPG   C4A46784  10.536  22.634  20.551 -0.2707 -0.2728 -0.1876
 2077DOPG   C1B46785  11.242  21.796  20.417  0.3687 -0.0784  0.3371
 2077DOPG   D2B46786  11.364  21.382  20.344  0.1189  0.1342  0.0732
 2077DOPG   C3B46787  11.388  21.149  20.534 -0.3293  0.0317 -0.0128
 2077DOPG   C4B46788  11.782  21.084  20.927  0.2414  0.3046 -0.0142
 2078DOPG   GL046789   8.421  24.769  17.514 -0.0803 -0.0975  0.0689
 2078DOPG   PO446790   8.767  24.644  17.842  0.3669  0.0844  0.1942
 2078DOPG   GL146791   9.075  24.417  17.744  0.0365  0.2014  0.1450
 2078DOPG   GL246792   9.341  24.272  17.880 -0.0062  0.2055  0.3023
 2078DOPG   C1A46793   9.190  24.132  17.430 -0.1472  0.2811 -0.0227
 2078DOPG   D2A46794   9.129  23.739  17.069 -0.1942  0.1258  0.1479
 2078DOPG   C3A46795   9.295  23.421  16.945  0.3144 -0.0025 -0.1009
 2078DOPG   C4A46796   9.388  23.203  16.536  0.1935  0.2562 -0.0983
 2078DOPG   C1B46797   9.526  23.919  17.964  0.0174  0.1271  0.0632
 2078DOPG   D2B46798   9.834  23.873  17.813  0.0192  0.0295 -0.1255
 2078DOPG   C3B46799  10.248  24.064  17.895  0.3502  0.4025  0.4641
 2078DOPG   C4B46800  10.497  24.334  18.078  0.1199 -0.1393 -0.1264
 2079DOPG   GL046801   8.856  12.257  22.326  0.3374  0.3451  0.2174
 2079DOPG   PO446802   9.331  12.419  22.292 -0.2179  0.2073  0.1465
 2079DOPG   GL146803   9.640  12.467  21.943 -0.1675 -0.0771  0.0703
 2079DOPG   GL246804   9.619  12.196  21.859 -0.1619  0.1712 -0.3397
 2079DOPG   C1A46805  10.081  12.427  21.716 -0.0095  0.1198 -0.0156
 2079DOPG   D2A46806  10.167  12.319  21.335 -0.0466 -0.1260 -0.2787
 2079DOPG   C3A46807  10.490  12.632  21.243  0.0929  0.2115  0.1293
 2079DOPG   C4A46808  10.925  12.634  21.038 -0.1302 -0.2698 -0.1021
 2079DOPG   C1B46809   9.601  12.353  21.454  0.0249  0.0667 -0.0459
 2079DOPG   D2B46810   9.606  12.438  21.037 -0.1263  0.3624  0.0721
 2079DOPG   C3B46811   9.678  12.613  20.555  0.0336  0.1810  0.3738
 2079DOPG   C4B46812   9.519  12.646  20.125  0.3201 -0.1509 -0.2133
 2080DOPG   GL046813  21.184  20.045  21.594 -0.0349  0.0670  0.2164
 2080DOPG   PO446814  21.019  20.444  21.498  0.0257 -0.2689 -0.0175
 2080DOPG   GL146815  20.612  20.446  21.510  0.0411  0.0414  0.0986
 2080DOPG   GL246816  20.585  20.778  21.593  0.3008  0.2887 -0.0028
 2080DOPG   C1A46817  20.425  20.191  21.112 -0.1113  0.1790  0.0397
 2080DOPG   D2A46818  20.548  20.108  20.725 -0.2336 -0.4725 -0.0741
 2080DOPG   C3A46819  20.423  19.934  20.277  0.3935  0.3075  0.1210
 2080DOPG   C4A46820  20.203  19.748  19.888  0.3153  0.1242  0.0609
 2080DOPG   C1B46821  20.647  20.706  21.119  0.0075  0.0806 -0.1200
 2080DOPG   D2B46822  20.340  20.706  20.765  0.2633  0.0361  0.0424
 2080DOPG   C3B46823  20.167  20.340  20.489  0.1150 -0.1719  0.2460
 2080DOPG   C4B46824  19.864  20.326  20.240 -0.1752  0.2453 -0.1750
 2081DOPG   GL046825   9.138  21.653  21.288 -0.1274  0.1381 -0.2038
 2081DOPG   PO446826   9.037  22.025  21.220 -0.1334  0.1044  0.3316
 2081DOPG   GL146827   8.704  21.752  21.188  0.2123 -0.0690 -0.0283
 2081DOPG   GL246828   8.618  21.640  21.446 -0.2366  0.1305  0.2143
 2081DOPG   C1A46829   8.213  21.659  21.151  0.2024  0.1950  0.1008
 2081DOPG   D2A46830   7.806  21.668  21.345 -0.1509 -0.2754 -0.0580
 2081DOPG   C3A46831   7.545  21.985  21.467  0.1670 -0.2330  0.0879
 2081DOPG   C4A46832   7.125  21.822  21.401  0.3850  0.1030 -0.1745
 2081DOPG   C1B46833   8.255  21.281  21.490  0.0425 -0.2819 -0.0450
 2081DOPG   D2B46834   7.916  21.309  21.743  0.0867 -0.0255 -0.0644
 2081DOPG   C3B46835   7.737  20.970  21.943 -0.1428 -0.3440  0.1447
 2081DOPG   C4B46836   7.549  20.654  21.807 -0.2264  0.0986 -0.0699
 2082DOPG   GL046837  11.796  17.122  23.556 -0.2649  0.0146  0.1281
 2082DOPG   PO446838  11.764  16.690  23.605  0.0817  0.2485  0.1531
 2082DOPG   GL146839  11.978  16.712  23.208 -0.1071  0.0873  0.1114
 2082DOPG   GL246840  12.078  16.989  23.135 -0.0024  0.0610  0.2569
 2082DOPG   C1A46841  12.045  16.765  22.702 -0.0184 -0.1846 -0.3235
 2082DOPG   D2A46842  11.951  16.718  22.325 -0.0260  0.1986  0.1730
 2082DOPG   C3A46843  11.946  16.916  21.891  0.3845 -0.0760 -0.1180
 2082DOPG   C4A46844  12.032  17.155  21.550 -0.0414 -0.3798 -0.1824
 2082DOPG   C1B46845  12.328  17.178  22.749 -0.0555 -0.3882  0.2016
 2082DOPG   D2B46846  12.342  17.075  22.274 -0.2733  0.3509  0.0847
 2082DOPG   C3B46847  12.609  16.727  22.019  0.3508 -0.1069  0.0284
 2082DOPG   C4B46848  12.696  16.544  21.650 -0.2425 -0.0093  0.0248
 2083DOPG   GL046849  10.272  20.513  21.977  0.1864 -0.0965  0.0462
 2083DOPG   PO446850  10.084  20.817  21.796 -0.2634 -0.0932 -0.3497
 2083DOPG   GL146851  10.306  20.840  21.385 -0.1787 -0.2031 -0.2685
 2083DOPG   GL246852  10.562  20.623  21.349  0.2230  0.0703  0.0059
 2083DOPG   C1A46853  10.321  20.839  20.929 -0.0148  0.1402 -0.0896
 2083DOPG   D2A46854  10.275  20.928  20.483  0.3272 -0.0780 -0.1034
 2083DOPG   C3A46855   9.999  20.815  20.204  0.3193 -0.1292 -0.0714
 2083DOPG   C4A46856   9.650  20.579  20.059  0.1649 -0.1157  0.1978
 2083DOPG   C1B46857  10.329  20.394  21.175 -0.0199 -0.0991 -0.0623
 2083DOPG   D2B46858  10.281  19.979  21.169  0.0958 -0.1100 -0.1936
 2083DOPG   C3B46859  10.600  19.736  20.960 -0.0067 -0.1834 -0.1559
 2083DOPG   C4B46860  10.805  19.484  20.945  0.2183  0.1114  0.1405
 2084DOPG   GL046861  23.899  23.785  18.331  0.4043  0.2308 -0.2810
 2084DOPG   PO446862  24.258  23.920  18.013 -0.1710  0.1667  0.1746
 2084DOPG   GL146863  24.150  23.426  17.914 -0.0490  0.0702 -0.2971
 2084DOPG   GL246864  24.009  23.424  17.591  0.2709 -0.1310  0.0961
 2084DOPG   C1A46865  23.927  22.963  17.736 -0.0503  0.0630  0.2539
 2084DOPG   D2A46866  23.821  22.559  17.630 -0.2364 -0.1146 -0.1455
 2084DOPG   C3A46867  23.556  22.473  17.294 -0.2163 -0.2555 -0.2211
 2084DOPG   C4A46868  23.601  22.738  16.888 -0.0299 -0.0465 -0.1686
 2084DOPG   C1B46869  23.581  23.378  17.789  0.1641  0.0846  0.0443
 2084DOPG   D2B46870  23.393  23.047  17.914 -0.1234 -0.0773 -0.0645
 2084DOPG   C3B46871  23.220  22.822  17.611  0.0680 -0.0892  0.2047
 2084DOPG   C4B46872  22.926  22.608  17.485 -0.1655  0.0116  0.0539
 2085DOPG   GL046873   9.418  15.001  22.348  0.1850 -0.0012 -0.1282
 2085DOPG   PO446874   9.404  15.384  22.574 -0.1036 -0.0284  0.0836
 2085DOPG   GL146875   9.747  15.459  22.198  0.2045 -0.1734 -0.1729
 2085DOPG   GL246876   9.578  15.798  22.089 -0.3183  0.1250 -0.2126
 2085DOPG   C1A46877   9.814  15.432  21.801 -0.1529 -0.0046  0.2248
 2085DOPG   D2A46878  10.274  15.456  21.529 -0.1494 -0.4354 -0.2269
 2085DOPG   C3A46879  10.639  15.697  21.483  0.0008 -0.0309 -0.0253
 2085DOPG   C4A46880  11.028  15.691  21.720 -0.0685 -0.1139  0.3685
 2085DOPG   C1B46881   9.956  15.889  21.968 -0.0818 -0.0119 -0.1999
 2085DOPG   D2B46882  10.213  15.901  21.694 -0.0599 -0.2462 -0.3091
 2085DOPG   C3B46883  10.023  15.784  21.251  0.2431  0.3389  0.0956
 2085DOPG   C4B46884   9.943  15.910  20.956 -0.0505  0.0313  0.0183
 2086DOPG   GL046885  14.102  10.477  22.223 -0.1930  0.0815  0.2459
 2086DOPG   PO446886  14.437  10.727  22.287  0.0288 -0.1506 -0.3123
 2086DOPG   GL146887  14.226  10.925  21.964 -0.0853 -0.0252 -0.2441
 2086DOPG   GL246888  13.861  11.166  21.997 -0.2164  0.2305  0.0923
 2086DOPG   C1A46889  14.218  11.075  21.591  0.2880 -0.0301 -0.1507
 2086DOPG   D2A46890  14.292  10.904  21.187  0.1643  0.3744  0.0474
 2086DOPG   C3A46891  14.088  10.852  20.916  0.0783  0.1629  0.0666
 2086DOPG   C4A46892  14.397  10.774  20.586 -0.4184  0.2591 -0.5798
 2086DOPG   C1B46893  13.900  11.485  21.697  0.1320 -0.0962  0.0047
 2086DOPG   D2B46894  14.092  11.781  21.398  0.0485 -0.1806 -0.2438
 2086DOPG   C3B46895  14.537  11.861  21.156  0.2984 -0.1293  0.1488
 2086DOPG   C4B46896  14.461  12.117  20.722 -0.2305  0.0390 -0.2865
 2087DOPG   GL046897  19.812  19.274  22.266 -0.1067  0.1712 -0.1950
 2087DOPG   PO446898  20.003  19.669  22.275 -0.0950  0.1725  0.0577
 2087DOPG   GL146899  19.942  19.515  21.854 -0.1149 -0.0869 -0.0263
 2087DOPG   GL246900  20.161  19.292  21.826  0.0464  0.2344  0.0095
 2087DOPG   C1A46901  19.746  19.053  21.736 -0.1372 -0.3254  0.1328
 2087DOPG   D2A46902  19.495  18.881  21.472  0.1960  0.0696 -0.4138
 2087DOPG   C3A46903  19.504  18.395  21.242  0.0196  0.1632 -0.1062
 2087DOPG   C4A46904  19.443  17.974  21.050  0.0957  0.1670 -0.4094
 2087DOPG   C1B46905  20.034  19.268  21.343 -0.1871  0.4961 -0.2073
 2087DOPG   D2B46906  19.949  19.456  20.948 -0.1747  0.0349  0.0007
 2087DOPG   C3B46907  19.681  19.352  20.618 -0.3563 -0.1722 -0.1580
 2087DOPG   C4B46908  19.300  19.148  20.633  0.2055  0.2692 -0.1569
 2088DOPG   GL046909  19.095  10.924  21.311 -0.2544  0.0337 -0.4333
 2088DOPG   PO446910  18.684  11.127  21.346  0.0096  0.0737 -0.1173
 2088DOPG   GL146911  18.673  11.505  21.263 -0.0904  0.2206 -0.0622
 2088DOPG   GL246912  18.704  11.682  20.972 -0.0532  0.4009  0.1863
 2088DOPG   C1A46913  18.419  11.875  21.366 -0.0570 -0.0183 -0.1852
 2088DOPG   D2A46914  18.463  12.260  21.446 -0.2801  0.2505  0.0640
 2088DOPG   C3A46915  18.244  12.554  21.310  0.3283  0.0586 -0.1186
 2088DOPG   C4A46916  17.790  12.567  21.379  0.2960 -0.0002 -0.1655
 2088DOPG   C1B46917  18.437  11.699  20.586  0.3029 -0.2989 -0.3899
 2088DOPG   D2B46918  18.201  11.984  20.320  0.1339 -0.0615  0.0003
 2088DOPG   C3B46919  17.860  11.737  20.105  0.0930 -0.0484  0.1096
 2088DOPG   C4B46920  17.830  11.350  19.860 -0.0567 -0.1633  0.0234
 2089DOPG   GL046921  18.760  24.311  17.947  0.0111  0.2689  0.1283
 2089DOPG   PO446922  18.656  24.284  18.383 -0.2103 -0.2346 -0.3582
 2089DOPG   GL146923  18.729  23.844  18.383  0.2153 -0.0681  0.2450
 2089DOPG   GL246924  18.925  23.758  18.736  0.0079 -0.0050 -0.2899
 2089DOPG   C1A46925  19.003  23.561  18.289  0.1520  0.0480  0.0948
 2089DOPG   D2A46926  19.041  23.093  18.251 -0.1243 -0.0054  0.0896
 2089DOPG   C3A46927  18.833  23.004  17.805  0.1618 -0.2532  0.1610
 2089DOPG   C4A46928  18.734  22.756  17.450 -0.0091  0.1097  0.1666
 2089DOPG   C1B46929  19.165  23.391  18.698 -0.1406  0.0713 -0.3149
 2089DOPG   D2B46930  19.074  23.026  18.733  0.0959  0.0413 -0.0774
 2089DOPG   C3B46931  18.992  22.637  18.489 -0.1515  0.1099 -0.0323
 2089DOPG   C4B46932  18.793  22.247  18.576 -0.3085 -0.2501 -0.2468
 2090DOPG   GL046933  19.081  17.563  23.727 -0.2303  0.3316 -0.0392
 2090DOPG   PO446934  18.719  17.600  23.582 -0.1478  0.0900  0.1006
 2090DOPG   GL146935  18.686  17.789  23.175  0.1321  0.0246 -0.1613
 2090DOPG   GL246936  18.851  18.099  22.963  0.0247  0.1454 -0.1146
 2090DOPG   C1A46937  18.439  17.657  22.792  0.0034  0.1378 -0.2155
 2090DOPG   D2A46938  18.427  17.814  22.295 -0.2550 -0.2685  0.1926
 2090DOPG   C3A46939  18.992  18.064  22.119 -0.0459  0.3577 -0.1674
 2090DOPG   C4A46940  19.244  18.335  22.369 -0.0474  0.1187 -0.3247
 2090DOPG   C1B46941  19.114  17.897  22.667  0.1364  0.4729 -0.2738
 2090DOPG   D2B46942  19.391  17.722  22.388 -0.0516  0.4522 -0.1883
 2090DOPG   C3B46943  19.487  18.077  22.022 -0.2377 -0.0195  0.2085
 2090DOPG   C4B46944  19.458  18.036  21.582  0.1225 -0.2438  0.0815
 2091DOPG   GL046945  18.853  10.256  20.846 -0.0315  0.0998  0.0392
 2091DOPG   PO446946  18.798  10.847  20.863 -0.0184  0.0466 -0.1288
 2091DOPG   GL146947  18.613  11.203  20.874 -0.1507  0.0985 -0.2045
 2091DOPG   GL246948  18.569  11.135  20.561 -0.0498  0.1676 -0.0587
 2091DOPG   C1A46949  18.226  11.376  20.981  0.0104 -0.0976  0.1169
 2091DOPG   D2A46950  17.934  11.706  21.164 -0.0907 -0.0071  0.0201
 2091DOPG   C3A46951  17.992  12.132  21.419 -0.1200 -0.0024 -0.1175
 2091DOPG   C4A46952  18.133  12.439  21.795 -0.1172 -0.1115 -0.1657
 2091DOPG   C1B46953  18.965  11.420  20.609  0.3590  0.3052  0.2782
 2091DOPG   D2B46954  19.374  11.611  20.569  0.0566  0.0125 -0.4038
 2091DOPG   C3B46955  19.182  11.912  20.809  0.0727 -0.0698  0.1949
 2091DOPG   C4B46956  18.849  12.191  20.612 -0.5066  0.3046 -0.0180
 2092DOPG   GL046957  11.269  11.241  22.829  0.1969  0.1630 -0.0145
 2092DOPG   PO446958  11.665  11.359  22.876  0.1009 -0.0911 -0.0161
 2092DOPG   GL146959  11.878  11.340  22.476 -0.4479 -0.1911  0.0675
 2092DOPG   GL246960  11.721  11.109  22.340 -0.0475 -0.0689 -0.0912
 2092DOPG   C1A46961  12.022  11.566  22.010 -0.1251 -0.1177 -0.1109
 2092DOPG   D2A46962  12.068  11.659  21.579 -0.3084 -0.1466  0.0864
 2092DOPG   C3A46963  11.747  11.875  21.207 -0.3213  0.0476  0.0128
 2092DOPG   C4A46964  11.286  11.801  20.971  0.3200  0.1938 -0.3993
 2092DOPG   C1B46965  11.596  11.125  21.880  0.2676  0.0854 -0.0250
 2092DOPG   D2B46966  11.612  11.524  21.563  0.3836  0.2331  0.0127
 2092DOPG   C3B46967  11.297  11.945  21.529 -0.0152 -0.1437 -0.0321
 2092DOPG   C4B46968  11.069  12.324  21.404 -0.0104  0.0967 -0.1988
 2093DOPG   GL046969   7.261  17.760  20.840 -0.0993 -0.1651 -0.2679
 2093DOPG   PO446970   6.970  17.815  20.459 -0.1965 -0.1159  0.1012
 2093DOPG   GL146971   7.290  18.006  20.242 -0.1983 -0.2288  0.2492
 2093DOPG   GL246972   7.125  18.089  19.926 -0.0926  0.2176 -0.1361
 2093DOPG   C1A46973   7.680  18.075  19.950 -0.0201 -0.4628  0.0971
 2093DOPG   D2A46974   8.038  17.868  19.889  0.0579  0.1741  0.1128
 2093DOPG   C3A46975   8.070  17.467  19.653 -0.2537  0.1569  0.0902
 2093DOPG   C4A46976   8.090  17.192  19.478  0.2084 -0.2148 -0.0124
 2093DOPG   C1B46977   6.967  18.466  19.692  0.1212 -0.0965  0.0532
 2093DOPG   D2B46978   6.975  18.954  19.656 -0.0890 -0.1020 -0.0018
 2093DOPG   C3B46979   6.938  19.141  19.301  0.1731  0.2108  0.0621
 2093DOPG   C4B46980   7.121  19.522  18.999 -0.1976  0.0425  0.0470
 2094DOPG   GL046981   6.063  15.947  19.566  0.0640  0.2193 -0.0469
 2094DOPG   PO446982   6.544  15.915  19.682 -0.0139 -0.0381  0.4197
 2094DOPG   GL146983   6.875  15.965  19.567  0.2128 -0.2186  0.2423
 2094DOPG   GL246984   6.901  15.949  19.275 -0.1318 -0.0750 -0.1169
 2094DOPG   C1A46985   7.349  16.007  19.439 -0.2388 -0.0126  0.4582
 2094DOPG   D2A46986   7.727  15.756  19.637  0.0771  0.4404  0.0970
 2094DOPG   C3A46987   7.640  15.294  19.787  0.0803 -0.0076 -0.0914
 2094DOPG   C4A46988   7.864  15.033  19.525  0.2252 -0.0543 -0.0152
 2094DOPG   C1B46989   6.752  16.223  18.946 -0.2455 -0.1112 -0.1908
 2094DOPG   D2B46990   6.501  16.119  18.449 -0.0661 -0.0381  0.1221
 2094DOPG   C3B46991   6.411  16.320  18.016  0.1202 -0.2473 -0.1725
 2094DOPG   C4B46992   6.092  16.499  17.944  0.3570 -0.0930  0.1031
 2095DOPG   GL046993  16.497  14.132  23.692 -0.1050  0.0836 -0.2827
 2095DOPG   PO446994  16.216  14.485  23.846 -0.0022  0.2717 -0.0766
 2095DOPG   GL146995  16.112  14.519  23.424 -0.1199  0.0068 -0.2899
 2095DOPG   GL246996  15.877  14.263  23.419  0.1871 -0.1296  0.2052
 2095DOPG   C1A46997  15.859  14.720  23.064  0.0634  0.3894  0.0148
 2095DOPG   D2A46998  15.413  14.700  23.019  0.0615  0.1616  0.0611
 2095DOPG   C3A46999  15.110  15.031  23.036  0.1414  0.1736  0.3584
 2095DOPG   C4A47000  14.826  15.381  23.155  0.1604 -0.1014  0.2967
 2095DOPG   C1B47001  16.006  14.224  22.992  0.1415  0.1445 -0.0857
 2095DOPG   D2B47002  15.976  14.448  22.660  0.1903 -0.0194  0.0098
 2095DOPG   C3B47003  15.918  14.794  22.424 -0.4347  0.2278 -0.1100
 2095DOPG   C4B47004  15.708  15.106  22.206 -0.3956 -0.0890  0.1482
 2096DOPG   GL047005  18.900  24.138  19.068 -0.0658 -0.2702 -0.0467
 2096DOPG   PO447006  19.288  23.995  18.908  0.1463 -0.1110 -0.3466
 2096DOPG   GL147007  19.458  23.802  18.559 -0.2144 -0.1471 -0.0589
 2096DOPG   GL247008  19.560  23.775  18.311 -0.0003  0.2976 -0.1141
 2096DOPG   C1A47009  19.684  23.446  18.793  0.0255  0.1402  0.2972
 2096DOPG   D2A47010  19.939  23.084  18.829  0.0237 -0.0039  0.0569
 2096DOPG   C3A47011  20.113  22.842  18.462 -0.2519 -0.0852 -0.2173
 2096DOPG   C4A47012  19.872  22.622  18.166 -0.1534 -0.2995  0.2702
 2096DOPG   C1B47013  19.595  23.334  18.345 -0.3124  0.1089  0.1470
 2096DOPG   D2B47014  19.577  22.899  18.506  0.2290 -0.1751 -0.0420
 2096DOPG   C3B47015  19.815  22.517  18.678  0.0960 -0.0890  0.0881
 2096DOPG   C4B47016  19.965  22.251  18.486  0.1797 -0.0409  0.1453
 2097DOPG   GL047017  11.843   6.643  19.942  0.1295 -0.1541 -0.0271
 2097DOPG   PO447018  12.029   6.998  19.769 -0.0543  0.2563  0.0573
 2097DOPG   GL147019  12.173   7.323  19.512 -0.0149  0.1655  0.1307
 2097DOPG   GL247020  12.327   7.477  19.657 -0.1037  0.0849 -0.0773
 2097DOPG   C1A47021  12.107   7.718  19.240  0.0218 -0.1645 -0.1366
 2097DOPG   D2A47022  12.189   7.787  18.753 -0.1850 -0.0399 -0.0492
 2097DOPG   C3A47023  11.917   7.987  18.445 -0.0117  0.1140  0.0085
 2097DOPG   C4A47024  11.710   8.165  18.115 -0.1012 -0.0783 -0.0831
 2097DOPG   C1B47025  11.980   7.719  19.799 -0.1141  0.0092 -0.0491
 2097DOPG   D2B47026  11.572   7.962  19.686  0.0506 -0.1381 -0.0119
 2097DOPG   C3B47027  11.662   8.258  19.359  0.0153 -0.2908 -0.3389
 2097DOPG   C4B47028  11.787   8.513  18.867  0.1037 -0.3325 -0.0976
 2098DOPG   GL047029   5.280  15.534  18.504  0.1726  0.2799 -0.2476
 2098DOPG   PO447030   5.707  15.702  18.462 -0.0364  0.3244  0.1351
 2098DOPG   GL147031   5.749  15.841  18.140 -0.0289 -0.1389  0.3891
 2098DOPG   GL247032   6.092  15.583  18.146  0.0051 -0.0808 -0.0045
 2098DOPG   C1A47033   6.042  15.832  17.735  0.0567 -0.2702 -0.0232
 2098DOPG   D2A47034   5.931  16.025  17.301 -0.0453 -0.1331 -0.0095
 2098DOPG   C3A47035   6.024  16.076  16.858 -0.0891 -0.1208 -0.0830
 2098DOPG   C4A47036   6.212  15.838  16.566 -0.0025 -0.0237  0.0693
 2098DOPG   C1B47037   6.552  15.801  18.035 -0.2903 -0.2599 -0.3899
 2098DOPG   D2B47038   6.688  16.018  17.691 -0.1303  0.1412  0.1213
 2098DOPG   C3B47039   6.308  16.235  17.528  0.3200 -0.4677 -0.1798
 2098DOPG   C4B47040   5.904  16.522  17.434  0.1278 -0.1412  0.1951
 2099DOPG   GL047041   7.498  12.508  21.902 -0.2042 -0.1520 -0.3858
 2099DOPG   PO447042   7.581  12.191  21.694 -0.0652  0.1265  0.1705
 2099DOPG   GL147043   7.903  12.092  21.304 -0.2385 -0.1772 -0.0658
 2099DOPG   GL247044   7.631  12.077  21.127  0.0051  0.2434  0.0055
 2099DOPG   C1A47045   8.274  12.219  21.075  0.1576 -0.1494 -0.0606
 2099DOPG   D2A47046   8.555  12.005  20.859  0.2492  0.0176  0.1477
 2099DOPG   C3A47047   8.855  12.163  20.733 -0.2079  0.2495 -0.1765
 2099DOPG   C4A47048   9.228  12.438  20.698 -0.0346  0.0063 -0.0263
 2099DOPG   C1B47049   7.820  12.300  20.813  0.1113 -0.0160 -0.0347
 2099DOPG   D2B47050   8.225  12.497  20.603  0.1675  0.0935 -0.2071
 2099DOPG   C3B47051   8.181  12.912  20.723  0.0844 -0.2193  0.1576
 2099DOPG   C4B47052   7.964  13.253  21.029 -0.0584 -0.0723  0.1856
 2100DOPG   GL047053  22.924  11.687  18.576 -0.1007  0.1000  0.2374
 2100DOPG   PO447054  22.598  11.751  18.167  0.0104 -0.1517  0.2090
 2100DOPG   GL147055  22.265  12.051  18.080 -0.0176 -0.1750  0.0469
 2100DOPG   GL247056  21.851  11.996  17.960  0.1820 -0.1574 -0.1970
 2100DOPG   C1A47057  21.937  12.037  18.523 -0.3170  0.1297 -0.0180
 2100DOPG   D2A47058  21.753  12.380  18.646  0.0502  0.1106  0.1131
 2100DOPG   C3A47059  21.572  12.709  18.499 -0.0674 -0.1040 -0.0811
 2100DOPG   C4A47060  21.116  12.889  18.559 -0.3321 -0.1417 -0.0274
 2100DOPG   C1B47061  21.589  12.297  17.816  0.0691  0.0371  0.0916
 2100DOPG   D2B47062  21.456  12.745  17.761  0.1979 -0.4822  0.0399
 2100DOPG   C3B47063  21.152  13.118  17.781 -0.1793 -0.1922  0.3465
 2100DOPG   C4B47064  20.719  13.170  17.591 -0.0929 -0.0235 -0.1486
 2101DOPG   GL047065   8.482  16.486  22.361 -0.4085  0.0225 -0.2241
 2101DOPG   PO447066   8.327  16.353  21.993  0.1280 -0.1154 -0.3017
 2101DOPG   GL147067   8.479  16.322  21.558  0.1017  0.0695 -0.2179
 2101DOPG   GL247068   8.504  16.700  21.556 -0.1879 -0.0002  0.3965
 2101DOPG   C1A47069   8.781  16.138  21.225 -0.3358 -0.0288  0.0211
 2101DOPG   D2A47070   9.053  16.032  20.747 -0.3227  0.0356  0.2762
 2101DOPG   C3A47071   9.257  16.440  20.556 -0.0566  0.3034 -0.1363
 2101DOPG   C4A47072   9.239  16.876  20.708  0.2996 -0.1877  0.1129
 2101DOPG   C1B47073   8.554  16.895  21.170  0.2923  0.2081 -0.1628
 2101DOPG   D2B47074   8.418  16.913  20.681 -0.2115 -0.0586  0.1796
 2101DOPG   C3B47075   8.445  17.166  20.294 -0.0508  0.0627 -0.1399
 2101DOPG   C4B47076   8.436  17.556  20.131 -0.0234  0.0101 -0.1235
 2102DOPG   GL047077  12.665  16.011  24.112  0.2083  0.0186 -0.0744
 2102DOPG   PO447078  12.886  16.092  23.796  0.0875 -0.1737 -0.1356
 2102DOPG   GL147079  12.722  16.182  23.294 -0.2250  0.1875  0.1790
 2102DOPG   GL247080  12.704  15.831  23.183  0.1651 -0.1916 -0.0880
 2102DOPG   C1A47081  12.983  16.479  22.999 -0.1721  0.0152 -0.0527
 2102DOPG   D2A47082  13.092  16.916  23.174  0.1329 -0.2501  0.3592
 2102DOPG   C3A47083  12.897  17.229  22.932 -0.0066  0.3572 -0.1842
 2102DOPG   C4A47084  12.901  17.516  22.595 -0.0460  0.1964 -0.0108
 2102DOPG   C1B47085  12.905  15.514  22.876 -0.2297  0.0554  0.1560
 2102DOPG   D2B47086  13.331  15.339  22.665  0.0195 -0.0654  0.1180
 2102DOPG   C3B47087  13.661  15.591  22.518  0.1403 -0.0443 -0.0431
 2102DOPG   C4B47088  13.967  15.728  22.175 -0.2646  0.0277  0.3975
 2103DOPG   GL047089  17.399  24.374  19.531 -0.0317 -0.1127 -0.2320
 2103DOPG   PO447090  16.962  24.419  19.571 -0.4076  0.1371  0.0671
 2103DOPG   GL147091  16.986  24.023  19.335  0.0717 -0.2325 -0.1086
 2103DOPG   GL247092  16.674  23.710  19.332  0.0860 -0.2031  0.0308
 2103DOPG   C1A47093  17.262  23.593  19.212 -0.0647  0.3636  0.1857
 2103DOPG   D2A47094  17.301  23.362  18.905  0.1094 -0.1502 -0.1811
 2103DOPG   C3A47095  16.982  23.027  18.866  0.0788  0.1783  0.1357
 2103DOPG   C4A47096  16.704  22.728  19.133 -0.0888  0.1000 -0.0010
 2103DOPG   C1B47097  16.710  23.365  19.185 -0.4299 -0.0084  0.1091
 2103DOPG   D2B47098  17.045  23.115  19.416 -0.1462 -0.1497 -0.0273
 2103DOPG   C3B47099  16.896  22.722  19.641  0.0056  0.1824 -0.1785
 2103DOPG   C4B47100  17.165  22.470  19.787  0.1376 -0.2026  0.4634
 2104DOPG   GL047101  23.180  22.984  19.670  0.0611 -0.2337  0.1739
 2104DOPG   PO447102  22.953  22.741  19.473 -0.0704 -0.3560 -0.2525
 2104DOPG   GL147103  22.523  22.629  19.277 -0.0704 -0.0555 -0.0898
 2104DOPG   GL247104  22.520  22.669  18.926 -0.1834 -0.5037  0.1010
 2104DOPG   C1A47105  22.105  22.320  19.261 -0.1907  0.1434 -0.1324
 2104DOPG   D2A47106  21.843  22.328  19.554 -0.0251 -0.0769  0.1963
 2104DOPG   C3A47107  21.353  22.161  19.553 -0.0699 -0.0170  0.1062
 2104DOPG   C4A47108  21.034  21.927  19.771  0.0929  0.0140 -0.1252
 2104DOPG   C1B47109  22.770  22.347  18.880  0.3037 -0.0231 -0.3416
 2104DOPG   D2B47110  22.911  22.067  18.779 -0.0738 -0.2863 -0.1499
 2104DOPG   C3B47111  22.925  22.004  18.321 -0.0059  0.1799  0.0786
 2104DOPG   C4B47112  23.066  21.801  17.943  0.1029 -0.0576  0.1874
 2105DOPG   GL047113  22.318  12.607  21.715 -0.1692 -0.3057 -0.3415
 2105DOPG   PO447114  22.367  12.934  21.503  0.0533 -0.0015  0.3801
 2105DOPG   GL147115  22.168  13.237  21.230  0.6619  0.0253  0.4419
 2105DOPG   GL247116  22.444  13.423  21.161 -0.2974 -0.4730  0.0428
 2105DOPG   C1A47117  22.047  13.132  20.801 -0.1092  0.2254 -0.1523
 2105DOPG   D2A47118  22.290  12.812  20.574 -0.0520  0.1035  0.2050
 2105DOPG   C3A47119  21.950  12.830  20.292 -0.0672 -0.0722  0.0397
 2105DOPG   C4A47120  21.808  12.905  19.876 -0.1363 -0.4168 -0.2872
 2105DOPG   C1B47121  22.821  13.696  21.025 -0.0803 -0.1522 -0.0379
 2105DOPG   D2B47122  23.240  13.860  20.937 -0.1759 -0.2551 -0.2138
 2105DOPG   C3B47123  23.437  14.160  20.746  0.1124 -0.0483 -0.0443
 2105DOPG   C4B47124  23.263  14.422  20.471 -0.0983 -0.4041 -0.0813
 2106DOPG   GL047125   6.577  11.588  19.360  0.0630  0.3218 -0.0942
 2106DOPG   PO447126   6.566  11.989  19.574 -0.3527 -0.1382 -0.0821
 2106DOPG   GL147127   6.873  12.100  19.284 -0.4650  0.1970 -0.1680
 2106DOPG   GL247128   6.744  12.000  19.023  0.0626  0.1953 -0.2702
 2106DOPG   C1A47129   7.296  12.069  19.012  0.1986  0.0761 -0.0517
 2106DOPG   D2A47130   7.684  12.051  19.113 -0.1676 -0.0303  0.0291
 2106DOPG   C3A47131   7.797  12.020  19.491 -0.0382 -0.0820  0.0447
 2106DOPG   C4A47132   7.725  11.648  19.682 -0.3136  0.0190  0.1766
 2106DOPG   C1B47133   6.853  11.690  18.934  0.0406 -0.0415 -0.0725
 2106DOPG   D2B47134   6.945  11.273  19.064 -0.4034  0.3427  0.1948
 2106DOPG   C3B47135   7.223  11.016  18.918 -0.0762 -0.0862 -0.0973
 2106DOPG   C4B47136   7.676  10.858  18.855 -0.2848  0.0036  0.2148
 2107DOPG   GL047137  13.063  11.294  22.815 -0.1509  0.2686  0.1879
 2107DOPG   PO447138  12.823  11.432  23.068 -0.0888 -0.0650  0.2714
 2107DOPG   GL147139  12.787  11.721  22.686 -0.0093  0.2827  0.0111
 2107DOPG   GL247140  13.136  11.820  22.592 -0.0359 -0.1627 -0.1615
 2107DOPG   C1A47141  12.754  11.868  22.276 -0.0361  0.3138  0.2086
 2107DOPG   D2A47142  13.056  11.768  21.914 -0.1069  0.0354 -0.0667
 2107DOPG   C3A47143  13.150  12.050  21.477  0.0008  0.1650  0.0637
 2107DOPG   C4A47144  13.487  12.139  21.137 -0.1133  0.5340 -0.0500
 2107DOPG   C1B47145  12.992  11.442  22.310 -0.5010  0.0979 -0.1461
 2107DOPG   D2B47146  13.010  11.171  22.048  0.0783 -0.2513 -0.0855
 2107DOPG   C3B47147  13.349  10.969  21.797  0.1637 -0.2256 -0.2285
 2107DOPG   C4B47148  13.440  10.592  21.514  0.2233  0.1417  0.1522
 2108DOPG   GL047149   8.132   8.306  17.958  0.0059 -0.2390 -0.2216
 2108DOPG   PO447150   8.407   8.219  18.196 -0.0315 -0.2322 -0.0560
 2108DOPG   GL147151   8.651   8.568  18.328 -0.1463 -0.1957 -0.2261
 2108DOPG   GL247152   8.852   8.431  18.040 -0.0146 -0.3299  0.0234
 2108DOPG   C1A47153   8.943   8.905  18.356  0.2792 -0.0774  0.0248
 2108DOPG   D2A47154   9.287   9.207  18.151  0.4493  0.2885  0.2976
 2108DOPG   C3A47155   9.595   9.233  18.424 -0.3553  0.0255 -0.1495
 2108DOPG   C4A47156   9.810   9.390  18.768  0.0246  0.0665  0.0886
 2108DOPG   C1B47157   9.111   8.632  17.859 -0.1671  0.0511 -0.6699
 2108DOPG   D2B47158   9.126   8.976  17.727 -0.0402  0.1819 -0.0895
 2108DOPG   C3B47159   9.148   9.093  17.295  0.0849  0.1057 -0.1236
 2108DOPG   C4B47160   9.259   9.041  16.879 -0.3608  0.3794  0.1623
 2109DOPG   GL047161   8.320  10.946  21.448  0.1934  0.0970 -0.1705
 2109DOPG   PO447162   8.706  10.926  21.691  0.1805  0.0120 -0.2532
 2109DOPG   GL147163   9.020  11.254  21.430  0.1987  0.0242 -0.0522
 2109DOPG   GL247164   8.816  11.140  21.233 -0.0454  0.0182 -0.0770
 2109DOPG   C1A47165   9.228  11.479  21.169  0.2587  0.1398 -0.2155
 2109DOPG   D2A47166   9.461  11.721  21.410  0.0917  0.2178 -0.2127
 2109DOPG   C3A47167   9.801  11.895  21.325  0.3976 -0.1511  0.0888
 2109DOPG   C4A47168  10.286  11.882  21.513  0.0947  0.1006 -0.1757
 2109DOPG   C1B47169   8.746  11.458  20.929 -0.0451 -0.0081 -0.0105
 2109DOPG   D2B47170   9.089  11.607  20.678 -0.2164  0.1926  0.1598
 2109DOPG   C3B47171   9.062  11.991  20.301  0.0287 -0.2285 -0.1137
 2109DOPG   C4B47172   9.441  12.179  20.241 -0.0669 -0.0050 -0.0714
 2110DOPG   GL047173  10.152  22.550  20.981  0.0066  0.3776 -0.0582
 2110DOPG   PO447174   9.697  22.448  20.999  0.0781  0.0058  0.0614
 2110DOPG   GL147175   9.585  22.376  20.522  0.1591 -0.1398 -0.0636
 2110DOPG   GL247176   9.845  22.252  20.296  0.3380  0.1834  0.0525
 2110DOPG   C1A47177   9.342  22.114  20.266 -0.2746 -0.2233  0.1166
 2110DOPG   D2A47178   9.112  21.792  20.049  0.1002  0.1919  0.0734
 2110DOPG   C3A47179   8.663  21.909  19.918 -0.0173  0.0453 -0.0556
 2110DOPG   C4A47180   8.295  21.665  19.806  0.3940 -0.1856 -0.0098
 2110DOPG   C1B47181  10.104  22.182  19.948  0.1475  0.0102  0.2800
 2110DOPG   D2B47182  10.145  22.080  19.463 -0.1229  0.1261  0.1632
 2110DOPG   C3B47183  10.564  22.112  19.283 -0.0363 -0.1331 -0.1965
 2110DOPG   C4B47184  10.953  22.175  19.123 -0.1680  0.1319  0.0759
 2111DOPG   GL047185  10.707  18.149  22.512 -0.0012 -0.1701  0.0392
 2111DOPG   PO447186  10.570  18.581  22.635  0.2312  0.1196  0.0573
 2111DOPG   GL147187  11.020  18.648  22.397  0.1291 -0.1163  0.0255
 2111DOPG   GL247188  10.901  18.400  22.127 -0.3666 -0.0289  0.0725
 2111DOPG   C1A47189  11.328  18.731  22.142 -0.0815  0.2385  0.0985
 2111DOPG   D2A47190  11.624  18.662  21.704  0.0837  0.2449  0.0136
 2111DOPG   C3A47191  11.676  18.339  21.490 -0.1534  0.4110 -0.0930
 2111DOPG   C4A47192  11.399  18.110  21.251  0.2737 -0.0161 -0.1845
 2111DOPG   C1B47193  10.823  18.148  21.851  0.1012 -0.2020  0.0098
 2111DOPG   D2B47194  11.178  17.872  21.626  0.0701  0.0302  0.1913
 2111DOPG   C3B47195  11.619  17.829  21.634 -0.1227  0.1292 -0.1696
 2111DOPG   C4B47196  11.987  17.675  21.580 -0.1339  0.2830 -0.0866
 2112DOPG   GL047197   8.453  19.188  21.619 -0.0529 -0.0431  0.0112
 2112DOPG   PO447198   8.868  19.226  21.546  0.0652  0.1863 -0.0702
 2112DOPG   GL147199   8.902  19.232  21.048 -0.1053  0.0564 -0.4198
 2112DOPG   GL247200   8.989  19.638  21.073 -0.0844  0.4626  0.0693
 2112DOPG   C1A47201   8.756  19.385  20.611  0.0504  0.0870 -0.2170
 2112DOPG   D2A47202   8.965  19.553  20.200  0.1635  0.1179  0.1183
 2112DOPG   C3A47203   8.685  19.984  20.128  0.1686 -0.0970  0.0744
 2112DOPG   C4A47204   8.363  20.243  20.070  0.2534 -0.2818  0.0445
 2112DOPG   C1B47205   9.286  19.630  20.694  0.2747 -0.3231  0.2032
 2112DOPG   D2B47206   9.456  19.749  20.301  0.0586  0.3303 -0.0579
 2112DOPG   C3B47207   9.906  19.704  20.199  0.0653  0.0525 -0.1038
 2112DOPG   C4B47208  10.354  19.613  20.186  0.1500  0.0668 -0.0442
 2113DOPG   GL047209  10.164  14.274  22.500  0.2142 -0.1163 -0.0771
 2113DOPG   PO447210  10.103  13.839  22.689 -0.1938  0.1224  0.0938
 2113DOPG   GL147211  10.425  13.798  22.358  0.3549 -0.1285 -0.0734
 2113DOPG   GL247212  10.612  13.551  22.297  0.3741 -0.2761 -0.0050
 2113DOPG   C1A47213  10.735  14.037  22.026 -0.1797  0.2146 -0.1724
 2113DOPG   D2A47214  11.086  14.129  21.835 -0.0155 -0.4362 -0.1340
 2113DOPG   C3A47215  11.136  14.089  21.498  0.1150  0.0731 -0.0954
 2113DOPG   C4A47216  11.077  13.898  21.166 -0.0855  0.3139 -0.0878
 2113DOPG   C1B47217  10.958  13.576  22.179 -0.0197 -0.0908  0.1242
 2113DOPG   D2B47218  11.137  13.616  21.830  0.2329 -0.0498 -0.0383
 2113DOPG   C3B47219  11.035  13.422  21.427  0.2611 -0.2006 -0.0283
 2113DOPG   C4B47220  10.941  13.447  21.025 -0.0581  0.3084  0.0198
 2114DOPG   GL047221  14.913  11.715  22.857  0.4762  0.2963  0.1251
 2114DOPG   PO447222  15.353  11.856  22.692 -0.4059  0.1374 -0.3014
 2114DOPG   GL147223  15.401  11.952  22.269 -0.2551 -0.0830 -0.1841
 2114DOPG   GL247224  15.522  11.732  22.083 -0.1756 -0.3444  0.1259
 2114DOPG   C1A47225  15.206  11.960  21.759 -0.2609 -0.3474 -0.0485
 2114DOPG   D2A47226  15.183  11.891  21.357 -0.3126  0.0402 -0.2410
 2114DOPG   C3A47227  15.096  12.179  21.019 -0.0703  0.0098 -0.0375
 2114DOPG   C4A47228  14.984  12.169  20.631 -0.0435  0.1016  0.0595
 2114DOPG   C1B47229  15.711  12.150  21.840  0.3309  0.0544 -0.0957
 2114DOPG   D2B47230  16.015  12.321  21.556 -0.0096 -0.1654  0.0059
 2114DOPG   C3B47231  16.133  12.696  21.545  0.0441  0.0544  0.2914
 2114DOPG   C4B47232  16.127  12.994  21.225  0.2541 -0.0516  0.0666
 2115DOPG   GL047233   9.159  20.287  21.633 -0.0622  0.1818  0.0560
 2115DOPG   PO447234   9.440  20.678  21.614 -0.4451 -0.1894 -0.2867
 2115DOPG   GL147235   9.810  21.008  21.450 -0.0579  0.2586  0.1901
 2115DOPG   GL247236   9.737  20.942  21.156 -0.0184 -0.1951  0.0372
 2115DOPG   C1A47237  10.137  21.298  21.198  0.0689 -0.1982 -0.0043
 2115DOPG   D2A47238  10.128  21.316  20.839 -0.1825 -0.0027  0.1852
 2115DOPG   C3A47239  10.568  21.334  20.658 -0.2808  0.1550 -0.2052
 2115DOPG   C4A47240  10.929  21.388  20.539  0.1245  0.0388 -0.0243
 2115DOPG   C1B47241   9.852  20.970  20.732  0.1295 -0.1574 -0.1408
 2115DOPG   D2B47242   9.733  21.184  20.552  0.1720  0.4206  0.0790
 2115DOPG   C3B47243   9.489  21.053  20.327  0.1087  0.0476 -0.1377
 2115DOPG   C4B47244   9.321  20.937  19.929 -0.0092 -0.2100 -0.0745
 2116DOPG   GL047245   8.300  15.340  21.807 -0.0571 -0.3485 -0.0888
 2116DOPG   PO447246   8.596  15.056  21.610 -0.2685  0.0564  0.2132
 2116DOPG   GL147247   8.990  14.894  21.588  0.0565 -0.1553 -0.2734
 2116DOPG   GL247248   8.932  14.523  21.431 -0.0054  0.0858 -0.1538
 2116DOPG   C1A47249   9.459  14.950  21.650 -0.1744 -0.1239  0.0506
 2116DOPG   D2A47250   9.804  14.935  21.989 -0.3763  0.0312  0.2897
 2116DOPG   C3A47251  10.143  14.550  21.932  0.1427  0.0487  0.0079
 2116DOPG   C4A47252  10.211  14.120  22.020 -0.1947 -0.2237 -0.1084
 2116DOPG   C1B47253   9.246  14.517  21.067 -0.1653 -0.1099  0.2087
 2116DOPG   D2B47254   9.492  14.883  21.021 -0.3398  0.2374 -0.4641
 2116DOPG   C3B47255   9.406  15.199  20.801 -0.1705 -0.3014 -0.5643
 2116DOPG   C4B47256   9.084  15.480  20.677  0.2119 -0.1194  0.1618
 2117DOPG   GL047257  17.170   8.928  19.539 -0.1104 -0.6627  0.3516
 2117DOPG   PO447258  17.612   8.993  19.421 -0.1757 -0.2364 -0.2973
 2117DOPG   GL147259  17.362   9.408  19.353  0.1187  0.2076 -0.3995
 2117DOPG   GL247260  17.437   9.593  19.244 -0.1073 -0.1876  0.0552
 2117DOPG   C1A47261  16.956   9.509  19.166 -0.0560  0.1949 -0.2979
 2117DOPG   D2A47262  16.760   9.684  18.791  0.1703  0.1512  0.2326
 2117DOPG   C3A47263  16.403   9.910  18.786  0.1923  0.1113  0.1929
 2117DOPG   C4A47264  16.026  10.053  18.695 -0.0644  0.0013 -0.0796
 2117DOPG   C1B47265  17.250   9.850  18.957 -0.1011  0.1065 -0.2356
 2117DOPG   D2B47266  17.471  10.157  18.825 -0.3192  0.0458 -0.1423
 2117DOPG   C3B47267  17.279  10.343  18.388 -0.1695  0.0474  0.0284
 2117DOPG   C4B47268  17.441  10.628  18.146 -0.1028 -0.0429  0.0093
 2118DOPG   GL047269  23.351  23.483  15.481  0.2708  0.0683 -0.2807
 2118DOPG   PO447270  22.972  23.218  15.234  0.0074 -0.0597  0.1456
 2118DOPG   GL147271  22.996  22.848  15.418  0.0202  0.0011  0.1299
 2118DOPG   GL247272  23.012  22.915  15.705 -0.0192  0.1457  0.3032
 2118DOPG   C1A47273  22.869  22.410  15.521  0.1425 -0.3411 -0.3121
 2118DOPG   D2A47274  23.016  21.971  15.751 -0.0647  0.0449 -0.2988
 2118DOPG   C3A47275  23.453  21.867  15.658  0.0214 -0.0897  0.0781
 2118DOPG   C4A47276  23.805  21.921  15.453  0.1535  0.0956 -0.0862
 2118DOPG   C1B47277  23.210  22.566  15.929 -0.1920 -0.1935  0.0582
 2118DOPG   D2B47278  22.994  22.309  16.137 -0.2061 -0.0298 -0.1798
 2118DOPG   C3B47279  22.741  22.193  16.525 -0.0021 -0.0723  0.5355
 2118DOPG   C4B47280  22.670  22.244  16.875 -0.4669  0.3073 -0.3313
 2119DOPG   GL047281  24.575  23.046  18.028 -0.0843 -0.0118 -0.1536
 2119DOPG   PO447282  24.956  22.995  18.080 -0.1843  0.3209 -0.2360
 2119DOPG   GL147283  24.794  22.633  17.802  0.1705  0.1728 -0.0359
 2119DOPG   GL247284  24.787  22.573  18.132  0.0122 -0.0568  0.2799
 2119DOPG   C1A47285  24.388  22.559  17.594  0.0388 -0.0624  0.2980
 2119DOPG   D2A47286  24.237  22.233  17.523  0.0513 -0.2017  0.2749
 2119DOPG   C3A47287  24.454  21.901  17.546  0.2979 -0.2854 -0.2860
 2119DOPG   C4A47288  24.778  21.718  17.650 -0.2034  0.0330 -0.1787
 2119DOPG   C1B47289  25.047  22.208  18.394 -0.1210 -0.0982 -0.0634
 2119DOPG   D2B47290  25.406  21.932  18.530 -0.1071 -0.0966  0.0487
 2119DOPG   C3B47291  25.298  21.670  18.901  0.1214 -0.0314 -0.2704
 2119DOPG   C4B47292  25.106  21.454  19.263  0.0114 -0.1929 -0.3756
 2120DOPG   GL047293  13.185  16.510  23.486  0.0896 -0.0857  0.0932
 2120DOPG   PO447294  13.391  16.165  23.850 -0.0078 -0.1105  0.1747
 2120DOPG   GL147295  13.675  16.220  23.511  0.1102  0.1347 -0.0632
 2120DOPG   GL247296  13.480  16.062  23.241  0.1247 -0.0631  0.2406
 2120DOPG   C1A47297  13.934  16.057  23.135 -0.0399 -0.0259 -0.1268
 2120DOPG   D2A47298  13.929  15.960  22.763 -0.2335  0.1068  0.2059
 2120DOPG   C3A47299  14.133  16.206  22.424  0.1470 -0.2382  0.1185
 2120DOPG   C4A47300  14.518  16.433  22.171  0.0638  0.1317  0.1456
 2120DOPG   C1B47301  13.147  15.948  23.036 -0.2553 -0.0705  0.1058
 2120DOPG   D2B47302  12.816  15.988  22.714  0.3154  0.0740 -0.1908
 2120DOPG   C3B47303  12.483  16.094  22.726  0.2765 -0.2717 -0.3497
 2120DOPG   C4B47304  12.284  16.373  22.973  0.1492 -0.0652  0.0460
 2121DOPG   GL047305  13.423  14.872  23.849 -0.0177  0.5342 -0.1267
 2121DOPG   PO447306  13.211  14.648  24.249  0.1647 -0.0139 -0.0351
 2121DOPG   GL147307  13.036  14.556  23.752 -0.2791  0.3287 -0.2887
 2121DOPG   GL247308  13.347  14.334  23.600  0.1627  0.2678  0.0369
 2121DOPG   C1A47309  13.174  14.736  23.372 -0.3378 -0.3375 -0.1631
 2121DOPG   D2A47310  13.142  15.072  23.138 -0.2541 -0.0906  0.0294
 2121DOPG   C3A47311  13.374  15.486  23.138 -0.1593  0.0279  0.3259
 2121DOPG   C4A47312  13.808  15.517  23.055  0.2642  0.0042 -0.0074
 2121DOPG   C1B47313  13.671  14.608  23.513  0.2426  0.0995 -0.1060
 2121DOPG   D2B47314  14.090  14.741  23.505 -0.0016 -0.0926  0.1924
 2121DOPG   C3B47315  14.047  14.773  23.044 -0.1215 -0.3059 -0.3055
 2121DOPG   C4B47316  13.853  14.696  22.642 -0.2674 -0.1046  0.2098
 2122DOPG   GL047317  10.671  15.715  23.262  0.1459 -0.0432  0.1353
 2122DOPG   PO447318  10.718  15.969  22.948 -0.0538  0.2840 -0.3249
 2122DOPG   GL147319  10.910  15.994  22.506 -0.0253 -0.1424  0.1477
 2122DOPG   GL247320  10.933  16.201  22.394  0.0582 -0.1463 -0.0876
 2122DOPG   C1A47321  11.171  15.793  22.187 -0.2414  0.0398  0.0003
 2122DOPG   D2A47322  11.499  15.992  21.967  0.0135 -0.1796 -0.3856
 2122DOPG   C3A47323  11.355  16.022  21.556  0.0361  0.2574 -0.0711
 2122DOPG   C4A47324  11.511  15.998  21.221  0.1567 -0.0497  0.2692
 2122DOPG   C1B47325  11.029  16.661  22.094 -0.0243 -0.2755 -0.0856
 2122DOPG   D2B47326  11.053  17.197  21.977 -0.2652 -0.0191 -0.1614
 2122DOPG   C3B47327  10.923  17.246  21.590 -0.3787 -0.0157  0.0998
 2122DOPG   C4B47328  10.610  17.558  21.335  0.0770 -0.1456  0.4629
 2123DOPG   GL047329  11.308  25.681  16.416  0.1374  0.0579  0.1757
 2123DOPG   PO447330  11.556  25.923  16.682 -0.0061  0.1659  0.0563
 2123DOPG   GL147331  11.528  25.455  16.799  0.0413  0.0372  0.2214
 2123DOPG   GL247332  11.600  25.018  16.874 -0.0570 -0.2841  0.2196
 2123DOPG   C1A47333  11.311  25.247  17.181  0.0903 -0.1170  0.1584
 2123DOPG   D2A47334  11.341  25.022  17.427 -0.0779 -0.1124  0.1247
 2123DOPG   C3A47335  11.247  24.565  17.426  0.0936  0.1437  0.1819
 2123DOPG   C4A47336  10.993  24.471  17.728  0.2316  0.2041  0.2248
 2123DOPG   C1B47337  11.910  24.687  16.860 -0.1169  0.0564 -0.1257
 2123DOPG   D2B47338  12.053  24.384  17.165 -0.0496 -0.0529 -0.1000
 2123DOPG   C3B47339  11.911  24.464  17.583  0.2286  0.0456  0.0860
 2123DOPG   C4B47340  11.911  24.228  18.059  0.0171  0.0262 -0.1439
 2124DOPG   GL047341  18.713  22.762  20.807 -0.1300 -0.2112  0.3855
 2124DOPG   PO447342  18.834  22.979  20.474 -0.0071 -0.0134 -0.0475
 2124DOPG   GL147343  18.537  22.942  20.372  0.3857 -0.0686 -0.0147
 2124DOPG   GL247344  18.408  22.635  20.390  0.1405 -0.1227  0.1463
 2124DOPG   C1A47345  18.459  23.014  19.988 -0.0654 -0.4107 -0.1353
 2124DOPG   D2A47346  18.059  23.201  19.652  0.3748  0.2207 -0.3052
 2124DOPG   C3A47347  18.107  23.215  19.251 -0.0196 -0.3501 -0.0937
 2124DOPG   C4A47348  18.152  23.372  18.769  0.2494  0.0628  0.4856
 2124DOPG   C1B47349  18.106  22.303  20.178  0.2878 -0.0392  0.0338
 2124DOPG   D2B47350  17.973  22.139  19.808 -0.0806 -0.0553 -0.0594
 2124DOPG   C3B47351  17.736  21.840  19.826  0.0050 -0.0201 -0.3823
 2124DOPG   C4B47352  17.252  21.793  19.678  0.0394  0.3077  0.1257
 2125DOPG   GL047353   6.907   9.076  17.107 -0.2435 -0.1420  0.2018
 2125DOPG   PO447354   7.279   9.096  17.324 -0.0342  0.1896  0.3426
 2125DOPG   GL147355   7.519   9.584  17.143  0.4005 -0.3114  0.2274
 2125DOPG   GL247356   7.437   9.696  17.390 -0.3011 -0.0215  0.2268
 2125DOPG   C1A47357   7.704   9.742  16.840 -0.0544 -0.1319  0.1341
 2125DOPG   D2A47358   7.976  10.139  16.672 -0.0959 -0.0729 -0.1817
 2125DOPG   C3A47359   7.939  10.476  16.782  0.1914  0.2997  0.1263
 2125DOPG   C4A47360   7.949  10.905  17.049  0.0641 -0.1725 -0.0335
 2125DOPG   C1B47361   7.795   9.946  17.591  0.1854  0.3421  0.1048
 2125DOPG   D2B47362   8.125  10.280  17.762 -0.0469  0.2962  0.3533
 2125DOPG   C3B47363   8.208  10.423  18.181 -0.1826 -0.1023  0.3473
 2125DOPG   C4B47364   8.140  10.831  18.440  0.0668  0.1799 -0.0802
 2126DOPG   GL047365  15.271  18.467  23.871 -0.1259 -0.0167 -0.3032
 2126DOPG   PO447366  14.953  18.632  23.792  0.1090 -0.1133  0.0639
 2126DOPG   GL147367  15.121  18.573  23.295  0.0520  0.3490  0.1063
 2126DOPG   GL247368  15.319  18.614  23.247 -0.1106 -0.1154  0.4812
 2126DOPG   C1A47369  15.300  18.297  22.875  0.0149  0.3150  0.2024
 2126DOPG   D2A47370  15.335  18.279  22.471 -0.1211  0.1205 -0.2048
 2126DOPG   C3A47371  15.515  18.326  22.058 -0.1521 -0.1176 -0.3031
 2126DOPG   C4A47372  15.775  18.062  21.724 -0.0095  0.1703 -0.2589
 2126DOPG   C1B47373  15.663  18.678  23.010  0.0723 -0.0172 -0.2499
 2126DOPG   D2B47374  15.621  18.832  22.653  0.2712  0.0365  0.2765
 2126DOPG   C3B47375  15.761  18.711  22.319  0.0077  0.1467  0.2233
 2126DOPG   C4B47376  15.969  18.319  22.136  0.1231  0.1847  0.0254
 2127DOPG   GL047377  12.723   9.621  22.211 -0.0975  0.3208 -0.2948
 2127DOPG   PO447378  12.869   9.393  21.873  0.1977  0.0318  0.0377
 2127DOPG   GL147379  12.669   9.635  21.537 -0.2355  0.0828  0.0065
 2127DOPG   GL247380  12.410   9.642  21.665  0.0311  0.0392 -0.0943
 2127DOPG   C1A47381  12.765   9.737  21.128 -0.3029 -0.1314 -0.0599
 2127DOPG   D2A47382  12.905   9.575  20.720 -0.0194 -0.1018  0.0411
 2127DOPG   C3A47383  12.951   9.206  20.491  0.1653 -0.0369  0.3518
 2127DOPG   C4A47384  13.183   9.013  20.253 -0.0647  0.1306  0.0576
 2127DOPG   C1B47385  12.247  10.028  21.577 -0.3880 -0.1257 -0.1405
 2127DOPG   D2B47386  12.664  10.313  21.303 -0.2205 -0.0086  0.3273
 2127DOPG   C3B47387  12.980  10.668  21.300  0.0953 -0.0810  0.0098
 2127DOPG   C4B47388  13.175  11.122  21.295 -0.2026  0.0369 -0.1349
 2128DOPG   GL047389  20.404  14.365  22.993  0.0485 -0.2084 -0.1985
 2128DOPG   PO447390  20.289  14.802  22.771  0.1869  0.0665 -0.0362
 2128DOPG   GL147391  20.216  15.108  22.419 -0.0428  0.0203 -0.1898
 2128DOPG   GL247392  20.253  15.461  22.516  0.2818 -0.1544  0.1121
 2128DOPG   C1A47393  19.940  15.242  22.203 -0.1233  0.0404 -0.1511
 2128DOPG   D2A47394  19.894  15.208  21.736 -0.0953  0.3249  0.0566
 2128DOPG   C3A47395  20.045  14.833  21.484  0.0413 -0.1467  0.2119
 2128DOPG   C4A47396  20.391  14.463  21.238  0.3708 -0.0597  0.1496
 2128DOPG   C1B47397  20.675  15.301  22.249 -0.3567  0.4829 -0.0460
 2128DOPG   D2B47398  21.186  15.320  22.275 -0.3469 -0.0563  0.1099
 2128DOPG   C3B47399  21.387  15.494  21.883 -0.0874  0.1283  0.1245
 2128DOPG   C4B47400  21.559  15.615  21.514  0.1576  0.0644  0.0263
 2129DOPG   GL047401  23.155  17.515  22.197  0.9734 -0.0504 -0.1305
 2129DOPG   PO447402  22.836  17.296  22.303 -0.0669 -0.2788 -0.0333
 2129DOPG   GL147403  22.691  17.200  21.887  0.1542  0.0965  0.5021
 2129DOPG   GL247404  22.886  17.488  21.658 -0.1626 -0.1883  0.0545
 2129DOPG   C1A47405  22.607  16.920  21.438 -0.1047  0.2591 -0.0404
 2129DOPG   D2A47406  22.466  16.822  21.043 -0.0176  0.1186  0.0660
 2129DOPG   C3A47407  22.597  16.591  20.706  0.3215 -0.4403  0.2471
 2129DOPG   C4A47408  22.823  16.204  20.514 -0.0918  0.0370 -0.0419
 2129DOPG   C1B47409  23.023  17.283  21.212 -0.0602 -0.0910  0.0390
 2129DOPG   D2B47410  23.286  17.412  20.906 -0.1385 -0.1467  0.1256
 2129DOPG   C3B47411  23.104  17.270  20.446 -0.1250  0.1611  0.0712
 2129DOPG   C4B47412  23.158  17.359  20.001  0.0026  0.0119  0.4064
 2130DOPG   GL047413  17.911   8.771  18.509  0.0262 -0.1769  0.2717
 2130DOPG   PO447414  18.200   8.985  18.744 -0.0926  0.3490 -0.0154
 2130DOPG   GL147415  18.053   9.345  18.593  0.4072  0.0345 -0.0734
 2130DOPG   GL247416  17.861   9.309  18.358 -0.0270  0.0476  0.0886
 2130DOPG   C1A47417  17.600   9.605  18.679 -0.1387 -0.0435  0.1650
 2130DOPG   D2A47418  17.488   9.728  18.363  0.3038  0.3756  0.0143
 2130DOPG   C3A47419  17.153   9.880  18.471 -0.1502  0.1324  0.0224
 2130DOPG   C4A47420  16.901  10.208  18.799 -0.1019 -0.2550  0.0950
 2130DOPG   C1B47421  18.034   9.752  18.339  0.1214  0.2869  0.0176
 2130DOPG   D2B47422  18.201  10.239  18.272 -0.0619  0.0063  0.1032
 2130DOPG   C3B47423  17.894  10.585  18.430 -0.2933  0.2183  0.1342
 2130DOPG   C4B47424  17.780  10.989  18.178  0.0770  0.0992 -0.1581
 2131DOPG   GL047425  11.282  19.835  22.771 -0.0324  0.0370  0.1337
 2131DOPG   PO447426  11.047  19.998  22.628  0.0782 -0.1909 -0.2857
 2131DOPG   GL147427  11.231  20.103  22.275 -0.3130 -0.0173 -0.1774
 2131DOPG   GL247428  11.467  20.257  22.258 -0.1405 -0.0152  0.2343
 2131DOPG   C1A47429  11.213  19.994  21.780  0.1175  0.0459  0.0127
 2131DOPG   D2A47430  11.579  19.783  21.645 -0.3613 -0.0102  0.2412
 2131DOPG   C3A47431  11.959  19.952  21.388  0.2128  0.0141 -0.1812
 2131DOPG   C4A47432  12.251  20.257  21.217  0.3690  0.1374  0.0037
 2131DOPG   C1B47433  11.583  20.273  21.841 -0.0175  0.0734  0.1195
 2131DOPG   D2B47434  11.969  20.379  21.681  0.2749 -0.1981 -0.2855
 2131DOPG   C3B47435  12.395  20.296  21.793  0.0077  0.1418 -0.2111
 2131DOPG   C4B47436  12.706  20.137  21.567  0.0430  0.0295 -0.1742
 2132DOPG   GL047437  16.030  18.161  23.887 -0.3568  0.1189  0.0457
 2132DOPG   PO447438  15.859  17.854  23.953 -0.0307 -0.2208  0.1609
 2132DOPG   GL147439  15.843  17.749  23.575 -0.3433  0.3041  0.0574
 2132DOPG   GL247440  16.108  17.534  23.487  0.0731  0.0658 -0.3342
 2132DOPG   C1A47441  16.039  18.007  23.187  0.0250 -0.3039  0.0825
 2132DOPG   D2A47442  16.222  17.941  22.795 -0.1256 -0.0014  0.0696
 2132DOPG   C3A47443  16.022  17.900  22.465 -0.0069  0.2628  0.2303
 2132DOPG   C4A47444  15.697  17.840  22.163  0.0576 -0.1504 -0.0054
 2132DOPG   C1B47445  16.094  17.043  23.481  0.0993  0.0528 -0.4619
 2132DOPG   D2B47446  15.996  16.673  23.302  0.2708 -0.1290  0.0484
 2132DOPG   C3B47447  16.396  16.398  23.157 -0.0452  0.1512  0.2936
 2132DOPG   C4B47448  16.452  16.285  22.760  0.0915 -0.2098  0.1120
 2133DOPG   GL047449  23.632  16.400  22.218  0.1237 -0.2058  0.2238
 2133DOPG   PO447450  23.662  15.908  22.152  0.4271 -0.0994 -0.0253
 2133DOPG   GL147451  23.699  16.054  21.726  0.0027  0.2171  0.0940
 2133DOPG   GL247452  23.884  16.343  21.748 -0.1990  0.0330 -0.0493
 2133DOPG   C1A47453  23.621  15.948  21.292 -0.0659  0.2933 -0.0456
 2133DOPG   D2A47454  23.391  16.050  20.921  0.1310  0.1832  0.0875
 2133DOPG   C3A47455  23.135  15.798  20.616  0.0241  0.1292 -0.0150
 2133DOPG   C4A47456  23.255  15.556  20.355  0.2664 -0.0970 -0.1324
 2133DOPG   C1B47457  23.716  16.584  21.384  0.0499 -0.0687 -0.1244
 2133DOPG   D2B47458  23.863  16.968  21.107  0.1634  0.1288  0.1484
 2133DOPG   C3B47459  23.827  17.379  21.055 -0.1303  0.1120 -0.3069
 2133DOPG   C4B47460  23.727  17.665  20.865  0.1192 -0.0554  0.0099
 2134DOPG   GL047461  24.254  13.902  20.829 -0.2556 -0.2551 -0.1395
 2134DOPG   PO447462  24.691  14.021  20.688  0.0724  0.2007 -0.5836
 2134DOPG   GL147463  24.443  14.326  20.484  0.1725  0.0948 -0.1004
 2134DOPG   GL247464  24.273  14.189  20.325 -0.2061  0.1610 -0.0035
 2134DOPG   C1A47465  24.121  14.677  20.277  0.0738  0.3201 -0.2361
 2134DOPG   D2A47466  24.034  15.055  20.028 -0.2145  0.1616  0.0637
 2134DOPG   C3A47467  24.276  15.449  20.044 -0.4938 -0.1217  0.1666
 2134DOPG   C4A47468  24.352  15.870  19.924 -0.2485  0.0388 -0.2172
 2134DOPG   C1B47469  24.307  14.421  19.890  0.1190  0.3700  0.2263
 2134DOPG   D2B47470  23.867  14.459  19.809  0.0527 -0.0863  0.2545
 2134DOPG   C3B47471  23.583  14.827  19.846  0.0687 -0.0119  0.0468
 2134DOPG   C4B47472  23.641  15.089  19.406 -0.2359  0.0119  0.4405
 2135DOPG   GL047473  23.372  18.642  21.253  0.0127 -0.1421  0.1836
 2135DOPG   PO447474  23.677  18.868  21.503 -0.0213 -0.3680 -0.1342
 2135DOPG   GL147475  23.995  19.170  21.387 -0.1308 -0.4133 -0.1700
 2135DOPG   GL247476  23.990  19.463  21.530 -0.0586 -0.1179  0.1840
 2135DOPG   C1A47477  24.511  19.254  21.471 -0.2918 -0.0315 -0.0821
 2135DOPG   D2A47478  24.828  19.087  21.297 -0.0835 -0.0494  0.0656
 2135DOPG   C3A47479  24.911  19.264  20.831 -0.1302 -0.2171 -0.0547
 2135DOPG   C4A47480  24.774  19.628  20.577  0.2936  0.0037 -0.0995
 2135DOPG   C1B47481  24.336  19.729  21.358  0.1693  0.2116  0.0831
 2135DOPG   D2B47482  24.714  19.807  21.070 -0.0226  0.0525  0.0127
 2135DOPG   C3B47483  24.805  20.185  20.746  0.1672  0.0423  0.1996
 2135DOPG   C4B47484  24.672  20.571  20.958  0.2408  0.5250 -0.1139
 2136DOPG   GL047485  15.850   8.919  19.996 -0.4181 -0.0653 -0.0471
 2136DOPG   PO447486  15.861   8.855  20.510  0.1471  0.2890  0.4281
 2136DOPG   GL147487  15.496   9.074  20.331  0.0087  0.1136  0.1457
 2136DOPG   GL247488  15.376   8.923  20.163 -0.0879 -0.0122  0.2233
 2136DOPG   C1A47489  15.175   9.358  20.290  0.1920 -0.0802  0.0423
 2136DOPG   D2A47490  14.881   9.628  20.379 -0.1621  0.1620 -0.0914
 2136DOPG   C3A47491  14.719  10.000  20.269 -0.0109  0.0875  0.0811
 2136DOPG   C4A47492  14.570  10.320  20.154  0.3499 -0.2939 -0.2159
 2136DOPG   C1B47493  15.024   8.924  19.934  0.1651 -0.0529  0.3838
 2136DOPG   D2B47494  14.561   9.166  19.864  0.2409  0.2163  0.1536
 2136DOPG   C3B47495  14.524   9.555  19.975  0.5712 -0.5107 -0.0093
 2136DOPG   C4B47496  14.269   9.917  20.075  0.0052 -0.0839  0.1160
 2137DOPG   GL047497   9.077  17.301  22.629  0.1660  0.1797 -0.0165
 2137DOPG   PO447498   9.116  17.116  22.284  0.0081  0.0104 -0.0601
 2137DOPG   GL147499   9.284  16.846  21.950 -0.3205 -0.2270 -0.0259
 2137DOPG   GL247500   9.295  17.119  21.749 -0.2289 -0.2958  0.1133
 2137DOPG   C1A47501   9.551  16.657  21.573 -0.2529 -0.0669 -0.2010
 2137DOPG   D2A47502   9.700  16.344  21.225 -0.0056  0.2319 -0.1622
 2137DOPG   C3A47503  10.088  16.521  20.941 -0.2864 -0.0415  0.0681
 2137DOPG   C4A47504  10.441  16.663  20.984  0.0785  0.0112 -0.0445
 2137DOPG   C1B47505   9.628  17.261  21.443 -0.1296 -0.0878 -0.0207
 2137DOPG   D2B47506   9.899  17.460  21.204  0.0457 -0.4195 -0.3530
 2137DOPG   C3B47507  10.126  17.762  21.253 -0.1068 -0.0523 -0.2141
 2137DOPG   C4B47508   9.980  18.214  21.406  0.2065 -0.0619  0.1872
 2138DOPG   GL047509  13.836  19.092  23.649 -0.4395  0.0405  0.0214
 2138DOPG   PO447510  13.587  19.468  23.466  0.0910  0.0593  0.1279
 2138DOPG   GL147511  13.575  19.346  23.016 -0.0950  0.0745  0.1547
 2138DOPG   GL247512  13.727  19.593  22.758  0.1266  0.4519 -0.1340
 2138DOPG   C1A47513  13.771  19.039  22.669  0.2853  0.0597  0.0174
 2138DOPG   D2A47514  14.176  18.863  22.781 -0.0702  0.0215  0.0535
 2138DOPG   C3A47515  14.425  18.960  22.418 -0.1197 -0.2488  0.0904
 2138DOPG   C4A47516  14.809  19.201  22.604 -0.0556 -0.1604  0.2531
 2138DOPG   C1B47517  13.952  19.805  22.416  0.1008  0.1199 -0.0267
 2138DOPG   D2B47518  13.862  20.158  22.221 -0.1909  0.0103  0.0780
 2138DOPG   C3B47519  14.046  20.119  21.840 -0.3207 -0.2870  0.3464
 2138DOPG   C4B47520  14.023  20.358  21.443 -0.0444  0.0065  0.0470
 2139DOPG   GL047521   8.212  20.157  21.325 -0.1740 -0.1306 -0.0066
 2139DOPG   PO447522   8.089  20.507  21.235 -0.0601  0.0184 -0.0635
 2139DOPG   GL147523   7.784  20.469  20.979 -0.0380 -0.0743 -0.2563
 2139DOPG   GL247524   7.854  20.487  20.589  0.2445 -0.0973 -0.5470
 2139DOPG   C1A47525   7.378  20.484  20.776 -0.2287  0.0258  0.3645
 2139DOPG   D2A47526   7.262  20.290  20.361  0.1289 -0.0629  0.1051
 2139DOPG   C3A47527   7.536  20.176  20.132 -0.0092  0.2592 -0.0391
 2139DOPG   C4A47528   7.891  20.214  20.209  0.3100 -0.3255 -0.2051
 2139DOPG   C1B47529   7.545  20.681  20.254  0.0520 -0.1474  0.0988
 2139DOPG   D2B47530   7.330  20.642  19.854  0.0310  0.2905 -0.1074
 2139DOPG   C3B47531   7.082  20.255  19.817 -0.4643 -0.0497 -0.2422
 2139DOPG   C4B47532   7.103  19.837  19.990 -0.5333 -0.0983  0.1480
 2140DOPG   GL047533  15.265  17.151  23.842  0.3163  0.1661 -0.0721
 2140DOPG   PO447534  15.454  16.829  24.095  0.0768  0.1351 -0.1139
 2140DOPG   GL147535  15.592  16.717  23.696  0.0065  0.1325  0.0447
 2140DOPG   GL247536  15.347  16.621  23.553  0.1332 -0.1545 -0.0240
 2140DOPG   C1A47537  15.497  17.123  23.319 -0.0599 -0.2988 -0.1526
 2140DOPG   D2A47538  15.398  17.444  22.942  0.0019  0.3423 -0.2473
 2140DOPG   C3A47539  15.631  17.473  22.559  0.2201 -0.2953 -0.0877
 2140DOPG   C4A47540  15.831  17.342  22.060  0.1743 -0.0628 -0.3985
 2140DOPG   C1B47541  15.042  16.894  23.272 -0.0410 -0.0959  0.0101
 2140DOPG   D2B47542  14.860  17.228  23.097 -0.0334  0.1054 -0.0201
 2140DOPG   C3B47543  14.548  17.454  23.237 -0.0751  0.1845  0.2051
 2140DOPG   C4B47544  14.459  17.890  23.120  0.0995 -0.1912  0.0912
 2141DOPG   GL047545   6.332  16.803  19.967 -0.1996 -0.2444  0.2508
 2141DOPG   PO447546   6.326  16.350  19.924 -0.3282  0.0859  0.6110
 2141DOPG   GL147547   6.752  16.481  19.780 -0.1889 -0.4268 -0.2489
 2141DOPG   GL247548   6.946  16.667  19.963 -0.1305 -0.2536  0.0949
 2141DOPG   C1A47549   7.013  16.449  19.376 -0.0482 -0.1925 -0.0209
 2141DOPG   D2A47550   7.244  16.141  18.981  0.2357 -0.0337  0.2248
 2141DOPG   C3A47551   7.485  15.767  18.983 -0.1145 -0.0370  0.1830
 2141DOPG   C4A47552   7.518  15.361  19.266  0.0632  0.2826 -0.1030
 2141DOPG   C1B47553   7.300  16.655  19.823 -0.1195 -0.0065  0.0411
 2141DOPG   D2B47554   7.688  16.992  19.836  0.0822  0.2204  0.0502
 2141DOPG   C3B47555   8.111  16.973  20.004  0.0254 -0.0867  0.0021
 2141DOPG   C4B47556   8.440  16.662  20.191 -0.0907  0.0557  0.2201
 2142DOPG   GL047557  19.605  10.104  19.192 -0.0573 -0.0220 -0.2742
 2142DOPG   PO447558  19.904  10.373  19.003  0.0221 -0.2207 -0.0971
 2142DOPG   GL147559  19.568  10.630  19.129 -0.0663  0.2554  0.2202
 2142DOPG   GL247560  19.671  10.886  19.300  0.0713 -0.1758  0.1982
 2142DOPG   C1A47561  19.225  10.664  18.715 -0.1602 -0.1579 -0.2196
 2142DOPG   D2A47562  18.725  10.697  18.634 -0.0107 -0.0655  0.0548
 2142DOPG   C3A47563  18.467  10.753  18.269  0.1945 -0.1989  0.1670
 2142DOPG   C4A47564  18.137  10.716  17.955 -0.1518 -0.1687 -0.4114
 2142DOPG   C1B47565  19.498  11.082  18.885  0.1995 -0.0064 -0.1155
 2142DOPG   D2B47566  19.422  11.107  18.361 -0.1181  0.3354 -0.2969
 2142DOPG   C3B47567  19.342  11.497  18.164 -0.4767  0.1070  0.4334
 2142DOPG   C4B47568  19.106  11.775  18.044 -0.0173  0.0794  0.1497
 2143DOPG   GL047569  14.718   9.880  21.649  0.2402 -0.0227 -0.0496
 2143DOPG   PO447570  14.690   9.445  21.684 -0.0619  0.0470 -0.1287
 2143DOPG   GL147571  14.442   9.562  21.339  0.0419  0.0309  0.4412
 2143DOPG   GL247572  14.514   9.277  21.158  0.0976 -0.1721 -0.4051
 2143DOPG   C1A47573  14.228   9.779  21.017  0.1212 -0.1708  0.0920
 2143DOPG   D2A47574  14.347   9.887  20.650 -0.1098 -0.0993 -0.1388
 2143DOPG   C3A47575  14.065  10.325  20.543 -0.0732  0.2820 -0.0940
 2143DOPG   C4A47576  13.623  10.476  20.524 -0.0907 -0.0244 -0.0483
 2143DOPG   C1B47577  14.775   9.014  20.988  0.0853 -0.1037 -0.1805
 2143DOPG   D2B47578  15.032   8.949  20.766 -0.1522  0.0513  0.1837
 2143DOPG   C3B47579  14.817   8.816  20.418  0.2012 -0.0677  0.0717
 2143DOPG   C4B47580  14.570   8.707  20.013 -0.1052 -0.0383 -0.1339
 2144DOPG   GL047581  22.986  12.176  18.418  0.1151 -0.2942 -0.1926
 2144DOPG   PO447582  23.096  11.800  18.113 -0.0315 -0.2002 -0.3963
 2144DOPG   GL147583  22.835  12.163  17.872  0.2157 -0.2986 -0.3182
 2144DOPG   GL247584  23.053  12.184  17.646 -0.2034  0.2415  0.2480
 2144DOPG   C1A47585  22.817  12.576  18.155 -0.0025  0.0311 -0.2473
 2144DOPG   D2A47586  23.136  12.889  18.375  0.2541  0.0484 -0.3007
 2144DOPG   C3A47587  23.114  13.067  18.765 -0.2642 -0.1957  0.2482
 2144DOPG   C4A47588  23.466  13.262  18.940  0.1547 -0.0343  0.4451
 2144DOPG   C1B47589  22.961  12.581  17.667 -0.0338 -0.1325 -0.1173
 2144DOPG   D2B47590  22.737  12.889  17.646 -0.1775  0.1136  0.2388
 2144DOPG   C3B47591  22.630  13.077  17.969  0.0645 -0.0267  0.1172
 2144DOPG   C4B47592  22.729  13.260  18.273 -0.1852 -0.2798  0.2517
 2145DOPG   GL047593   8.004  17.450  21.249 -0.0195  0.0094  0.1139
 2145DOPG   PO447594   7.657  17.468  20.963  0.1860  0.0183  0.1675
 2145DOPG   GL147595   7.864  17.393  20.703  0.1156  0.3155 -0.0196
 2145DOPG   GL247596   7.823  17.279  20.389 -0.2369 -0.0345  0.3383
 2145DOPG   C1A47597   8.304  17.422  20.656 -0.0484 -0.0594  0.1987
 2145DOPG   D2A47598   8.784  17.357  20.766  0.1370 -0.1283 -0.1063
 2145DOPG   C3A47599   8.900  17.430  20.356 -0.0255  0.0259  0.0068
 2145DOPG   C4A47600   8.960  17.225  19.989 -0.1376  0.0792 -0.0162
 2145DOPG   C1B47601   7.802  17.429  20.031  0.0691 -0.1595  0.0546
 2145DOPG   D2B47602   7.435  17.559  19.770 -0.1448 -0.2570  0.0619
 2145DOPG   C3B47603   7.467  17.871  19.534 -0.4580 -0.0013 -0.1958
 2145DOPG   C4B47604   7.432  18.352  19.587  0.2686  0.0212  0.0071
 2146DOPG   GL047605  10.514   8.848  22.173  0.3026 -0.0499  0.1229
 2146DOPG   PO447606  10.265   9.098  22.030  0.1046  0.2510  0.2876
 2146DOPG   GL147607  10.379   9.383  21.663 -0.2240  0.3442  0.3592
 2146DOPG   GL247608  10.194   9.689  21.549  0.1558 -0.0592 -0.1675
 2146DOPG   C1A47609  10.601   9.317  21.298 -0.1365  0.1436  0.1455
 2146DOPG   D2A47610  10.852   9.152  20.969  0.1927 -0.1916  0.1690
 2146DOPG   C3A47611  10.704   9.177  20.510  0.1562  0.1089  0.1071
 2146DOPG   C4A47612  10.677   8.723  20.180  0.0078 -0.3456  0.0793
 2146DOPG   C1B47613  10.308   9.690  21.090  0.0697  0.2301 -0.0415
 2146DOPG   D2B47614   9.932   9.766  20.695 -0.1748  0.0767  0.1161
 2146DOPG   C3B47615  10.140   9.880  20.377  0.3246 -0.0156  0.0861
 2146DOPG   C4B47616  10.456   9.919  19.952 -0.1974  0.0210 -0.2009
 2147DOPG   GL047617  19.444  13.211  22.552  0.3732  0.3352 -0.2770
 2147DOPG   PO447618  19.859  13.212  22.477 -0.2830  0.2864  0.0140
 2147DOPG   GL147619  19.903  13.307  22.084 -0.3941 -0.1381  0.1595
 2147DOPG   GL247620  20.256  13.231  21.958  0.1968 -0.1491  0.0027
 2147DOPG   C1A47621  19.694  13.170  21.709  0.0687 -0.1704 -0.0775
 2147DOPG   D2A47622  19.834  13.363  21.300 -0.0763 -0.0010 -0.0745
 2147DOPG   C3A47623  19.647  13.355  20.780  0.0916  0.1990  0.0495
 2147DOPG   C4A47624  19.621  12.992  20.494  0.0352 -0.1183 -0.0352
 2147DOPG   C1B47625  20.108  13.629  21.772  0.1916 -0.4022  0.2525
 2147DOPG   D2B47626  19.811  13.975  21.997 -0.0916  0.1235  0.0416
 2147DOPG   C3B47627  19.814  14.331  21.919 -0.1724 -0.2283 -0.3638
 2147DOPG   C4B47628  20.105  14.743  22.053 -0.0551 -0.0739 -0.1778
 2148DOPG   GL047629  12.575  12.291  23.199  0.1428  0.1721  0.1442
 2148DOPG   PO447630  12.387  12.002  22.967 -0.0727 -0.0648 -0.3015
 2148DOPG   GL147631  12.291  12.170  22.633  0.0256 -0.3354 -0.1721
 2148DOPG   GL247632  12.201  12.490  22.686 -0.1196  0.2154 -0.2446
 2148DOPG   C1A47633  12.261  12.279  22.167 -0.0723  0.0465 -0.1709
 2148DOPG   D2A47634  12.061  12.138  21.782  0.2061  0.2700 -0.1088
 2148DOPG   C3A47635  12.305  12.093  21.468  0.1081  0.1789 -0.0863
 2148DOPG   C4A47636  12.704  12.278  21.305 -0.1078  0.2935 -0.0496
 2148DOPG   C1B47637  12.037  12.759  22.484  0.1267  0.1896 -0.0695
 2148DOPG   D2B47638  11.793  12.990  22.215 -0.0238  0.0806  0.1049
 2148DOPG   C3B47639  12.022  13.182  21.887  0.2006 -0.1439 -0.0405
 2148DOPG   C4B47640  11.961  13.076  21.510 -0.2098 -0.0755  0.2995
 2149DOPG   GL047641  24.555  15.715  21.496  0.0958  0.5998 -0.4422
 2149DOPG   PO447642  24.285  16.030  21.701 -0.2100  0.4153 -0.1417
 2149DOPG   GL147643  24.185  16.015  21.269  0.2367  0.0945 -0.0095
 2149DOPG   GL247644  24.467  16.241  21.068  0.1559 -0.3257  0.1251
 2149DOPG   C1A47645  23.952  16.016  20.943 -0.0395  0.3257 -0.1361
 2149DOPG   D2A47646  23.714  16.058  20.533 -0.0244 -0.1334  0.1391
 2149DOPG   C3A47647  23.313  16.271  20.441 -0.0601  0.1216  0.2508
 2149DOPG   C4A47648  23.228  16.064  20.111 -0.1687 -0.2074  0.2298
 2149DOPG   C1B47649  24.139  16.525  21.049 -0.2679 -0.1561  0.2075
 2149DOPG   D2B47650  23.768  16.467  20.816  0.0749  0.0018  0.1254
 2149DOPG   C3B47651  23.595  16.921  20.685  0.0284 -0.0222  0.2026
 2149DOPG   C4B47652  23.874  17.276  20.578 -0.2227 -0.0734 -0.0744
 2150DOPG   GL047653  20.244  21.000  21.278 -0.0064 -0.0707  0.1111
 2150DOPG   PO447654  19.819  21.048  21.467 -0.0281  0.0049 -0.2478
 2150DOPG   GL147655  19.760  20.750  21.275  0.2208 -0.0053  0.0265
 2150DOPG   GL247656  20.065  20.518  21.239  0.1007  0.0295 -0.1403
 2150DOPG   C1A47657  19.713  20.436  20.914 -0.1202  0.3589 -0.6153
 2150DOPG   D2A47658  19.525  20.223  20.584  0.0618  0.0040 -0.0584
 2150DOPG   C3A47659  19.712  19.850  20.388 -0.0000  0.2580  0.1881
 2150DOPG   C4A47660  19.691  19.535  20.039 -0.2018 -0.2092 -0.0915
 2150DOPG   C1B47661  19.887  20.031  21.057  0.0199  0.0924  0.1014
 2150DOPG   D2B47662  19.524  19.767  20.895 -0.3929  0.0102 -0.0524
 2150DOPG   C3B47663  19.087  20.051  20.801  0.1433 -0.1348  0.1465
 2150DOPG   C4B47664  18.888  20.320  20.486 -0.2260 -0.0688 -0.2132
 2151DOPG   GL047665   9.255  13.576  22.855 -0.0791 -0.0945  0.1030
 2151DOPG   PO447666   9.272  13.400  22.456 -0.2629 -0.1460 -0.1680
 2151DOPG   GL147667   9.461  13.539  22.071  0.0091  0.1165 -0.5008
 2151DOPG   GL247668   9.294  13.681  21.917 -0.1382 -0.1566  0.2282
 2151DOPG   C1A47669   9.727  13.558  21.760  0.3120  0.0123 -0.1111
 2151DOPG   D2A47670  10.108  13.677  21.609  0.1570  0.1296  0.0074
 2151DOPG   C3A47671   9.974  13.732  21.290  0.2124  0.2065 -0.1646
 2151DOPG   C4A47672   9.894  13.808  20.826  0.3017  0.0213 -0.3928
 2151DOPG   C1B47673   9.121  13.594  21.526 -0.0882  0.0942 -0.0850
 2151DOPG   D2B47674   9.253  13.272  21.245 -0.1682 -0.2274  0.0278
 2151DOPG   C3B47675   9.674  13.314  21.143  0.2121  0.1817  0.0564
 2151DOPG   C4B47676  10.096  13.230  21.425 -0.2587  0.1065 -0.0180
 2152DOPG   GL047677  22.318  12.276  20.545 -0.1628 -0.1310 -0.0320
 2152DOPG   PO447678  22.001  12.028  20.400 -0.0838 -0.2064  0.1468
 2152DOPG   GL147679  21.584  12.285  20.208 -0.0508  0.1453 -0.0581
 2152DOPG   GL247680  21.626  12.311  19.821 -0.0943 -0.2045 -0.1914
 2152DOPG   C1A47681  21.487  12.691  20.225  0.1250 -0.0132  0.0941
 2152DOPG   D2A47682  21.518  12.993  20.489 -0.0085 -0.0119 -0.1263
 2152DOPG   C3A47683  21.390  13.375  20.382 -0.1876 -0.0436  0.4340
 2152DOPG   C4A47684  21.419  13.823  20.441 -0.2259  0.1693 -0.1180
 2152DOPG   C1B47685  21.701  12.579  19.549 -0.0369 -0.0893  0.2191
 2152DOPG   D2B47686  21.478  12.971  19.433  0.4821 -0.0020  0.4432
 2152DOPG   C3B47687  21.303  13.070  19.048  0.1868 -0.2379  0.3186
 2152DOPG   C4B47688  21.366  13.426  18.691  0.0428 -0.0106  0.0142
 2153DOPG   GL047689  20.171  10.776  20.030 -0.0752  0.0673  0.0627
 2153DOPG   PO447690  20.116  10.870  19.636 -0.1163 -0.0496  0.3929
 2153DOPG   GL147691  19.887  11.194  19.824  0.1494  0.0610 -0.1873
 2153DOPG   GL247692  19.959  11.449  19.635 -0.3046 -0.0549 -0.3097
 2153DOPG   C1A47693  19.475  11.313  19.637  0.3010 -0.0863  0.0550
 2153DOPG   D2A47694  19.361  11.399  19.271  0.0498  0.0638  0.1292
 2153DOPG   C3A47695  19.486  11.771  19.283 -0.1512  0.0043 -0.3531
 2153DOPG   C4A47696  19.709  12.093  19.117  0.1719  0.0024 -0.2382
 2153DOPG   C1B47697  19.893  11.503  19.266  0.1509  0.2095 -0.0505
 2153DOPG   D2B47698  19.823  11.459  18.958 -0.0625  0.0766  0.1615
 2153DOPG   C3B47699  20.000  11.231  18.593 -0.1926  0.1592  0.4422
 2153DOPG   C4B47700  20.109  10.939  18.339 -0.0304 -0.0119  0.1745
 2154DOPG   GL047701  12.799  20.779  22.406  0.0689 -0.0471 -0.0257
 2154DOPG   PO447702  12.265  20.696  22.345 -0.1223  0.2886  0.0357
 2154DOPG   GL147703  12.136  20.853  21.912  0.1035  0.2683 -0.3674
 2154DOPG   GL247704  11.795  20.856  21.696 -0.0756 -0.0054  0.1030
 2154DOPG   C1A47705  12.261  20.740  21.506  0.0435 -0.1781  0.3501
 2154DOPG   D2A47706  12.010  20.720  21.111 -0.2811  0.0223  0.1166
 2154DOPG   C3A47707  11.644  20.555  21.371  0.0442  0.4213  0.1858
 2154DOPG   C4A47708  11.321  20.234  21.338  0.0820  0.2950 -0.0026
 2154DOPG   C1B47709  11.807  21.114  21.445  0.2312  0.0384 -0.0808
 2154DOPG   D2B47710  12.173  21.178  21.324 -0.1941 -0.3098 -0.0614
 2154DOPG   C3B47711  12.535  21.116  21.468 -0.4414 -0.2721  0.3021
 2154DOPG   C4B47712  12.973  21.450  21.353  0.2802 -0.1028 -0.0388
 2155DOPG   GL047713  21.990  20.782  21.852  0.0965  0.1618 -0.1754
 2155DOPG   PO447714  21.947  20.834  21.431 -0.0721  0.1810 -0.1064
 2155DOPG   GL147715  21.860  20.873  20.970 -0.1564  0.0756  0.1565
 2155DOPG   GL247716  21.986  20.871  20.755 -0.0444  0.1947 -0.0263
 2155DOPG   C1A47717  21.592  20.577  20.732  0.0358  0.0615 -0.3536
 2155DOPG   D2A47718  21.249  20.220  20.696 -0.2903  0.3782 -0.1002
 2155DOPG   C3A47719  20.945  20.074  20.386  0.2945 -0.4075  0.0792
 2155DOPG   C4A47720  20.920  19.932  19.929  0.4479 -0.0256 -0.0162
 2155DOPG   C1B47721  21.965  20.803  20.334  0.1936  0.1387  0.1267
 2155DOPG   D2B47722  21.556  20.718  20.103 -0.1518  0.2503  0.2105
 2155DOPG   C3B47723  21.187  20.822  20.291  0.1721  0.2908 -0.1929
 2155DOPG   C4B47724  20.873  20.948  20.178 -0.0210 -0.3577 -0.2055
 2156DOPG   GL047725  18.300  22.588  20.989 -0.1176  0.3833  0.0693
 2156DOPG   PO447726  18.702  22.429  21.228 -0.0413 -0.1589 -0.1060
 2156DOPG   GL147727  18.762  22.189  20.808  0.0128  0.2222 -0.1147
 2156DOPG   GL247728  18.975  22.327  20.582 -0.0205 -0.2056 -0.1903
 2156DOPG   C1A47729  18.848  21.890  20.474 -0.2417  0.4635  0.1174
 2156DOPG   D2A47730  19.260  21.675  20.283  0.1185  0.0473  0.1670
 2156DOPG   C3A47731  19.083  21.312  20.198  0.1861 -0.1666 -0.3618
 2156DOPG   C4A47732  19.091  20.939  20.431 -0.2918 -0.1082  0.4306
 2156DOPG   C1B47733  19.257  22.186  20.172 -0.0718  0.1294 -0.0930
 2156DOPG   D2B47734  19.460  22.082  19.864 -0.1700  0.0987  0.1148
 2156DOPG   C3B47735  19.644  21.685  19.915  0.1637 -0.0759 -0.2250
 2156DOPG   C4B47736  19.621  21.231  19.774  0.1372  0.1828  0.1226
 2157DOPG   GL047737   7.996  19.605  21.350 -0.1117  0.0928 -0.0875
 2157DOPG   PO447738   7.885  19.884  21.089  0.2910 -0.1380  0.1349
 2157DOPG   GL147739   7.965  19.985  20.710 -0.1355  0.0344 -0.0051
 2157DOPG   GL247740   7.618  20.036  20.683 -0.1170 -0.2665 -0.0649
 2157DOPG   C1A47741   8.343  19.908  20.523 -0.2131 -0.0799  0.0496
 2157DOPG   D2A47742   8.793  19.879  20.581 -0.0589  0.2630  0.1899
 2157DOPG   C3A47743   9.129  20.039  20.373  0.2665  0.0992  0.1008
 2157DOPG   C4A47744   9.139  20.314  20.125  0.1225  0.0985 -0.0141
 2157DOPG   C1B47745   7.272  19.794  20.500  0.0940  0.2363  0.0066
 2157DOPG   D2B47746   6.868  19.614  20.585 -0.1562 -0.1562 -0.1846
 2157DOPG   C3B47747   6.407  19.767  20.500 -0.1830  0.2384 -0.0175
 2157DOPG   C4B47748   6.063  19.606  20.252  0.2308 -0.1131 -0.2725
 2158DOPG   GL047749  21.024  18.485  22.493  0.0899  0.2179  0.0347
 2158DOPG   PO447750  21.392  18.423  22.269  0.0742  0.2746  0.0617
 2158DOPG   GL147751  21.101  18.258  22.003 -0.3234  0.1849 -0.0741
 2158DOPG   GL247752  20.904  18.355  21.667 -0.0632 -0.0946 -0.1139
 2158DOPG   C1A47753  21.183  17.923  21.645 -0.0962 -0.1248  0.1477
 2158DOPG   D2A47754  20.949  17.610  21.435 -0.2817  0.0037 -0.0579
 2158DOPG   C3A47755  20.660  17.610  21.179 -0.0324  0.0444  0.0591
 2158DOPG   C4A47756  20.654  17.576  20.705 -0.0762  0.2123 -0.1802
 2158DOPG   C1B47757  20.875  18.125  21.329 -0.0786  0.1578  0.1189
 2158DOPG   D2B47758  20.924  17.969  20.974  0.1501  0.0507  0.2219
 2158DOPG   C3B47759  20.910  18.247  20.615  0.0348  0.1104 -0.1956
 2158DOPG   C4B47760  21.243  18.390  20.399  0.0307 -0.1136 -0.3171
 2159DOPG   GL047761  22.764  16.358  22.332 -0.1678  0.0801  0.0142
 2159DOPG   PO447762  22.771  16.806  22.149 -0.4960  0.1327  0.1957
 2159DOPG   GL147763  22.581  16.617  21.885 -0.1565 -0.2293  0.0710
 2159DOPG   GL247764  22.823  16.542  21.702 -0.0963 -0.1251  0.0618
 2159DOPG   C1A47765  22.290  16.567  21.483  0.1802 -0.1915  0.0340
 2159DOPG   D2A47766  21.969  16.754  21.354 -0.1754  0.0701 -0.0422
 2159DOPG   C3A47767  21.976  17.027  21.098 -0.1376 -0.2277  0.1689
 2159DOPG   C4A47768  21.801  17.344  20.850  0.3216 -0.2366 -0.2447
 2159DOPG   C1B47769  23.009  16.620  21.351 -0.0826 -0.0793  0.1442
 2159DOPG   D2B47770  22.919  16.952  20.878 -0.1795  0.1825  0.0731
 2159DOPG   C3B47771  23.120  16.755  20.504 -0.0082 -0.3285  0.1564
 2159DOPG   C4B47772  22.999  16.511  20.056  0.1399 -0.2433  0.1426
 2160DOPG   GL047773  20.562  24.117  19.503  0.0487  0.4232  0.0707
 2160DOPG   PO447774  20.298  23.943  19.110 -0.1990  0.0558 -0.0779
 2160DOPG   GL147775  20.074  23.605  19.320 -0.2812  0.1797  0.2219
 2160DOPG   GL247776  20.236  23.297  19.444  0.0331 -0.0442  0.1765
 2160DOPG   C1A47777  19.770  23.239  19.297  0.1686  0.2272  0.1244
 2160DOPG   D2A47778  19.434  23.086  19.111  0.4391 -0.3395  0.1462
 2160DOPG   C3A47779  19.312  22.590  18.840  0.2591 -0.1747  0.2652
 2160DOPG   C4A47780  19.398  22.417  18.376  0.1703 -0.1256 -0.1614
 2160DOPG   C1B47781  20.395  23.276  19.071  0.1403  0.0599 -0.0738
 2160DOPG   D2B47782  20.412  23.229  18.632  0.1086 -0.0903 -0.1262
 2160DOPG   C3B47783  20.602  22.945  18.576  0.2047 -0.3007  0.0248
 2160DOPG   C4B47784  20.732  22.636  18.292 -0.0827 -0.0247  0.0880
 2161DOPG   GL047785   9.279  24.728  18.711  0.0049 -0.3169  0.2307
 2161DOPG   PO447786   9.319  24.538  19.183  0.1652  0.3266 -0.1128
 2161DOPG   GL147787   9.240  24.138  18.978  0.3137  0.0296  0.0935
 2161DOPG   GL247788   9.095  24.170  18.655 -0.0481 -0.1710 -0.0767
 2161DOPG   C1A47789   9.384  23.712  19.041  0.0601  0.3441 -0.0516
 2161DOPG   D2A47790   9.158  23.336  19.129  0.1309  0.0660  0.3907
 2161DOPG   C3A47791   9.329  23.036  19.345  0.1249  0.2175  0.0381
 2161DOPG   C4A47792   9.480  22.639  19.455  0.0585 -0.1713  0.1095
 2161DOPG   C1B47793   8.758  24.020  18.746 -0.0476 -0.0314 -0.0918
 2161DOPG   D2B47794   8.543  23.648  18.698  0.0153  0.5015  0.1841
 2161DOPG   C3B47795   8.697  23.364  19.014  0.0259  0.2591 -0.1303
 2161DOPG   C4B47796   8.805  23.140  19.418  0.1641  0.2504 -0.2023
 2162DOPG   GL047797  25.715  15.180  21.327 -0.0109 -0.4165 -0.1938
 2162DOPG   PO447798  25.806  15.567  21.251  0.2299  0.2107  0.4073
 2162DOPG   GL147799  25.695  16.074  21.050 -0.3344  0.2460  0.0627
 2162DOPG   GL247800  25.886  16.239  20.881 -0.1046  0.2083 -0.3306
 2162DOPG   C1A47801  25.397  16.210  20.841  0.1141 -0.1420  0.0446
 2162DOPG   D2A47802  25.106  16.263  20.489 -0.1965  0.1120  0.1906
 2162DOPG   C3A47803  25.156  16.579  20.237 -0.0770 -0.0003 -0.0890
 2162DOPG   C4A47804  25.211  16.990  20.373  0.0623 -0.1040  0.1350
 2162DOPG   C1B47805  26.064  16.626  20.724  0.0017  0.1904 -0.1200
 2162DOPG   D2B47806  25.851  17.047  20.581 -0.2512  0.2012 -0.3918
 2162DOPG   C3B47807  25.455  17.113  20.774  0.1745 -0.1149 -0.1881
 2162DOPG   C4B47808  25.106  17.336  20.797 -0.0262 -0.0146 -0.1446
 2163DOPG   GL047809  16.612  11.987  23.023 -0.0066 -0.2302 -0.0244
 2163DOPG   PO447810  16.182  12.110  22.798  0.0664  0.0988 -0.0610
 2163DOPG   GL147811  16.247  12.257  22.398 -0.1525 -0.1577 -0.0472
 2163DOPG   GL247812  16.077  12.237  22.123 -0.0725  0.4384 -0.0117
 2163DOPG   C1A47813  16.241  12.645  22.405  0.0546 -0.1472 -0.3112
 2163DOPG   D2A47814  16.375  13.074  22.416  0.0669  0.0320  0.0593
 2163DOPG   C3A47815  16.561  13.374  22.073  0.1226 -0.3433 -0.2287
 2163DOPG   C4A47816  16.945  13.664  21.877 -0.0824 -0.2605 -0.0256
 2163DOPG   C1B47817  15.955  12.557  21.976  0.4178  0.0440  0.2243
 2163DOPG   D2B47818  15.601  12.682  21.734 -0.1798 -0.2200 -0.1186
 2163DOPG   C3B47819  15.627  13.065  21.474  0.0177  0.1861  0.0794
 2163DOPG   C4B47820  15.838  13.383  21.138  0.0220 -0.3342  0.2246
 2164DOPG   GL047821  11.834  21.312  21.880  0.0632  0.2528  0.2457
 2164DOPG   PO447822  11.516  21.259  22.148 -0.1841  0.1212 -0.2169
 2164DOPG   GL147823  11.393  20.935  22.001  0.1459  0.2817  0.1385
 2164DOPG   GL247824  11.361  21.109  21.575 -0.4546 -0.2480  0.2953
 2164DOPG   C1A47825  11.192  20.521  21.878 -0.0528 -0.4057 -0.0492
 2164DOPG   D2A47826  10.864  20.370  21.630  0.1131  0.3598  0.1424
 2164DOPG   C3A47827  10.904  19.937  21.374  0.1112  0.0334  0.1685
 2164DOPG   C4A47828  11.224  19.642  21.210  0.1921  0.0979  0.2263
 2164DOPG   C1B47829  10.983  20.802  21.462 -0.1879 -0.0702  0.3873
 2164DOPG   D2B47830  10.934  20.494  21.108 -0.1202 -0.4641 -0.0730
 2164DOPG   C3B47831  11.190  20.078  20.893  0.2794 -0.0361 -0.0691
 2164DOPG   C4B47832  11.572  19.865  20.823 -0.1696 -0.0190  0.1326
 2165DOPG   GL047833  21.608  24.994  17.618 -0.1115  0.0785  0.1695
 2165DOPG   PO447834  21.564  24.479  17.717 -0.0188  0.0822 -0.0963
 2165DOPG   GL147835  21.426  24.157  17.759  0.4124 -0.0123  0.0954
 2165DOPG   GL247836  21.173  24.084  17.948  0.0020 -0.1328 -0.1647
 2165DOPG   C1A47837  21.340  23.723  17.586 -0.2088  0.0756 -0.2171
 2165DOPG   D2A47838  21.272  23.441  17.275  0.3180 -0.0124 -0.0342
 2165DOPG   C3A47839  20.892  23.208  17.331 -0.0582 -0.2457 -0.0971
 2165DOPG   C4A47840  20.509  23.290  17.416  0.0251  0.0987  0.0353
 2165DOPG   C1B47841  21.419  23.682  18.087  0.0088 -0.3597  0.2092
 2165DOPG   D2B47842  21.434  23.324  17.979 -0.0642 -0.2077  0.1621
 2165DOPG   C3B47843  21.766  23.320  17.721  0.1288  0.1501 -0.0866
 2165DOPG   C4B47844  21.708  23.038  17.432 -0.1305  0.2327 -0.2082
 2166DOPG   GL047845  14.435  11.741  22.653 -0.0550 -0.0763 -0.2151
 2166DOPG   PO447846  14.050  11.548  22.502  0.3314  0.4606 -0.2743
 2166DOPG   GL147847  13.967  11.980  22.312 -0.0269 -0.0889 -0.1171
 2166DOPG   GL247848  14.015  11.857  21.993  0.1271 -0.1510  0.0916
 2166DOPG   C1A47849  14.082  12.389  22.125  0.0788 -0.1715  0.2395
 2166DOPG   D2A47850  14.305  12.639  21.902 -0.1016  0.0216  0.3210
 2166DOPG   C3A47851  14.291  12.821  21.511  0.1694 -0.0280  0.1241
 2166DOPG   C4A47852  14.614  13.031  21.183  0.1121  0.1197  0.0751
 2166DOPG   C1B47853  13.511  11.831  21.700  0.0187  0.1086  0.1158
 2166DOPG   D2B47854  13.288  11.419  21.636 -0.0555 -0.1931  0.2048
 2166DOPG   C3B47855  12.828  11.519  21.519  0.0359 -0.3143  0.3550
 2166DOPG   C4B47856  12.619  11.765  21.227 -0.1350  0.0772 -0.0606
 2167DOPG   GL047857   8.018  25.016  17.895 -0.0176  0.0621  0.2640
 2167DOPG   PO447858   7.901  24.700  17.637  0.2464  0.2238 -0.2944
 2167DOPG   GL147859   8.145  24.306  17.609 -0.0177  0.3848  0.2774
 2167DOPG   GL247860   7.858  24.211  17.391 -0.2394 -0.0128  0.2505
 2167DOPG   C1A47861   8.246  23.901  17.846  0.0744  0.0535  0.2109
 2167DOPG   D2A47862   8.509  23.557  17.824  0.0468  0.0453  0.1626
 2167DOPG   C3A47863   8.429  23.421  18.217  0.0974  0.0815  0.2391
 2167DOPG   C4A47864   8.490  23.150  18.552 -0.2680  0.0632  0.0643
 2167DOPG   C1B47865   7.951  24.199  17.010  0.0312 -0.1752  0.1517
 2167DOPG   D2B47866   7.947  24.132  16.600 -0.0578 -0.1926  0.0697
 2167DOPG   C3B47867   7.858  23.769  16.267  0.2850  0.2643 -0.0619
 2167DOPG   C4B47868   7.865  23.396  16.274 -0.0147 -0.3176 -0.0070
 2168DOPG   GL047869   7.282  11.730  20.713 -0.0655  0.2220  0.2259
 2168DOPG   PO447870   6.907  12.002  20.689  0.0067  0.3875  0.1404
 2168DOPG   GL147871   7.020  12.271  20.364 -0.0253  0.2725  0.2470
 2168DOPG   GL247872   6.875  12.589  20.284 -0.2614  0.1678 -0.0457
 2168DOPG   C1A47873   7.363  12.541  20.443 -0.1343 -0.1555  0.3442
 2168DOPG   D2A47874   7.799  12.626  20.459  0.0290  0.0372  0.0578
 2168DOPG   C3A47875   7.885  12.848  20.079  0.1698 -0.4060  0.1118
 2168DOPG   C4A47876   8.133  12.912  19.653  0.0350  0.0143 -0.1217
 2168DOPG   C1B47877   7.172  12.482  19.953  0.2615  0.0500 -0.0750
 2168DOPG   D2B47878   7.343  12.238  19.533  0.1560 -0.0901  0.1155
 2168DOPG   C3B47879   7.319  11.778  19.405  0.0494 -0.1105  0.0169
 2168DOPG   C4B47880   7.460  11.577  19.082 -0.2563  0.3239 -0.2437
 2169DOPG   GL047881  11.912  12.843  23.080 -0.0177  0.0795  0.0216
 2169DOPG   PO447882  11.987  13.201  23.308  0.0728 -0.0169 -0.1919
 2169DOPG   GL147883  12.255  13.158  22.971  0.0761  0.1148  0.1417
 2169DOPG   GL247884  11.972  13.254  22.769 -0.3658  0.0864  0.2452
 2169DOPG   C1A47885  12.466  12.929  22.697 -0.0401  0.3331  0.0812
 2169DOPG   D2A47886  12.879  13.012  22.581  0.0001  0.1185  0.0474
 2169DOPG   C3A47887  12.937  13.439  22.723 -0.4875 -0.0923  0.0942
 2169DOPG   C4A47888  12.638  13.636  23.088  0.3252  0.0594  0.1233
 2169DOPG   C1B47889  11.716  13.544  22.574 -0.2395  0.1722 -0.1984
 2169DOPG   D2B47890  11.603  13.427  22.131  0.1464 -0.3001 -0.0879
 2169DOPG   C3B47891  11.313  13.144  21.992 -0.3545 -0.2085  0.2011
 2169DOPG   C4B47892  10.894  13.150  21.868 -0.1293 -0.0908  0.2368
 2170DOPG   GL047893  12.039  14.624  23.413 -0.1350  0.0674 -0.0156
 2170DOPG   PO447894  12.152  14.226  23.500  0.2062 -0.1964  0.1408
 2170DOPG   GL147895  12.436  14.140  23.344  0.0207 -0.1584 -0.0684
 2170DOPG   GL247896  12.655  14.474  23.366  0.2043 -0.0747  0.2980
 2170DOPG   C1A47897  12.608  14.162  22.834  0.0762  0.0557  0.3382
 2170DOPG   D2A47898  12.722  13.875  22.585  0.0240  0.0601  0.0741
 2170DOPG   C3A47899  12.395  13.780  22.262  0.1919 -0.2510  0.0609
 2170DOPG   C4A47900  12.060  13.583  22.240 -0.1658  0.0052 -0.1048
 2170DOPG   C1B47901  13.061  14.191  23.078  0.0762  0.2066 -0.0679
 2170DOPG   D2B47902  13.214  13.786  22.898 -0.4273 -0.1686 -0.5254
 2170DOPG   C3B47903  13.401  13.661  22.599  0.0669 -0.3068  0.0093
 2170DOPG   C4B47904  13.219  13.854  22.263  0.4014  0.3522 -0.0681
 2171DOPG   GL047905   9.625   8.874  21.311 -0.1171  0.1079  0.0205
 2171DOPG   PO447906   9.461   9.278  21.359  0.1402 -0.1561 -0.0105
 2171DOPG   GL147907   9.591   9.655  21.349 -0.1653  0.1029  0.1536
 2171DOPG   GL247908   9.788   9.956  21.556 -0.0101 -0.0479 -0.1093
 2171DOPG   C1A47909   9.586  10.044  21.007 -0.0092 -0.5452 -0.1810
 2171DOPG   D2A47910   9.356  10.452  20.995 -0.0653 -0.3396  0.2302
 2171DOPG   C3A47911   9.439  10.687  20.597 -0.2951 -0.0749  0.0101
 2171DOPG   C4A47912   9.090  10.861  20.361 -0.1726  0.1203 -0.3346
 2171DOPG   C1B47913  10.039  10.113  21.119 -0.1446 -0.1141  0.0615
 2171DOPG   D2B47914  10.327  10.198  20.873 -0.1439 -0.1767 -0.0507
 2171DOPG   C3B47915  10.632  10.564  20.842 -0.0906 -0.0293  0.1747
 2171DOPG   C4B47916  10.620  11.027  20.897  0.1182 -0.1928 -0.0057
 2172DOPG   GL047917  21.587  17.464  22.706 -0.3146  0.0641 -0.3444
 2172DOPG   PO447918  21.931  17.449  22.270  0.0094  0.0434 -0.1495
 2172DOPG   GL147919  22.164  17.335  21.853 -0.2653  0.1432  0.1449
 2172DOPG   GL247920  22.147  16.974  21.849  0.0709 -0.0880  0.0945
 2172DOPG   C1A47921  22.320  17.355  21.379 -0.2711 -0.2614  0.3522
 2172DOPG   D2A47922  22.277  17.400  20.927  0.0890 -0.1448  0.0153
 2172DOPG   C3A47923  22.187  17.289  20.512  0.1886 -0.2827  0.2157
 2172DOPG   C4A47924  22.164  16.979  20.309 -0.2541 -0.2641  0.0019
 2172DOPG   C1B47925  21.755  17.082  21.646 -0.0991  0.2419 -0.3379
 2172DOPG   D2B47926  21.470  17.082  21.247 -0.2342 -0.0211 -0.0042
 2172DOPG   C3B47927  21.020  16.854  21.172 -0.1676 -0.1550  0.0557
 2172DOPG   C4B47928  20.704  16.624  21.031 -0.1936  0.0502  0.0546
 2173DOPG   GL047929   6.724  24.098  22.055 -0.0966  0.3330 -0.1724
 2173DOPG   PO447930   6.884  23.742  21.799 -0.0557  0.0086  0.3023
 2173DOPG   GL147931   7.097  23.409  21.859  0.3235  0.0054  0.0472
 2173DOPG   GL247932   7.375  23.281  22.076 -0.1613 -0.1643 -0.1754
 2173DOPG   C1A47933   7.295  23.310  21.503  0.0267 -0.2440  0.1883
 2173DOPG   D2A47934   7.702  23.014  21.598  0.1991  0.1547  0.4606
 2173DOPG   C3A47935   7.882  22.775  21.902  0.0117  0.0108 -0.2952
 2173DOPG   C4A47936   8.283  22.586  21.861 -0.1512  0.0651  0.0734
 2173DOPG   C1B47937   6.997  23.042  22.180 -0.0234 -0.1018  0.1502
 2173DOPG   D2B47938   6.599  23.219  21.999  0.1142  0.1888  0.2320
 2173DOPG   C3B47939   6.375  22.833  21.862 -0.0365 -0.2970  0.2948
 2173DOPG   C4B47940   5.911  22.730  22.030 -0.0533  0.1946 -0.0173
 2174DOPG   GL047941  19.251  14.507  23.395 -0.0925 -0.0620  0.1598
 2174DOPG   PO447942  18.919  14.211  23.329  0.0443  0.3092  0.0169
 2174DOPG   GL147943  18.994  14.310  22.836 -0.1994  0.0383  0.0444
 2174DOPG   GL247944  18.913  14.204  22.502 -0.0872  0.2519  0.1806
 2174DOPG   C1A47945  19.071  14.706  22.576  0.0908  0.2490  0.2740
 2174DOPG   D2A47946  18.896  15.113  22.689  0.2617 -0.0422 -0.0764
 2174DOPG   C3A47947  19.150  15.445  22.498  0.0099  0.2843  0.0979
 2174DOPG   C4A47948  19.111  15.859  22.259  0.3607  0.2418 -0.2552
 2174DOPG   C1B47949  19.040  13.920  22.225 -0.2094 -0.3052  0.2948
 2174DOPG   D2B47950  19.050  13.862  21.766 -0.1915 -0.0756 -0.2769
 2174DOPG   C3B47951  18.740  13.613  21.579 -0.0321 -0.1776  0.1216
 2174DOPG   C4B47952  18.564  13.330  21.341 -0.0503 -0.0613  0.0784
 2175DOPG   GL047953  24.906  14.577  21.621  0.1973  0.0316  0.1655
 2175DOPG   PO447954  24.475  14.832  21.531 -0.1200  0.0560  0.0974
 2175DOPG   GL147955  24.365  14.954  21.143  0.1270  0.0261  0.3403
 2175DOPG   GL247956  24.584  14.875  20.865  0.1628 -0.1788  0.0298
 2175DOPG   C1A47957  24.029  15.326  21.022  0.4809  0.1537  0.0064
 2175DOPG   D2A47958  23.891  15.614  20.658 -0.0041 -0.1896 -0.1347
 2175DOPG   C3A47959  24.164  15.860  20.430 -0.1914  0.0660 -0.0346
 2175DOPG   C4A47960  24.323  16.306  20.623  0.2563 -0.1710  0.0580
 2175DOPG   C1B47961  24.252  14.509  20.905 -0.2379 -0.1559  0.0888
 2175DOPG   D2B47962  23.960  14.377  20.599  0.0220  0.1566  0.0175
 2175DOPG   C3B47963  23.634  14.711  20.354  0.1137 -0.0730 -0.0419
 2175DOPG   C4B47964  23.301  15.038  20.282  0.0040  0.2117 -0.1630
 2176DOPG   GL047965  11.902  18.749  23.355 -0.0396 -0.1528 -0.1138
 2176DOPG   PO447966  12.274  18.546  23.394  0.1578  0.2306  0.2285
 2176DOPG   GL147967  12.421  18.598  22.930 -0.1783 -0.1900 -0.0571
 2176DOPG   GL247968  12.356  18.901  22.798 -0.1724 -0.0817 -0.1433
 2176DOPG   C1A47969  12.672  18.343  22.713  0.2330  0.1174 -0.2433
 2176DOPG   D2A47970  12.704  17.987  22.424  0.1253  0.1894 -0.0489
 2176DOPG   C3A47971  13.160  17.950  22.283 -0.0733 -0.3062  0.0075
 2176DOPG   C4A47972  13.353  18.004  21.869 -0.1826  0.4541 -0.0485
 2176DOPG   C1B47973  12.142  19.084  22.415 -0.2961  0.0057 -0.0321
 2176DOPG   D2B47974  12.290  19.185  21.961  0.0654 -0.2300  0.2591
 2176DOPG   C3B47975  12.460  18.850  21.717  0.1156  0.1758  0.3845
 2176DOPG   C4B47976  12.592  18.353  21.619  0.1822  0.0315 -0.0219
 2177DOPG   GL047977  17.068  18.844  23.267  0.1240 -0.0457 -0.0930
 2177DOPG   PO447978  17.450  18.637  23.383 -0.2134  0.0135 -0.0397
 2177DOPG   GL147979  17.305  18.353  23.209 -0.0637  0.0126 -0.2757
 2177DOPG   GL247980  17.296  18.573  22.924  0.0254 -0.1997  0.0042
 2177DOPG   C1A47981  17.030  18.098  23.022  0.0161  0.2809 -0.0089
 2177DOPG   D2A47982  17.037  17.614  22.837 -0.0013  0.1431 -0.0169
 2177DOPG   C3A47983  17.378  17.568  22.614 -0.0383  0.0368 -0.0703
 2177DOPG   C4A47984  17.753  17.512  22.716 -0.0635  0.0067 -0.0016
 2177DOPG   C1B47985  17.310  18.861  22.636  0.2310  0.2384 -0.1806
 2177DOPG   D2B47986  17.540  19.134  22.591 -0.1878  0.0049  0.1604
 2177DOPG   C3B47987  18.009  19.221  22.447 -0.1185  0.1988 -0.1327
 2177DOPG   C4B47988  18.273  19.477  22.106  0.1856 -0.0869 -0.0632
 2178DOPG   GL047989  19.751  10.234  19.979 -0.1639  0.0867 -0.1929
 2178DOPG   PO447990  19.327  10.263  20.075  0.2447 -0.3157  0.0458
 2178DOPG   GL147991  19.147  10.709  19.993  0.0538  0.0233 -0.2398
 2178DOPG   GL247992  18.907  10.966  20.129 -0.1536  0.0024  0.1380
 2178DOPG   C1A47993  19.148  10.981  19.538 -0.1564 -0.0353  0.2471
 2178DOPG   D2A47994  19.018  10.788  19.149 -0.0534 -0.0468 -0.0700
 2178DOPG   C3A47995  18.707  10.470  19.161 -0.0519  0.1312  0.1206
 2178DOPG   C4A47996  18.309  10.181  19.150 -0.0981 -0.0721  0.0856
 2178DOPG   C1B47997  18.742  11.364  19.848 -0.0761 -0.1494 -0.1414
 2178DOPG   D2B47998  18.462  11.467  19.571  0.0667 -0.1170  0.0807
 2178DOPG   C3B47999  18.422  11.527  19.100  0.2984 -0.1327 -0.0129
 2178DOPG   C4B48000  18.583  11.743  18.750  0.1798  0.2793  0.0572
 2179DOPG   GL048001   8.451   8.665  19.960  0.1075  0.0638 -0.2013
 2179DOPG   PO448002   8.765   8.286  20.003  0.1543  0.2413  0.0137
 2179DOPG   GL148003   9.209   8.350  20.045 -0.0242 -0.0181  0.1358
 2179DOPG   GL248004   9.250   8.493  19.833 -0.1460 -0.0224 -0.0650
 2179DOPG   C1A48005   9.702   8.459  20.159  0.2787 -0.1022  0.2985
 2179DOPG   D2A48006   9.860   8.805  20.289 -0.3302 -0.0425 -0.0253
 2179DOPG   C3A48007   9.808   9.271  20.385 -0.0301  0.1326 -0.2080
 2179DOPG   C4A48008   9.748   9.651  20.035  0.0542  0.0242  0.2192
 2179DOPG   C1B48009   9.403   8.882  20.054  0.0573  0.1934  0.1877
 2179DOPG   D2B48010   9.296   9.205  20.357 -0.0324  0.2245 -0.0811
 2179DOPG   C3B48011   9.425   9.588  20.399 -0.1741  0.1179  0.1524
 2179DOPG   C4B48012   9.453   9.932  20.508  0.0290  0.0999 -0.0113
 2180DOPG   GL048013  11.835  19.274  22.764 -0.0468  0.2260  0.1641
 2180DOPG   PO448014  11.806  19.766  22.868  0.2019  0.3684  0.3635
 2180DOPG   GL148015  11.816  19.904  22.392  0.0814  0.2607 -0.3191
 2180DOPG   GL248016  11.988  20.205  22.294  0.0143 -0.1331  0.2813
 2180DOPG   C1A48017  11.709  19.588  22.097 -0.4606  0.1608  0.0652
 2180DOPG   D2A48018  11.904  19.447  21.850  0.0123 -0.1242 -0.3380
 2180DOPG   C3A48019  11.939  19.051  21.607 -0.0847  0.2364 -0.4203
 2180DOPG   C4A48020  12.072  18.608  21.417  0.0942  0.1661  0.5615
 2180DOPG   C1B48021  12.051  19.901  21.901  0.0367 -0.1686  0.0131
 2180DOPG   D2B48022  12.342  19.709  21.667 -0.0594  0.2516 -0.1735
 2180DOPG   C3B48023  12.548  19.796  21.277 -0.0750 -0.0448 -0.1789
 2180DOPG   C4B48024  12.654  20.256  20.992  0.1764 -0.1842 -0.0609
 2181DOPG   GL048025   8.878  24.617  17.340  0.0127  0.0601 -0.1472
 2181DOPG   PO448026   9.287  24.908  17.417  0.1921  0.0368 -0.1822
 2181DOPG   GL148027   9.534  24.600  17.521 -0.2526  0.0471  0.1471
 2181DOPG   GL248028   9.750  24.752  17.370  0.1605 -0.4440 -0.1135
 2181DOPG   C1A48029   9.695  24.180  17.508  0.0677 -0.1671  0.2637
 2181DOPG   D2A48030   9.919  23.826  17.329 -0.1372 -0.3172  0.0627
 2181DOPG   C3A48031  10.299  23.880  17.046 -0.0660 -0.2004 -0.0081
 2181DOPG   C4A48032  10.538  24.107  17.235 -0.5157 -0.0020  0.1380
 2181DOPG   C1B48033  10.201  24.817  17.275 -0.2230 -0.0439 -0.0524
 2181DOPG   D2B48034  10.597  24.628  17.222  0.0943  0.2840 -0.1847
 2181DOPG   C3B48035  10.532  24.400  16.840  0.2376  0.0405 -0.3327
 2181DOPG   C4B48036  10.654  24.097  16.760  0.1432  0.0647  0.1240
 2182DOPG   GL048037   9.690  21.583  21.366 -0.0492  0.0174  0.1293
 2182DOPG   PO448038   9.576  21.582  20.959 -0.1112  0.0727 -0.1172
 2182DOPG   GL148039   9.341  21.427  20.682 -0.0577  0.1884 -0.0420
 2182DOPG   GL248040   9.043  21.621  20.759 -0.1592 -0.3273 -0.2301
 2182DOPG   C1A48041   9.110  21.307  20.221 -0.0307  0.0608  0.0614
 2182DOPG   D2A48042   8.806  21.419  19.808 -0.1838  0.3580  0.2712
 2182DOPG   C3A48043   8.710  20.980  19.551 -0.0227 -0.1213  0.2861
 2182DOPG   C4A48044   8.867  20.749  19.301  0.0336 -0.0363  0.0336
 2182DOPG   C1B48045   8.708  21.636  20.336 -0.3935  0.1251 -0.1834
 2182DOPG   D2B48046   8.407  21.346  20.151  0.3528 -0.2814 -0.1987
 2182DOPG   C3B48047   8.619  20.988  20.097 -0.4536  0.0793 -0.2420
 2182DOPG   C4B48048   8.782  20.668  19.932 -0.1556  0.0509  0.0003
 2183DOPG   GL048049  26.483  22.194  17.399  0.1804 -0.0766 -0.2354
 2183DOPG   PO448050  26.670  21.998  17.736  0.2660  0.1669 -0.1077
 2183DOPG   GL148051  26.359  21.756  17.619 -0.1481 -0.2827 -0.1195
 2183DOPG   GL248052  26.508  21.474  17.761  0.1519  0.3158 -0.3626
 2183DOPG   C1A48053  25.987  21.453  17.839 -0.0394 -0.1194 -0.1633
 2183DOPG   D2A48054  25.503  21.181  17.918 -0.2966  0.1777 -0.2338
 2183DOPG   C3A48055  25.439  20.799  18.183  0.4280 -0.0484  0.0473
 2183DOPG   C4A48056  25.372  20.509  18.452  0.1805  0.0771  0.3822
 2183DOPG   C1B48057  26.460  21.474  18.260  0.1880  0.2958 -0.1758
 2183DOPG   D2B48058  26.742  21.157  18.517 -0.1299 -0.1904  0.3177
 2183DOPG   C3B48059  26.612  20.764  18.744 -0.2205  0.2873 -0.0597
 2183DOPG   C4B48060  26.344  20.531  18.886  0.2800 -0.1981 -0.0662
 2184DOPG   GL048061  21.534  19.152  21.779  0.0914 -0.2198 -0.5743
 2184DOPG   PO448062  21.750  19.413  21.398  0.0185 -0.2512 -0.1475
 2184DOPG   GL148063  21.776  19.239  20.999 -0.2209 -0.0143 -0.0165
 2184DOPG   GL248064  21.629  19.398  20.820 -0.0503  0.0194  0.1145
 2184DOPG   C1A48065  21.857  18.978  20.727  0.1700 -0.1078 -0.2748
 2184DOPG   D2A48066  22.074  18.745  20.416 -0.1802  0.1406  0.1021
 2184DOPG   C3A48067  22.398  18.942  20.122  0.2707 -0.0446 -0.1815
 2184DOPG   C4A48068  22.799  18.891  20.028 -0.2146  0.0087 -0.1007
 2184DOPG   C1B48069  21.611  19.321  20.472  0.0591  0.0793  0.1326
 2184DOPG   D2B48070  21.465  19.075  20.089  0.0811  0.0682 -0.1592
 2184DOPG   C3B48071  21.090  18.778  20.061  0.1072  0.0093 -0.0127
 2184DOPG   C4B48072  20.669  18.534  19.862  0.1072  0.1179  0.2364
 2185DOPG   GL048073   7.747  11.627  21.235 -0.0407 -0.4114  0.1176
 2185DOPG   PO448074   7.638  11.392  20.855  0.0854  0.0095 -0.1607
 2185DOPG   GL148075   7.825  11.771  20.721 -0.3057  0.0088  0.0729
 2185DOPG   GL248076   8.022  11.696  20.768  0.0559 -0.0124 -0.0458
 2185DOPG   C1A48077   7.520  11.961  20.353  0.1242  0.2290  0.0477
 2185DOPG   D2A48078   7.474  12.041  20.013 -0.0148  0.2207 -0.2541
 2185DOPG   C3A48079   7.725  12.323  20.013  0.0757  0.0814 -0.1499
 2185DOPG   C4A48080   7.654  12.700  19.691  0.1085 -0.4740  0.1657
 2185DOPG   C1B48081   8.426  11.611  20.559  0.1280  0.3162  0.0023
 2185DOPG   D2B48082   8.676  11.317  20.461  0.0084  0.2275 -0.0531
 2185DOPG   C3B48083   9.043  11.449  20.208 -0.2078  0.1143  0.1111
 2185DOPG   C4B48084   9.473  11.662  20.341  0.0083 -0.0601 -0.0853
 2186DOPG   GL048085  16.716  16.568  23.614 -0.4918  0.1715 -0.0684
 2186DOPG   PO448086  16.601  16.926  23.896  0.5203  0.3316 -0.1560
 2186DOPG   GL148087  16.574  17.088  23.642 -0.0958 -0.2954 -0.0265
 2186DOPG   GL248088  16.608  17.467  23.399  0.2446  0.2251 -0.1554
 2186DOPG   C1A48089  16.510  16.950  23.229 -0.1208 -0.0373 -0.1003
 2186DOPG   D2A48090  16.347  16.779  22.857  0.2483 -0.0477  0.1570
 2186DOPG   C3A48091  16.566  16.833  22.455 -0.1414  0.3966 -0.2530
 2186DOPG   C4A48092  16.765  16.831  22.061  0.2184 -0.1668  0.0833
 2186DOPG   C1B48093  16.606  17.811  23.038 -0.0810 -0.0261  0.1533
 2186DOPG   D2B48094  16.570  18.258  23.198  0.1509 -0.1119  0.0641
 2186DOPG   C3B48095  16.347  18.559  22.799  0.2858 -0.1290  0.4354
 2186DOPG   C4B48096  15.978  18.361  22.739 -0.2086 -0.4170 -0.3314
 2187DOPG   GL048097  20.554  16.571  22.418  0.1364 -0.2721 -0.1183
 2187DOPG   PO448098  20.699  17.017  22.579 -0.4763  0.1417 -0.2207
 2187DOPG   GL148099  20.576  17.030  22.186 -0.2551 -0.0816  0.0524
 2187DOPG   GL248100  20.908  17.005  22.075 -0.1228  0.1769  0.0973
 2187DOPG   C1A48101  20.226  17.303  22.005  0.2143 -0.0752  0.2073
 2187DOPG   D2A48102  20.291  17.752  22.030  0.1135 -0.0753  0.0108
 2187DOPG   C3A48103  19.987  18.027  21.852  0.1399  0.1885  0.0342
 2187DOPG   C4A48104  19.971  18.542  21.601 -0.1417  0.2624 -0.1501
 2187DOPG   C1B48105  20.646  16.680  21.845  0.0259 -0.0055  0.0339
 2187DOPG   D2B48106  20.438  16.422  21.514 -0.0582  0.0592 -0.0237
 2187DOPG   C3B48107  20.168  16.627  21.263  0.1816 -0.1872 -0.1008
 2187DOPG   C4B48108  19.970  17.058  21.255  0.0923 -0.1077  0.3753
 2188DOPG   GL048109   9.270  14.046  22.270 -0.2682 -0.0367  0.3192
 2188DOPG   PO448110   9.621  14.084  22.632 -0.1090  0.3752 -0.1295
 2188DOPG   GL148111   9.840  13.759  22.278  0.0617 -0.0500 -0.0208
 2188DOPG   GL248112   9.709  14.031  22.007  0.2880  0.2014 -0.1186
 2188DOPG   C1A48113  10.090  13.421  22.083 -0.0175  0.0572 -0.0121
 2188DOPG   D2A48114  10.398  13.293  21.858 -0.4937  0.2751 -0.0817
 2188DOPG   C3A48115  10.618  13.582  21.799 -0.1887  0.3897 -0.1670
 2188DOPG   C4A48116  10.682  13.862  21.467 -0.1501  0.2723 -0.1415
 2188DOPG   C1B48117   9.861  14.204  21.660 -0.3368  0.1005 -0.0904
 2188DOPG   D2B48118  10.277  14.254  21.304 -0.1295  0.1152  0.1069
 2188DOPG   C3B48119  10.393  14.734  21.450 -0.0556 -0.1830 -0.0639
 2188DOPG   C4B48120  10.613  15.172  21.347 -0.0517 -0.2603 -0.3506
 2189DOPG   GL048121  14.656  19.300  23.469  0.0507  0.0630 -0.2409
 2189DOPG   PO448122  14.793  19.738  23.521 -0.0566 -0.1069 -0.3517
 2189DOPG   GL148123  14.929  19.818  23.097  0.1408  0.1128 -0.3383
 2189DOPG   GL248124  14.961  19.595  22.911  0.2141 -0.0208 -0.2837
 2189DOPG   C1A48125  14.763  19.976  22.643  0.0341  0.1591  0.0362
 2189DOPG   D2A48126  14.550  19.652  22.432  0.1286  0.0501 -0.1860
 2189DOPG   C3A48127  14.660  19.317  22.110 -0.2296 -0.1992 -0.0113
 2189DOPG   C4A48128  14.814  18.948  21.889 -0.3261  0.0646 -0.0858
 2189DOPG   C1B48129  14.500  19.451  22.884  0.0360  0.1460  0.0359
 2189DOPG   D2B48130  14.178  19.355  22.626  0.0911 -0.4474 -0.1372
 2189DOPG   C3B48131  14.083  19.376  22.224  0.3259  0.0541  0.1093
 2189DOPG   C4B48132  13.918  19.509  21.838 -0.0603 -0.0981  0.1107
 2190DOPG   GL048133  16.032  25.316  18.466 -0.2099  0.1627 -0.3751
 2190DOPG   PO448134  15.684  25.000  18.512 -0.3395  0.0670  0.0720
 2190DOPG   GL148135  15.628  24.571  18.389 -0.2829  0.2526 -0.1510
 2190DOPG   GL248136  15.434  24.562  18.112  0.1683 -0.0454  0.1465
 2190DOPG   C1A48137  15.782  24.143  18.535  0.2316 -0.1098 -0.1239
 2190DOPG   D2A48138  15.956  23.735  18.427  0.0694 -0.1130  0.0276
 2190DOPG   C3A48139  16.269  23.589  18.240 -0.1283 -0.0762 -0.1452
 2190DOPG   C4A48140  16.442  23.205  18.182 -0.0304  0.0855  0.2590
 2190DOPG   C1B48141  15.576  24.083  18.106  0.1382 -0.1835  0.0307
 2190DOPG   D2B48142  15.628  23.719  18.046 -0.0708  0.0641  0.0541
 2190DOPG   C3B48143  15.595  23.338  18.296 -0.0112 -0.0197  0.1721
 2190DOPG   C4B48144  15.545  22.947  18.441  0.0624  0.2156 -0.1770
 2191DOPG   GL048145  25.005  12.978  19.570 -0.0127  0.1242  0.0914
 2191DOPG   PO448146  24.981  13.417  19.224 -0.1633  0.0585 -0.0140
 2191DOPG   GL148147  25.164  13.702  18.915 -0.2343 -0.0783  0.0659
 2191DOPG   GL248148  25.523  13.779  18.953  0.2122  0.0970 -0.1899
 2191DOPG   C1A48149  24.841  13.712  18.645  0.0435 -0.0475  0.1857
 2191DOPG   D2A48150  24.773  13.713  18.217  0.2530 -0.1522  0.1483
 2191DOPG   C3A48151  24.423  13.907  18.043 -0.0657 -0.4230 -0.3169
 2191DOPG   C4A48152  24.146  14.215  18.145  0.1265  0.3399  0.0287
 2191DOPG   C1B48153  25.413  14.108  18.659  0.1620 -0.1789 -0.0777
 2191DOPG   D2B48154  25.167  14.085  18.316 -0.1324 -0.1306 -0.0632
 2191DOPG   C3B48155  24.738  14.214  18.277 -0.2671  0.2205 -0.0689
 2191DOPG   C4B48156  24.447  14.519  18.497  0.0380  0.4223  0.3985
 2192DOPG   GL048157  12.848  20.935  23.012  0.0300 -0.0769  0.0190
 2192DOPG   PO448158  12.738  21.262  22.750 -0.2263 -0.0503 -0.1058
 2192DOPG   GL148159  13.028  21.243  22.300  0.2026  0.2542  0.0399
 2192DOPG   GL248160  13.280  21.327  22.053 -0.0073  0.0126  0.3663
 2192DOPG   C1A48161  12.773  21.135  21.968 -0.0282  0.0219 -0.2785
 2192DOPG   D2A48162  12.726  20.744  21.783  0.1033  0.1102 -0.1358
 2192DOPG   C3A48163  13.094  20.509  21.615  0.0451 -0.1658  0.0323
 2192DOPG   C4A48164  13.084  20.141  21.253  0.2189  0.1507  0.0372
 2192DOPG   C1B48165  13.227  21.215  21.732 -0.1583 -0.0211 -0.3730
 2192DOPG   D2B48166  13.015  20.938  21.445  0.2389 -0.0219  0.0730
 2192DOPG   C3B48167  12.986  21.024  21.007  0.1000 -0.0443  0.1042
 2192DOPG   C4B48168  13.047  20.971  20.500 -0.1412 -0.1010 -0.1311
 2193DOPG   GL048169   8.747  12.908  21.560 -0.0564  0.1006 -0.0130
 2193DOPG   PO448170   8.582  12.492  21.640 -0.3124  0.0296 -0.0273
 2193DOPG   GL148171   8.770  12.316  21.225  0.2735 -0.2075  0.0898
 2193DOPG   GL248172   8.734  12.511  21.066 -0.2984  0.1241  0.2951
 2193DOPG   C1A48173   9.212  12.140  21.164 -0.1033  0.2832 -0.1050
 2193DOPG   D2A48174   9.387  11.893  20.939 -0.0288  0.1386  0.1244
 2193DOPG   C3A48175   9.678  12.065  20.672 -0.1005  0.1212 -0.2296
 2193DOPG   C4A48176  10.070  12.270  20.885  0.2676  0.1849 -0.0064
 2193DOPG   C1B48177   8.659  12.744  20.657  0.1575  0.1045 -0.0621
 2193DOPG   D2B48178   9.157  12.840  20.468  0.1594 -0.1210 -0.0669
 2193DOPG   C3B48179   9.324  13.249  20.374  0.1441 -0.2417  0.1491
 2193DOPG   C4B48180   9.079  13.637  20.312  0.0174 -0.1106  0.0387
 2194DOPG   GL048181  17.776  11.057  21.310 -0.2621  0.3587 -0.0472
 2194DOPG   PO448182  17.793  11.196  21.780  0.0297 -0.3444  0.2883
 2194DOPG   GL148183  17.622  11.491  21.528  0.2687 -0.2841  0.0521
 2194DOPG   GL248184  17.706  11.778  21.650 -0.0722  0.0977 -0.0479
 2194DOPG   C1A48185  17.271  11.612  21.364 -0.2900  0.1100 -0.1000
 2194DOPG   D2A48186  16.952  11.524  21.024  0.2470 -0.5258  0.2199
 2194DOPG   C3A48187  17.138  11.314  20.620  0.0095  0.1256  0.2210
 2194DOPG   C4A48188  17.059  11.115  20.221  0.0697  0.2504 -0.0354
 2194DOPG   C1B48189  17.545  12.023  21.385 -0.0447  0.1133  0.0299
 2194DOPG   D2B48190  17.709  12.126  20.951  0.2920 -0.1402 -0.1172
 2194DOPG   C3B48191  17.917  12.424  20.872  0.0748  0.0225  0.0320
 2194DOPG   C4B48192  17.949  12.797  20.882 -0.0339  0.1245 -0.2803
 2195DOPG   GL048193   9.091  10.445  22.089 -0.1884  0.2121 -0.1614
 2195DOPG   PO448194   9.299  10.645  22.183  0.2696 -0.1865  0.0865
 2195DOPG   GL148195   9.226  10.901  21.844 -0.0654  0.0138 -0.0507
 2195DOPG   GL248196   9.173  10.696  21.645  0.1867 -0.0868  0.1682
 2195DOPG   C1A48197   9.470  11.256  21.611  0.2783  0.2327 -0.0710
 2195DOPG   D2A48198   9.741  11.338  21.252  0.2288 -0.0187 -0.0382
 2195DOPG   C3A48199   9.648  11.473  20.811  0.0363 -0.1201 -0.1018
 2195DOPG   C4A48200   9.961  11.661  20.490 -0.1028  0.0222  0.0883
 2195DOPG   C1B48201   9.328  10.933  21.299  0.2417  0.1469  0.0338
 2195DOPG   D2B48202   9.574  10.874  21.086  0.0769 -0.0238 -0.2765
 2195DOPG   C3B48203   9.690  10.502  21.302 -0.0470  0.0019 -0.3240
 2195DOPG   C4B48204   9.736  10.788  21.674  0.0952  0.2758  0.2452
 2196DOPG   GL048205  11.590  25.476  18.535  0.0411 -0.1271  0.2371
 2196DOPG   PO448206  11.930  25.371  18.849  0.2727 -0.0120 -0.1153
 2196DOPG   GL148207  11.966  25.005  18.516  0.3224  0.3292  0.1210
 2196DOPG   GL248208  11.612  24.908  18.365  0.2324 -0.1409  0.1667
 2196DOPG   C1A48209  11.935  24.532  18.514 -0.1674  0.5556  0.0883
 2196DOPG   D2A48210  12.163  24.125  18.573 -0.1050 -0.4303 -0.1475
 2196DOPG   C3A48211  12.343  23.922  18.267  0.1314 -0.0270 -0.0837
 2196DOPG   C4A48212  12.476  23.669  17.873 -0.0605 -0.0442  0.1656
 2196DOPG   C1B48213  11.539  24.606  18.100 -0.3028  0.2332 -0.0399
 2196DOPG   D2B48214  11.511  24.201  17.797  0.0784 -0.0615 -0.1876
 2196DOPG   C3B48215  11.142  23.962  17.725  0.2613  0.1264 -0.0309
 2196DOPG   C4B48216  10.738  23.983  17.753 -0.0076  0.0599 -0.2070
 2197DOPG   GL048217  15.456  12.662  23.723 -0.1985  0.1476 -0.2386
 2197DOPG   PO448218  15.179  12.958  23.443 -0.1560 -0.2440 -0.1253
 2197DOPG   GL148219  15.198  13.159  23.080  0.0798 -0.0271 -0.3925
 2197DOPG   GL248220  15.546  13.115  22.902  0.1543  0.2772  0.2384
 2197DOPG   C1A48221  14.976  13.330  22.807  0.3533  0.0997 -0.4152
 2197DOPG   D2A48222  15.084  13.215  22.274  0.1347 -0.0778 -0.0408
 2197DOPG   C3A48223  14.924  12.918  21.978 -0.0823  0.2430  0.0187
 2197DOPG   C4A48224  14.708  13.174  21.679 -0.0457  0.0350  0.0006
 2197DOPG   C1B48225  15.575  13.295  22.517  0.5362  0.0604 -0.2421
 2197DOPG   D2B48226  15.481  13.455  22.111  0.0946  0.1409 -0.0221
 2197DOPG   C3B48227  15.178  13.302  21.764 -0.0314  0.2560  0.2906
 2197DOPG   C4B48228  15.109  12.917  21.514 -0.1628  0.0420 -0.1571
 2198DOPG   GL048229   7.075  15.232  20.965 -0.0059 -0.1563  0.0363
 2198DOPG   PO448230   7.490  15.051  20.923  0.1999  0.1326 -0.1317
 2198DOPG   GL148231   7.406  15.188  20.532 -0.2363 -0.1500 -0.2589
 2198DOPG   GL248232   7.484  15.444  20.417 -0.1241 -0.3060  0.3634
 2198DOPG   C1A48233   7.301  14.988  20.113 -0.0686 -0.1994  0.1187
 2198DOPG   D2A48234   7.121  14.948  19.661 -0.1316 -0.1606  0.0085
 2198DOPG   C3A48235   7.126  14.685  19.287  0.1898 -0.0119  0.0228
 2198DOPG   C4A48236   6.927  14.398  18.917 -0.0568  0.0266 -0.0700
 2198DOPG   C1B48237   7.779  15.583  20.161 -0.2151 -0.2920 -0.1629
 2198DOPG   D2B48238   8.135  15.346  20.067 -0.0718  0.2217 -0.3726
 2198DOPG   C3B48239   7.968  15.088  20.301 -0.0402 -0.2437 -0.0914
 2198DOPG   C4B48240   7.725  14.783  20.371 -0.0453  0.2831  0.0427
 2199DOPG   GL048241   8.296  24.001  20.048 -0.0703  0.3228 -0.1124
 2199DOPG   PO448242   8.350  23.660  19.935  0.0412  0.3898 -0.2136
 2199DOPG   GL148243   8.697  23.581  19.672 -0.0104  0.4238 -0.0359
 2199DOPG   GL248244   8.815  23.391  19.895 -0.2215 -0.1281 -0.0473
 2199DOPG   C1A48245   9.193  23.524  19.647 -0.0742  0.1614 -0.0320
 2199DOPG   D2A48246   9.613  23.562  19.454 -0.1247 -0.1657  0.1619
 2199DOPG   C3A48247   9.801  23.221  19.259 -0.0058  0.1141 -0.0782
 2199DOPG   C4A48248   9.845  22.828  19.170  0.1805 -0.2483 -0.2846
 2199DOPG   C1B48249   8.541  22.964  19.764  0.0519 -0.0866 -0.1979
 2199DOPG   D2B48250   8.581  22.607  19.560 -0.0218  0.2270 -0.0277
 2199DOPG   C3B48251   8.353  22.245  19.725 -0.1402 -0.0929  0.0539
 2199DOPG   C4B48252   7.966  22.062  19.930  0.0402 -0.1962 -0.0351
 2200DOPG   GL048253  19.874  10.655  20.807 -0.2291  0.1355 -0.1129
 2200DOPG   PO448254  19.557  10.572  20.518  0.1972 -0.1586  0.0092
 2200DOPG   GL148255  19.831  11.014  20.330 -0.0901 -0.3476 -0.0459
 2200DOPG   GL248256  19.527  11.170  20.146 -0.0489  0.2085  0.0068
 2200DOPG   C1A48257  19.864  11.488  20.398  0.6300  0.0548  0.0037
 2200DOPG   D2A48258  20.024  11.872  20.519  0.1744  0.3474  0.0330
 2200DOPG   C3A48259  20.176  12.129  20.296 -0.4897  0.1040  0.3907
 2200DOPG   C4A48260  20.472  12.456  20.297 -0.1265 -0.1643  0.1386
 2200DOPG   C1B48261  19.147  11.471  20.096  0.4128  0.0381 -0.0782
 2200DOPG   D2B48262  18.757  11.787  20.235  0.2922 -0.2917  0.0051
 2200DOPG   C3B48263  18.439  11.757  19.972 -0.1185 -0.4005  0.0773
 2200DOPG   C4B48264  18.104  11.856  19.701  0.0432  0.2355  0.1549
 2201DOPG   GL048265  13.615   7.197  19.706  0.0825  0.1224  0.0112
 2201DOPG   PO448266  13.456   7.570  19.960  0.1261  0.3642  0.2286
 2201DOPG   GL148267  13.593   7.864  19.773 -0.2284 -0.2744  0.0054
 2201DOPG   GL248268  13.845   7.892  20.038  0.1967  0.0377  0.1439
 2201DOPG   C1A48269  13.544   8.142  19.378 -0.1239  0.2000 -0.0250
 2201DOPG   D2A48270  13.116   8.296  19.156 -0.1230 -0.1581 -0.1038
 2201DOPG   C3A48271  13.187   8.680  18.753  0.2996 -0.1090 -0.2898
 2201DOPG   C4A48272  13.260   9.147  18.852  0.3123  0.1791 -0.3350
 2201DOPG   C1B48273  13.533   8.248  20.077 -0.1928 -0.0941 -0.4785
 2201DOPG   D2B48274  13.273   8.506  19.726  0.0048  0.2312 -0.1860
 2201DOPG   C3B48275  13.156   8.900  19.663  0.0456  0.1571 -0.1705
 2201DOPG   C4B48276  13.274   9.300  19.739 -0.0945 -0.1373 -0.2032
 2202DOPG   GL048277  21.687  23.291  19.328  0.0792 -0.1235  0.0139
 2202DOPG   PO448278  22.136  23.335  19.516 -0.0539  0.0531  0.1292
 2202DOPG   GL148279  22.162  23.014  19.155 -0.2107  0.1811  0.1489
 2202DOPG   GL248280  22.345  23.161  18.904  0.1679  0.0673  0.2716
 2202DOPG   C1A48281  22.049  22.605  18.861 -0.4857  0.1718  0.0972
 2202DOPG   D2A48282  22.144  22.279  18.736 -0.2750  0.1837 -0.2095
 2202DOPG   C3A48283  22.198  21.909  19.042 -0.1508 -0.3949 -0.0581
 2202DOPG   C4A48284  22.457  21.635  19.159  0.2505  0.0050  0.1774
 2202DOPG   C1B48285  21.951  23.072  18.700 -0.3611 -0.2167 -0.1713
 2202DOPG   D2B48286  21.566  22.965  18.902 -0.0858 -0.4456 -0.1545
 2202DOPG   C3B48287  21.733  22.786  19.269  0.2420  0.2960 -0.2644
 2202DOPG   C4B48288  21.679  22.849  19.676  0.1477  0.1812  0.2031
 2203DOPG   GL048289  10.812  10.943  23.005  0.0565  0.5089 -0.0904
 2203DOPG   PO448290  11.076  10.779  22.711 -0.2617  0.0605 -0.0841
 2203DOPG   GL148291  11.240  10.849  22.424  0.3665  0.1625  0.1485
 2203DOPG   GL248292  11.233  11.199  22.224  0.0873 -0.0746  0.3387
 2203DOPG   C1A48293  11.167  10.776  21.960 -0.2469  0.0391  0.0862
 2203DOPG   D2A48294  10.987  10.922  21.552  0.2787  0.2042 -0.0168
 2203DOPG   C3A48295  11.152  11.200  21.246  0.0987 -0.0532  0.3224
 2203DOPG   C4A48296  10.854  11.472  20.875 -0.0393 -0.0578  0.0687
 2203DOPG   C1B48297  11.500  11.570  22.240  0.2284 -0.1082 -0.0991
 2203DOPG   D2B48298  11.683  11.875  21.941  0.0767  0.0551  0.1087
 2203DOPG   C3B48299  11.596  12.304  21.744 -0.3012  0.1786  0.1551
 2203DOPG   C4B48300  11.593  12.788  21.711  0.2054 -0.0753 -0.1028
 2204DOPG   GL048301  12.974  13.568  23.435  0.1658 -0.0651  0.2594
 2204DOPG   PO448302  13.337  13.733  23.747  0.1006  0.1365 -0.2327
 2204DOPG   GL148303  13.559  13.896  23.376  0.1127  0.1751 -0.1154
 2204DOPG   GL248304  13.665  13.746  23.028 -0.1268 -0.2284  0.0482
 2204DOPG   C1A48305  13.965  14.145  23.224  0.2694  0.0065  0.0754
 2204DOPG   D2A48306  14.436  14.173  23.232 -0.2875  0.1223  0.4900
 2204DOPG   C3A48307  14.637  14.094  22.822  0.1898 -0.3570  0.0834
 2204DOPG   C4A48308  14.646  13.729  22.483 -0.1889  0.0536  0.0138
 2204DOPG   C1B48309  13.644  14.143  22.806 -0.0780  0.0460 -0.2966
 2204DOPG   D2B48310  13.477  14.248  22.402  0.0850 -0.1213  0.3184
 2204DOPG   C3B48311  13.195  14.353  22.019 -0.1049 -0.1155  0.0631
 2204DOPG   C4B48312  12.810  14.056  22.057  0.0393  0.1409 -0.1010
 2205DOPG   GL048313  14.016   6.602  17.989  0.1446 -0.2096 -0.0030
 2205DOPG   PO448314  13.722   6.591  18.319 -0.0646 -0.2360  0.4368
 2205DOPG   GL148315  13.800   6.992  18.428 -0.1901 -0.3493 -0.1041
 2205DOPG   GL248316  13.648   7.038  18.139  0.0468  0.1120 -0.0419
 2205DOPG   C1A48317  13.917   7.289  18.842  0.2938  0.0832  0.1576
 2205DOPG   D2A48318  14.033   7.683  18.887  0.2587 -0.0617 -0.1702
 2205DOPG   C3A48319  13.957   8.066  19.148 -0.3804  0.1871 -0.0167
 2205DOPG   C4A48320  14.207   8.376  19.329  0.0621  0.0315  0.2082
 2205DOPG   C1B48321  13.990   7.343  18.054 -0.2106 -0.1354 -0.1580
 2205DOPG   D2B48322  14.109   7.512  18.444 -0.0143  0.1236 -0.0687
 2205DOPG   C3B48323  14.451   7.442  18.802 -0.0795  0.0900 -0.0199
 2205DOPG   C4B48324  14.751   7.734  19.066  0.1124 -0.4909 -0.1999
 2206DOPG   GL048325   7.938  15.391  20.637  0.1690  0.1760 -0.0943
 2206DOPG   PO448326   7.884  15.320  21.004  0.0825 -0.0504 -0.0853
 2206DOPG   GL148327   8.240  15.498  21.006 -0.3540 -0.2737  0.1576
 2206DOPG   GL248328   8.466  15.455  21.307 -0.0663 -0.3206 -0.1739
 2206DOPG   C1A48329   8.456  15.800  20.812  0.1496  0.1395  0.1642
 2206DOPG   D2A48330   8.478  16.328  20.867  0.1013  0.3891  0.1807
 2206DOPG   C3A48331   8.783  16.596  20.731  0.3347  0.0921 -0.2439
 2206DOPG   C4A48332   8.868  16.926  20.387 -0.1173 -0.2887  0.1489
 2206DOPG   C1B48333   8.738  15.515  21.107 -0.0412  0.1695 -0.0871
 2206DOPG   D2B48334   9.125  15.791  21.284 -0.0016 -0.1082 -0.0687
 2206DOPG   C3B48335   9.459  15.924  21.028 -0.0395 -0.0605 -0.0400
 2206DOPG   C4B48336   9.499  15.868  20.546  0.1611 -0.1356 -0.0179
 2207DOPG   GL048337   6.401  23.689  23.131 -0.3099  0.1808 -0.3446
 2207DOPG   PO448338   6.156  23.391  23.333 -0.3225 -0.1571  0.0286
 2207DOPG   GL148339   6.137  23.034  23.167  0.0038 -0.3057  0.3778
 2207DOPG   GL248340   6.162  22.742  23.359  0.2034 -0.1460 -0.3153
 2207DOPG   C1A48341   6.266  22.894  22.870 -0.1605  0.0815  0.2070
 2207DOPG   D2A48342   6.240  22.659  22.432  0.1001 -0.0030  0.0440
 2207DOPG   C3A48343   6.529  22.610  22.288 -0.0486  0.0891 -0.0226
 2207DOPG   C4A48344   6.818  22.585  22.052 -0.2060 -0.1068 -0.0766
 2207DOPG   C1B48345   6.539  22.684  23.305  0.4260 -0.0199 -0.0854
 2207DOPG   D2B48346   6.903  22.465  23.583  0.1969 -0.1946 -0.2271
 2207DOPG   C3B48347   7.231  22.428  23.756  0.0300  0.0538 -0.1203
 2207DOPG   C4B48348   7.510  22.455  24.160  0.0762 -0.0822  0.2836
 2208DOPG   GL048349  24.007  23.403  18.751  0.0586 -0.2408 -0.0575
 2208DOPG   PO448350  23.596  23.371  18.539 -0.0476 -0.0971 -0.1404
 2208DOPG   GL148351  23.729  22.947  18.753  0.1267 -0.1329  0.2307
 2208DOPG   GL248352  24.000  22.807  18.742  0.1406  0.0072 -0.1936
 2208DOPG   C1A48353  23.678  22.652  19.115  0.1676 -0.0647  0.3333
 2208DOPG   D2A48354  23.413  22.539  19.548 -0.0235  0.1119 -0.2765
 2208DOPG   C3A48355  23.338  22.218  19.874 -0.3783 -0.3843  0.2781
 2208DOPG   C4A48356  23.560  21.828  19.951 -0.0859  0.1151 -0.2283
 2208DOPG   C1B48357  23.640  22.521  18.426 -0.2336  0.0145  0.0122
 2208DOPG   D2B48358  23.494  22.567  18.001 -0.5785 -0.0659 -0.1991
 2208DOPG   C3B48359  23.310  22.250  17.675 -0.0801  0.1735  0.0761
 2208DOPG   C4B48360  23.526  21.855  17.593 -0.2366 -0.0275 -0.2117
 2209DOPG   GL048361  25.210  13.245  17.976 -0.0871 -0.0131 -0.3414
 2209DOPG   PO448362  25.641  13.499  18.008  0.1549 -0.3172 -0.1129
 2209DOPG   GL148363  25.328  13.733  17.931 -0.0013 -0.1892  0.1630
 2209DOPG   GL248364  25.390  13.941  17.679 -0.1805  0.0110 -0.0681
 2209DOPG   C1A48365  24.943  14.056  17.801 -0.2217 -0.3760 -0.1817
 2209DOPG   D2A48366  24.968  14.603  17.640  0.2694 -0.0678  0.1429
 2209DOPG   C3A48367  24.677  14.611  17.367  0.0428 -0.1156  0.5129
 2209DOPG   C4A48368  24.243  14.785  17.249 -0.1439  0.1068 -0.0911
 2209DOPG   C1B48369  25.352  14.408  17.828 -0.1505 -0.0373 -0.0907
 2209DOPG   D2B48370  25.069  14.566  18.158  0.2187  0.0612 -0.1757
 2209DOPG   C3B48371  25.080  14.424  18.603  0.1307 -0.0545 -0.0778
 2209DOPG   C4B48372  25.308  14.421  19.035  0.0361  0.0922 -0.1358
 2210DOPG   GL048373  19.993  23.286  20.900 -0.2940 -0.0408  0.1141
 2210DOPG   PO448374  19.880  23.140  20.512 -0.3519  0.1180  0.3317
 2210DOPG   GL148375  19.764  22.765  20.352 -0.1420  0.1683  0.0049
 2210DOPG   GL248376  20.103  22.638  20.183  0.5955 -0.3026  0.0976
 2210DOPG   C1A48377  19.421  22.629  20.174 -0.3300  0.2072 -0.2771
 2210DOPG   D2A48378  18.961  22.629  20.134  0.3099  0.0207  0.0426
 2210DOPG   C3A48379  18.721  22.265  20.154 -0.2812 -0.0070 -0.1637
 2210DOPG   C4A48380  18.401  21.976  19.953  0.0196  0.2179  0.1394
 2210DOPG   C1B48381  19.824  22.477  19.802  0.4556 -0.3549  0.0841
 2210DOPG   D2B48382  19.676  22.400  19.457  0.1497 -0.1293 -0.0664
 2210DOPG   C3B48383  19.834  22.021  19.432  0.3788 -0.1007  0.0888
 2210DOPG   C4B48384  19.779  21.542  19.365 -0.0638 -0.1352 -0.2248
 2211DOPG   GL048385   8.916  22.948  21.221  0.3766  0.0714 -0.1415
 2211DOPG   PO448386   8.956  22.894  21.682  0.1623 -0.2710 -0.0277
 2211DOPG   GL148387   8.621  22.599  21.531  0.3327  0.0150  0.4546
 2211DOPG   GL248388   8.582  22.265  21.453  0.1645 -0.1609  0.0536
 2211DOPG   C1A48389   8.129  22.505  21.442 -0.2488  0.3731 -0.1354
 2211DOPG   D2A48390   8.032  22.115  21.384  0.0652 -0.0472 -0.1904
 2211DOPG   C3A48391   7.808  22.036  21.012  0.1211 -0.1254 -0.0353
 2211DOPG   C4A48392   7.511  22.299  20.776  0.0269 -0.3228 -0.2663
 2211DOPG   C1B48393   8.419  22.026  21.708  0.1424 -0.3072 -0.0953
 2211DOPG   D2B48394   8.209  22.029  22.032 -0.3384  0.0170 -0.5673
 2211DOPG   C3B48395   7.889  22.282  21.868 -0.2692 -0.1141 -0.1276
 2211DOPG   C4B48396   7.537  22.458  21.819 -0.0591 -0.3053 -0.4880
 2212DOPG   GL048397  19.293  22.749  20.709  0.1898  0.2035 -0.1207
 2212DOPG   PO448398  19.137  22.522  21.013  0.1827  0.1375  0.1293
 2212DOPG   GL148399  19.166  22.066  21.044  0.0019  0.2344  0.0485
 2212DOPG   GL248400  19.166  21.780  21.258  0.0230  0.2113 -0.0703
 2212DOPG   C1A48401  19.323  21.647  20.803 -0.1401 -0.3390 -0.2511
 2212DOPG   D2A48402  19.656  21.793  20.617  0.2427 -0.0121 -0.1236
 2212DOPG   C3A48403  20.039  21.515  20.325 -0.0259 -0.1020  0.0702
 2212DOPG   C4A48404  20.158  21.242  20.007 -0.0278 -0.1155 -0.0951
 2212DOPG   C1B48405  19.096  21.314  21.326  0.3107  0.1154  0.1360
 2212DOPG   D2B48406  19.271  20.907  21.151  0.0556  0.2103  0.0601
 2212DOPG   C3B48407  18.937  20.644  20.883  0.2982 -0.3312 -0.4064
 2212DOPG   C4B48408  18.510  20.781  20.708  0.1109  0.0258 -0.3396
 2213DOPG   GL048409  13.604  10.511  22.493  0.3175 -0.0769 -0.3976
 2213DOPG   PO448410  13.184  10.439  22.577  0.5228  0.0783 -0.0811
 2213DOPG   GL148411  12.933  10.420  22.166 -0.2008 -0.0394 -0.4189
 2213DOPG   GL248412  13.033  10.596  21.831  0.5530  0.0366  0.2177
 2213DOPG   C1A48413  12.560  10.458  21.847  0.1015 -0.0022  0.0995
 2213DOPG   D2A48414  12.350  10.655  21.569  0.2962 -0.1353  0.0711
 2213DOPG   C3A48415  12.490  10.904  21.230 -0.0391 -0.2394  0.2150
 2213DOPG   C4A48416  12.651  11.281  21.096  0.0663 -0.0911 -0.0131
 2213DOPG   C1B48417  12.765  10.948  21.626  0.2521 -0.2158  0.2811
 2213DOPG   D2B48418  12.424  11.278  21.661  0.0457 -0.1243  0.2791
 2213DOPG   C3B48419  12.494  11.707  21.766  0.3878 -0.3082  0.1756
 2213DOPG   C4B48420  12.722  12.045  21.720  0.0016  0.0733 -0.3017
 2214DOPG   GL048421   8.096  14.749  21.831  0.1590 -0.2309 -0.0193
 2214DOPG   PO448422   8.014  14.636  21.506  0.2104 -0.2131 -0.1344
 2214DOPG   GL148423   8.411  14.577  21.213 -0.3013 -0.0603 -0.0148
 2214DOPG   GL248424   8.471  14.898  21.079  0.0858 -0.0226 -0.3015
 2214DOPG   C1A48425   8.318  14.456  20.811  0.0298 -0.0926 -0.1163
 2214DOPG   D2A48426   8.011  14.375  20.490  0.0317 -0.0331 -0.0007
 2214DOPG   C3A48427   8.062  14.257  19.922  0.3996  0.1327  0.1179
 2214DOPG   C4A48428   7.916  14.067  19.602  0.1805  0.0458 -0.0967
 2214DOPG   C1B48429   8.317  14.968  20.697  0.1489 -0.0530 -0.0453
 2214DOPG   D2B48430   8.402  14.728  20.382 -0.2738  0.4686  0.3707
 2214DOPG   C3B48431   8.518  15.049  20.144 -0.2216 -0.0962 -0.0121
 2214DOPG   C4B48432   8.347  15.237  19.677  0.1142  0.3330 -0.0046
 2215DOPG   GL048433  23.203  12.290  17.182 -0.1067 -0.1067 -0.0212
 2215DOPG   PO448434  22.892  12.163  17.034  0.0893 -0.3245 -0.2442
 2215DOPG   GL148435  22.601  12.253  17.362 -0.1191  0.2660 -0.0653
 2215DOPG   GL248436  22.350  12.355  17.223  0.0316  0.1237  0.0311
 2215DOPG   C1A48437  22.485  12.479  17.746 -0.0385  0.2431  0.1482
 2215DOPG   D2A48438  22.174  12.906  17.889 -0.1651 -0.0314  0.0688
 2215DOPG   C3A48439  21.802  13.035  18.176  0.0027 -0.1429 -0.1460
 2215DOPG   C4A48440  21.416  13.153  18.243 -0.0583  0.3514 -0.0440
 2215DOPG   C1B48441  22.295  12.817  17.256 -0.0358 -0.0121 -0.0362
 2215DOPG   D2B48442  22.130  13.198  17.390  0.0663 -0.4385 -0.0192
 2215DOPG   C3B48443  22.421  13.375  17.652  0.4163  0.0731  0.1143
 2215DOPG   C4B48444  22.421  13.662  18.023 -0.2770 -0.0608  0.3564
 2216DOPG   GL048445  13.443  22.761  21.275  0.1545 -0.0150 -0.1009
 2216DOPG   PO448446  13.650  22.833  20.865  0.1109  0.0109  0.1136
 2216DOPG   GL148447  13.925  22.507  20.665  0.0760 -0.0090  0.1752
 2216DOPG   GL248448  14.200  22.411  20.864 -0.2248  0.1564  0.0378
 2216DOPG   C1A48449  13.922  22.158  20.467  0.1494  0.0096  0.1462
 2216DOPG   D2A48450  14.051  21.954  20.094  0.4320  0.3405  0.2551
 2216DOPG   C3A48451  13.991  21.524  20.077  0.0356  0.1849  0.1316
 2216DOPG   C4A48452  13.604  21.290  19.852  0.0224 -0.2655 -0.1744
 2216DOPG   C1B48453  14.430  22.117  20.682  0.0615 -0.1431 -0.0687
 2216DOPG   D2B48454  14.811  21.945  20.833 -0.3650  0.1497 -0.1958
 2216DOPG   C3B48455  14.900  21.590  21.129 -0.0186  0.0507  0.1475
 2216DOPG   C4B48456  14.672  21.222  21.406 -0.0688 -0.1571  0.1159
 2217DOPG   GL048457  25.379  22.979  17.792  0.1769  0.1003 -0.0401
 2217DOPG   PO448458  25.755  22.791  17.863 -0.1333 -0.1763  0.0567
 2217DOPG   GL148459  25.614  22.454  17.708  0.0955  0.0304  0.1573
 2217DOPG   GL248460  25.216  22.512  17.618 -0.3808 -0.1146  0.0080
 2217DOPG   C1A48461  25.488  22.039  17.929 -0.0736 -0.0065 -0.0059
 2217DOPG   D2A48462  25.268  21.693  18.096 -0.1632 -0.1377  0.0332
 2217DOPG   C3A48463  25.351  21.416  18.483  0.1091  0.2007 -0.1470
 2217DOPG   C4A48464  25.404  21.042  18.653  0.1782  0.0318  0.1244
 2217DOPG   C1B48465  25.022  22.212  17.833  0.0675 -0.0886  0.1396
 2217DOPG   D2B48466  24.757  21.961  18.069  0.0962  0.0880  0.0034
 2217DOPG   C3B48467  24.381  22.211  18.093  0.1780 -0.0572  0.0048
 2217DOPG   C4B48468  24.188  22.662  18.076 -0.2955  0.1551  0.1280
 2218DOPG   GL048469  13.208   6.586  16.514  0.3760 -0.0712  0.2259
 2218DOPG   PO448470  12.990   6.999  16.523 -0.1364 -0.2728 -0.1470
 2218DOPG   GL148471  13.229   7.301  16.652 -0.0269  0.1610  0.0457
 2218DOPG   GL248472  13.025   7.521  16.588 -0.3543 -0.1506 -0.1029
 2218DOPG   C1A48473  13.473   7.510  16.833  0.2151 -0.0736  0.1049
 2218DOPG   D2A48474  13.705   7.780  17.085 -0.0873 -0.0029 -0.3075
 2218DOPG   C3A48475  13.714   8.218  17.053 -0.2247  0.3769  0.1333
 2218DOPG   C4A48476  13.866   8.415  17.440  0.3190  0.2274  0.0320
 2218DOPG   C1B48477  13.192   7.919  16.534 -0.1535  0.0850  0.0760
 2218DOPG   D2B48478  12.890   8.256  16.678  0.1023  0.0433  0.1584
 2218DOPG   C3B48479  12.927   8.630  16.651  0.2765 -0.4166  0.2298
 2218DOPG   C4B48480  13.223   8.872  16.569 -0.2211 -0.0333 -0.0524
 2219DOPG   GL048481  13.859  20.801  23.202 -0.2267  0.0874  0.4300
 2219DOPG   PO448482  14.093  20.627  22.887 -0.2453  0.1267  0.2882
 2219DOPG   GL148483  14.273  20.383  22.538 -0.0177 -0.1022 -0.0800
 2219DOPG   GL248484  14.360  20.555  22.316  0.0066 -0.0265  0.1300
 2219DOPG   C1A48485  14.454  20.086  22.193 -0.2684  0.1491 -0.0119
 2219DOPG   D2A48486  14.390  19.691  21.939 -0.0968  0.2229 -0.2080
 2219DOPG   C3A48487  14.336  19.832  21.539 -0.1447  0.0533  0.3631
 2219DOPG   C4A48488  14.495  19.873  21.074 -0.0621 -0.2863  0.1674
 2219DOPG   C1B48489  14.378  20.538  21.788  0.1219 -0.3362 -0.0474
 2219DOPG   D2B48490  14.346  20.809  21.392  0.3497 -0.1659  0.0499
 2219DOPG   C3B48491  14.664  20.796  21.086  0.2042 -0.2656  0.1553
 2219DOPG   C4B48492  15.069  21.023  21.084  0.0202 -0.0093  0.1705
 2220DOPG   GL048493  21.211  23.434  20.429  0.1636  0.0139 -0.0347
 2220DOPG   PO448494  21.291  23.449  20.110 -0.1127  0.1304  0.0303
 2220DOPG   GL148495  21.145  23.102  19.873  0.1406  0.1445 -0.3167
 2220DOPG   GL248496  21.366  23.200  19.694  0.1128 -0.0261 -0.0338
 2220DOPG   C1A48497  20.887  22.779  19.761  0.2664  0.0057 -0.2750
 2220DOPG   D2A48498  20.882  22.433  19.462 -0.0548  0.0636 -0.0474
 2220DOPG   C3A48499  20.629  22.233  19.091 -0.0831 -0.1982 -0.1408
 2220DOPG   C4A48500  20.664  21.831  18.806  0.1009 -0.1740 -0.1283
 2220DOPG   C1B48501  21.235  22.942  19.422 -0.1607  0.0128 -0.3034
 2220DOPG   D2B48502  21.249  22.578  19.195  0.1681 -0.0437  0.1668
 2220DOPG   C3B48503  21.519  22.318  18.943 -0.1323  0.0187  0.0033
 2220DOPG   C4B48504  21.642  22.067  19.110  0.0240 -0.4125 -0.1277
 2221DOPG   GL048505  15.736   8.430  20.198 -0.1377 -0.3637 -0.1153
 2221DOPG   PO448506  16.071   8.384  19.936  0.2417 -0.0584 -0.2087
 2221DOPG   GL148507  16.224   8.749  19.684  0.2090  0.1692  0.2035
 2221DOPG   GL248508  16.204   8.718  19.411  0.0634 -0.0217  0.1430
 2221DOPG   C1A48509  16.128   9.215  19.588  0.1766  0.1064 -0.3123
 2221DOPG   D2A48510  15.848   9.518  19.438  0.0695 -0.0404  0.0825
 2221DOPG   C3A48511  15.388   9.704  19.549  0.0036  0.1040 -0.1066
 2221DOPG   C4A48512  15.118   9.969  19.450 -0.1086 -0.1000 -0.1952
 2221DOPG   C1B48513  15.773   8.645  19.115 -0.1305 -0.1105  0.0953
 2221DOPG   D2B48514  15.657   8.172  18.956 -0.0539  0.0069  0.1785
 2221DOPG   C3B48515  15.304   8.368  18.763 -0.1715  0.0941 -0.0532
 2221DOPG   C4B48516  15.153   8.809  18.950  0.0677  0.0198 -0.0565
 2222DOPG   GL048517  19.415  24.433  16.745 -0.0957  0.1676 -0.1638
 2222DOPG   PO448518  19.262  24.120  17.027  0.0231  0.1006  0.2593
 2222DOPG   GL148519  19.091  23.625  17.118 -0.1600  0.0202  0.1972
 2222DOPG   GL248520  19.256  23.660  17.305 -0.0681 -0.5252 -0.2253
 2222DOPG   C1A48521  19.091  23.196  17.275 -0.0803 -0.0926  0.1018
 2222DOPG   D2A48522  19.255  22.920  17.549 -0.1110 -0.3197 -0.0282
 2222DOPG   C3A48523  19.056  22.551  17.826  0.0152 -0.1320 -0.1777
 2222DOPG   C4A48524  18.705  22.371  18.115 -0.0291 -0.0238 -0.3382
 2222DOPG   C1B48525  19.587  23.295  17.441 -0.0069 -0.1701  0.2533
 2222DOPG   D2B48526  19.752  23.017  17.697 -0.4209  0.0355  0.4647
 2222DOPG   C3B48527  20.200  22.712  17.581  0.4345 -0.1244  0.1536
 2222DOPG   C4B48528  20.452  22.462  17.731 -0.0086  0.0862  0.0242
 2223DOPG   GL048529  24.071  23.079  19.159  0.3980 -0.1048  0.1297
 2223DOPG   PO448530  24.391  22.845  19.205  0.0588  0.1390  0.0679
 2223DOPG   GL148531  24.190  22.476  19.096 -0.0417  0.0576 -0.3311
 2223DOPG   GL248532  24.115  22.314  19.384 -0.0281  0.0841 -0.0530
 2223DOPG   C1A48533  23.852  22.193  18.933  0.0291  0.0490 -0.0335
 2223DOPG   D2A48534  23.436  22.106  18.753  0.0144  0.1731  0.0716
 2223DOPG   C3A48535  23.577  21.724  18.561 -0.3162  0.4037 -0.2976
 2223DOPG   C4A48536  23.639  21.368  18.753 -0.0642  0.1589 -0.0240
 2223DOPG   C1B48537  24.317  21.979  19.135  0.1587 -0.2609 -0.2459
 2223DOPG   D2B48538  24.193  21.775  18.743 -0.0787  0.3171 -0.2064
 2223DOPG   C3B48539  24.498  21.376  18.721 -0.1957  0.1658  0.1113
 2223DOPG   C4B48540  24.898  21.235  18.738  0.1319 -0.2513  0.1890
 2224DOPG   GL048541  18.258  15.019  23.601  0.1497 -0.0689 -0.1276
 2224DOPG   PO448542  17.928  15.176  23.307 -0.0512  0.0277 -0.1613
 2224DOPG   GL148543  18.220  15.367  23.040  0.0881 -0.1395  0.2150
 2224DOPG   GL248544  18.410  15.082  22.959 -0.1899  0.3248  0.1192
 2224DOPG   C1A48545  18.059  15.765  22.788 -0.0429  0.0700  0.2536
 2224DOPG   D2A48546  17.916  16.040  22.537  0.0412  0.0991 -0.0272
 2224DOPG   C3A48547  17.809  15.834  22.120 -0.3173  0.0237  0.1966
 2224DOPG   C4A48548  17.737  15.870  21.762  0.0380 -0.2978  0.1022
 2224DOPG   C1B48549  18.518  14.738  22.714 -0.1834  0.1310 -0.2337
 2224DOPG   D2B48550  18.617  14.885  22.323 -0.2122  0.0897 -0.1208
 2224DOPG   C3B48551  18.575  14.503  22.100 -0.1583 -0.1102  0.0244
 2224DOPG   C4B48552  18.880  14.339  21.748 -0.1501  0.2382  0.2236
 2225DOPG   GL048553  23.774  13.682  21.148 -0.2478  0.1503  0.2035
 2225DOPG   PO448554  23.828  13.472  20.736 -0.2514 -0.2453 -0.1198
 2225DOPG   GL148555  23.859  13.884  20.512  0.1500  0.0763  0.1602
 2225DOPG   GL248556  23.901  13.753  20.226 -0.0785  0.2720  0.1047
 2225DOPG   C1A48557  23.607  14.203  20.218  0.0419 -0.0394 -0.0838
 2225DOPG   D2A48558  23.338  14.293  19.956  0.1898 -0.0769 -0.2171
 2225DOPG   C3A48559  23.099  14.566  19.962 -0.0081 -0.1253 -0.4192
 2225DOPG   C4A48560  22.673  14.799  19.905 -0.1875  0.1150 -0.2336
 2225DOPG   C1B48561  23.529  13.831  19.921 -0.1263  0.0834  0.2888
 2225DOPG   D2B48562  23.108  13.893  19.717  0.2009  0.1422 -0.0156
 2225DOPG   C3B48563  23.165  14.143  19.370  0.0301  0.5025  0.2112
 2225DOPG   C4B48564  22.967  14.455  19.147  0.0550  0.3719  0.3705
 2226DOPG   GL048565   7.551   8.888  19.442 -0.2552  0.4120 -0.0312
 2226DOPG   PO448566   7.511   9.186  19.161 -0.4073  0.0617 -0.0524
 2226DOPG   GL148567   7.668   9.407  18.847 -0.0478  0.2168 -0.3442
 2226DOPG   GL248568   7.708   9.658  18.585 -0.1830 -0.0508 -0.1417
 2226DOPG   C1A48569   8.140   9.481  18.746 -0.2823 -0.1677 -0.0918
 2226DOPG   D2A48570   8.626   9.575  18.731 -0.2334  0.0030  0.0581
 2226DOPG   C3A48571   8.761   9.775  18.429  0.0296  0.4475  0.1876
 2226DOPG   C4A48572   9.009   9.635  18.088  0.0611  0.0774 -0.0498
 2226DOPG   C1B48573   7.670  10.136  18.510  0.1021  0.0618  0.0013
 2226DOPG   D2B48574   7.685  10.610  18.417  0.2819 -0.0255  0.1250
 2226DOPG   C3B48575   7.478  10.788  18.082 -0.0647 -0.1010 -0.1219
 2226DOPG   C4B48576   7.215  10.785  17.768 -0.2769 -0.0928  0.5390
 2227DOPG   GL048577  22.868  12.372  19.354 -0.2601 -0.1286  0.1812
 2227DOPG   PO448578  23.147  12.284  19.793  0.0697  0.0165  0.2185
 2227DOPG   GL148579  23.016  12.716  19.767 -0.1053 -0.3124 -0.0367
 2227DOPG   GL248580  23.176  13.022  19.898 -0.3450  0.0245 -0.0143
 2227DOPG   C1A48581  22.701  12.863  19.462  0.1218  0.2582  0.0535
 2227DOPG   D2A48582  22.597  12.912  19.106  0.0536 -0.2315  0.3636
 2227DOPG   C3A48583  22.651  13.263  18.824  0.2485  0.3233 -0.0180
 2227DOPG   C4A48584  22.751  13.723  18.492  0.0914 -0.0630 -0.0718
 2227DOPG   C1B48585  22.743  13.123  19.838 -0.0188 -0.1123 -0.0672
 2227DOPG   D2B48586  22.396  13.264  19.535 -0.2134  0.0617 -0.3993
 2227DOPG   C3B48587  22.030  13.335  19.818  0.1071 -0.0437 -0.0008
 2227DOPG   C4B48588  21.822  13.314  20.223 -0.1750  0.0496 -0.6327
 2228DOPG   GL048589  22.062  19.097  21.924  0.2385  0.0410 -0.0519
 2228DOPG   PO448590  21.865  18.769  21.728 -0.2899 -0.1866  0.0104
 2228DOPG   GL148591  21.790  18.512  21.340 -0.2167  0.2135  0.1337
 2228DOPG   GL248592  22.107  18.410  21.309  0.3287  0.1844  0.0075
 2228DOPG   C1A48593  21.497  18.180  21.310 -0.1664 -0.2646  0.1252
 2228DOPG   D2A48594  21.372  17.795  21.242 -0.1966 -0.1420 -0.0138
 2228DOPG   C3A48595  21.329  17.732  20.715  0.1884  0.1776  0.1770
 2228DOPG   C4A48596  21.529  17.475  20.439 -0.0300  0.0299  0.0803
 2228DOPG   C1B48597  22.340  18.021  21.022  0.0977 -0.0862 -0.1445
 2228DOPG   D2B48598  22.413  17.775  20.610  0.0186  0.2162  0.4467
 2228DOPG   C3B48599  22.608  18.083  20.271  0.1119  0.1352 -0.2607
 2228DOPG   C4B48600  22.412  18.437  20.076  0.0258 -0.1297  0.2517
 2229DOPG   GL048601  20.242  17.979  22.638 -0.2303 -0.0714  0.1129
 2229DOPG   PO448602  20.052  17.602  22.514  0.3249 -0.2425 -0.2462
 2229DOPG   GL148603  20.094  17.180  22.447 -0.2713 -0.2015 -0.1971
 2229DOPG   GL248604  19.962  17.133  22.693  0.0606  0.3126 -0.0749
 2229DOPG   C1A48605  20.093  16.789  22.322 -0.2406 -0.0740  0.4021
 2229DOPG   D2A48606  20.094  16.290  22.319  0.0701  0.0331  0.2163
 2229DOPG   C3A48607  20.286  16.099  21.980  0.0595 -0.1226 -0.0549
 2229DOPG   C4A48608  20.443  15.760  21.869 -0.0280 -0.1270  0.0371
 2229DOPG   C1B48609  19.725  17.182  22.172 -0.0471  0.0425  0.1022
 2229DOPG   D2B48610  19.632  17.573  21.951  0.1913  0.0066  0.1113
 2229DOPG   C3B48611  19.955  17.579  21.586 -0.0975 -0.1595 -0.0949
 2229DOPG   C4B48612  20.131  17.642  21.257 -0.1809  0.0735 -0.2040
 2230DOPG   GL048613  14.217  25.203  17.900  0.0424  0.1072  0.2789
 2230DOPG   PO448614  14.209  25.092  18.309  0.0405 -0.0819  0.4394
 2230DOPG   GL148615  14.185  24.574  18.292  0.1555 -0.0335 -0.1931
 2230DOPG   GL248616  14.193  24.387  18.634 -0.4583  0.1024 -0.1348
 2230DOPG   C1A48617  14.160  24.302  17.978  0.1757 -0.0901 -0.3354
 2230DOPG   D2A48618  14.147  24.495  17.540 -0.0084  0.2495  0.1487
 2230DOPG   C3A48619  13.971  24.173  17.166  0.3153  0.2540  0.0347
 2230DOPG   C4A48620  14.074  24.035  16.712 -0.0958  0.0692 -0.1135
 2230DOPG   C1B48621  14.223  24.042  18.424 -0.1018 -0.1858  0.1069
 2230DOPG   D2B48622  14.263  23.545  18.307  0.1215 -0.1020  0.3120
 2230DOPG   C3B48623  14.172  23.322  18.005  0.0395  0.0652  0.0243
 2230DOPG   C4B48624  13.814  23.067  18.119 -0.1878 -0.1920  0.0177
 2231DOPG   GL048625  13.813  21.071  22.785 -0.1604  0.0666  0.0424
 2231DOPG   PO448626  14.025  20.920  22.486  0.3931 -0.2795  0.0534
 2231DOPG   GL148627  13.782  20.667  22.185 -0.0807 -0.1131  0.1254
 2231DOPG   GL248628  13.488  20.521  22.308 -0.0650  0.0236  0.0476
 2231DOPG   C1A48629  13.610  20.758  21.734 -0.1836  0.0356  0.1229
 2231DOPG   D2A48630  13.547  20.428  21.353  0.0227  0.1605 -0.0668
 2231DOPG   C3A48631  13.294  20.626  21.090 -0.0986  0.2969  0.0041
 2231DOPG   C4A48632  13.056  20.571  20.879  0.1778 -0.1942  0.0698
 2231DOPG   C1B48633  13.425  20.306  21.921 -0.2046 -0.1923 -0.1598
 2231DOPG   D2B48634  13.402  20.042  21.617 -0.3190  0.1122  0.0366
 2231DOPG   C3B48635  13.799  19.812  21.473 -0.0419  0.2187 -0.2622
 2231DOPG   C4B48636  14.013  19.475  21.372 -0.1048  0.2433 -0.1405
 2232DOPG   GL048637  21.653  11.444  19.472  0.0973  0.0300  0.4023
 2232DOPG   PO448638  21.264  11.254  19.475  0.2479 -0.1437 -0.6420
 2232DOPG   GL148639  20.943  11.573  19.380  0.0096  0.3267 -0.4624
 2232DOPG   GL248640  20.788  11.563  19.125  0.4529 -0.0872  0.1317
 2232DOPG   C1A48641  20.777  12.007  19.474 -0.0540 -0.0151 -0.0358
 2232DOPG   D2A48642  20.566  12.316  19.807 -0.0055  0.1343  0.2923
 2232DOPG   C3A48643  20.332  12.656  19.704 -0.0057 -0.2899 -0.1278
 2232DOPG   C4A48644  19.931  12.768  19.675 -0.4702 -0.0082  0.0932
 2232DOPG   C1B48645  20.467  11.850  19.065  0.0433 -0.0464  0.0552
 2232DOPG   D2B48646  20.127  11.876  19.044 -0.5654 -0.0553 -0.0739
 2232DOPG   C3B48647  20.051  11.792  18.606  0.0422 -0.1045 -0.1716
 2232DOPG   C4B48648  20.159  11.922  18.141  0.0208  0.2073 -0.0247
 2233DOPG   GL048649  13.593  22.244  21.977  0.0855 -0.0462 -0.2103
 2233DOPG   PO448650  13.641  22.300  21.556  0.0727 -0.0521  0.0375
 2233DOPG   GL148651  13.820  22.202  21.113 -0.2196 -0.0531 -0.1271
 2233DOPG   GL248652  13.488  22.355  20.976  0.0276  0.0320  0.0709
 2233DOPG   C1A48653  14.096  21.953  21.018 -0.0394  0.0222  0.0982
 2233DOPG   D2A48654  14.381  21.569  21.052 -0.0169 -0.0176  0.1188
 2233DOPG   C3A48655  14.578  21.252  20.871  0.1486  0.1896  0.3042
 2233DOPG   C4A48656  14.301  20.851  20.803 -0.0885  0.0240  0.2778
 2233DOPG   C1B48657  13.267  22.282  20.601 -0.2087 -0.0987  0.3179
 2233DOPG   D2B48658  12.886  22.205  20.435 -0.3479 -0.0841 -0.0078
 2233DOPG   C3B48659  12.885  21.818  20.300  0.1762 -0.1655 -0.0072
 2233DOPG   C4B48660  12.541  21.734  20.125 -0.0838  0.0266  0.2737
 2234DOPG   GL048661  15.347  22.251  22.455 -0.1404 -0.0220 -0.1105
 2234DOPG   PO448662  15.499  21.924  22.078 -0.2264  0.1027  0.2426
 2234DOPG   GL148663  15.730  21.758  21.806  0.2027 -0.0937  0.1099
 2234DOPG   GL248664  15.379  21.593  21.653  0.2379  0.0108 -0.0501
 2234DOPG   C1A48665  15.901  21.425  21.622 -0.1643 -0.2811  0.3879
 2234DOPG   D2A48666  16.185  21.373  21.252  0.1775  0.1448  0.0201
 2234DOPG   C3A48667  16.552  21.588  21.111 -0.2243  0.0131 -0.1620
 2234DOPG   C4A48668  16.812  21.750  20.791 -0.0999  0.0854 -0.1736
 2234DOPG   C1B48669  15.331  21.430  21.195 -0.1688  0.2024  0.3085
 2234DOPG   D2B48670  15.183  21.424  20.746  0.1060 -0.2407  0.1725
 2234DOPG   C3B48671  14.699  21.552  20.477 -0.0966  0.0108 -0.0493
 2234DOPG   C4B48672  14.524  21.917  20.217 -0.3699 -0.0028 -0.0542
 2235DOPG   GL048673  16.830  12.913  23.195  0.0032  0.6671 -0.2548
 2235DOPG   PO448674  16.670  13.254  23.180 -0.2331  0.1001 -0.0249
 2235DOPG   GL148675  16.463  13.344  22.825 -0.0305 -0.0664 -0.1328
 2235DOPG   GL248676  16.026  13.262  22.697  0.0052 -0.1075 -0.2348
 2235DOPG   C1A48677  16.409  13.725  22.422  0.0002  0.1258  0.0058
 2235DOPG   D2A48678  16.189  14.092  22.347  0.0297  0.0618 -0.0803
 2235DOPG   C3A48679  16.045  14.398  22.107 -0.0857  0.0644  0.0327
 2235DOPG   C4A48680  16.182  14.791  21.978  0.0389  0.2894  0.1661
 2235DOPG   C1B48681  16.012  13.407  22.190  0.1268 -0.4221 -0.1785
 2235DOPG   D2B48682  16.189  13.714  21.915  0.1439 -0.0095  0.0821
 2235DOPG   C3B48683  16.007  13.930  21.710 -0.0091  0.0493  0.1478
 2235DOPG   C4B48684  15.766  14.261  21.675  0.0104 -0.1021 -0.2581
 2236DOPG   GL048685  17.119  23.533  19.652 -0.1748  0.2068 -0.1675
 2236DOPG   PO448686  17.210  23.477  19.990  0.0927 -0.1176  0.0553
 2236DOPG   GL148687  16.962  23.123  19.900 -0.3069 -0.0428  0.4962
 2236DOPG   GL248688  16.833  22.900  20.172  0.0930 -0.3760 -0.3115
 2236DOPG   C1A48689  16.505  23.021  19.693  0.0563  0.0138 -0.0798
 2236DOPG   D2A48690  16.057  23.012  19.672  0.1057 -0.0118 -0.1869
 2236DOPG   C3A48691  15.740  22.973  19.974  0.0846  0.0558 -0.0297
 2236DOPG   C4A48692  15.379  22.705  20.094  0.0515 -0.2305  0.1531
 2236DOPG   C1B48693  16.947  22.431  20.229 -0.3745 -0.1496  0.0273
 2236DOPG   D2B48694  16.689  22.121  20.346 -0.0345  0.0824  0.0031
 2236DOPG   C3B48695  16.282  22.020  20.200 -0.2489  0.1004  0.1884
 2236DOPG   C4B48696  16.181  22.065  19.714 -0.0419 -0.2860 -0.1692
 2237DOPG   GL048697  16.220   9.952  21.849 -0.0667  0.2449 -0.2629
 2237DOPG   PO448698  16.000  10.156  21.587 -0.2372  0.1127 -0.4514
 2237DOPG   GL148699  16.025  10.564  21.461 -0.2151 -0.0784  0.0851
 2237DOPG   GL248700  15.692  10.685  21.394 -0.2606 -0.1387  0.3550
 2237DOPG   C1A48701  16.126  10.985  21.308 -0.1914 -0.1571 -0.0732
 2237DOPG   D2A48702  16.058  11.432  21.063  0.0626  0.1732 -0.1954
 2237DOPG   C3A48703  15.743  11.538  21.084  0.0324  0.0938  0.3862
 2237DOPG   C4A48704  15.371  11.749  20.887  0.0249  0.2254  0.1447
 2237DOPG   C1B48705  15.700  10.960  20.966 -0.4698 -0.1731 -0.0163
 2237DOPG   D2B48706  15.621  11.002  20.512  0.4025 -0.3323 -0.1558
 2237DOPG   C3B48707  15.754  11.070  20.136 -0.0171 -0.1210  0.0614
 2237DOPG   C4B48708  15.951  11.421  19.806 -0.1196 -0.2342 -0.1513
 2238DOPG   GL048709   8.769  14.439  22.552 -0.1173  0.2562  0.2065
 2238DOPG   PO448710   8.857  14.301  22.153 -0.0889 -0.1022 -0.0015
 2238DOPG   GL148711   9.096  14.267  21.834 -0.0714  0.0078 -0.0612
 2238DOPG   GL248712   9.301  14.503  21.862 -0.0543  0.0598  0.2740
 2238DOPG   C1A48713   9.297  14.169  21.431  0.2152  0.2331 -0.2143
 2238DOPG   D2A48714   9.475  13.871  21.099 -0.0515 -0.0040 -0.2690
 2238DOPG   C3A48715   9.440  13.621  20.679 -0.1074  0.0876  0.0288
 2238DOPG   C4A48716   9.584  13.756  20.278 -0.2195  0.1348  0.2842
 2238DOPG   C1B48717   9.604  14.551  21.410 -0.1364 -0.1616 -0.2680
 2238DOPG   D2B48718   9.899  14.641  21.256  0.1670  0.1206  0.2959
 2238DOPG   C3B48719   9.969  14.360  20.947  0.3016  0.4793  0.1279
 2238DOPG   C4B48720   9.870  14.187  20.587  0.1605 -0.2041  0.1193
 2239DOPG   GL048721  15.330   8.539  20.522  0.1180 -0.0563  0.3204
 2239DOPG   PO448722  15.450   8.781  20.927  0.2317 -0.2806 -0.1733
 2239DOPG   GL148723  15.635   9.266  20.806  0.1499 -0.0965 -0.2214
 2239DOPG   GL248724  15.905   9.320  20.554 -0.2786  0.0996 -0.3106
 2239DOPG   C1A48725  15.595   9.699  20.700 -0.1453 -0.1966  0.0168
 2239DOPG   D2A48726  15.838  10.131  20.706  0.3399 -0.3661  0.3065
 2239DOPG   C3A48727  16.175  10.153  20.459 -0.0142 -0.1766  0.1204
 2239DOPG   C4A48728  16.652   9.987  20.407 -0.4787  0.1516 -0.1094
 2239DOPG   C1B48729  16.006   9.643  20.364 -0.2139 -0.2227 -0.0574
 2239DOPG   D2B48730  15.785   9.975  20.245  0.1744  0.1067  0.0994
 2239DOPG   C3B48731  15.366   9.835  20.091  0.0412 -0.1034 -0.2148
 2239DOPG   C4B48732  15.053   9.703  19.899 -0.3992  0.1667  0.0026
 2240DOPG   GL048733  10.990  12.697  22.759 -0.0323  0.1489  0.0171
 2240DOPG   PO448734  10.622  12.484  22.869  0.3234  0.1122 -0.2072
 2240DOPG   GL148735  10.482  12.682  22.508  0.0902 -0.1430 -0.0520
 2240DOPG   GL248736  10.726  12.601  22.298  0.1466  0.0687  0.2366
 2240DOPG   C1A48737  10.304  12.766  22.084 -0.0566 -0.3508 -0.0495
 2240DOPG   D2A48738  10.576  12.773  21.712  0.0680 -0.0345 -0.0429
 2240DOPG   C3A48739  10.634  13.134  21.350  0.1777 -0.3113 -0.0769
 2240DOPG   C4A48740  10.412  13.533  21.238  0.0791  0.1394  0.0401
 2240DOPG   C1B48741  11.195  12.665  22.220 -0.0970  0.0220  0.1740
 2240DOPG   D2B48742  11.625  12.525  22.202 -0.3826  0.0555 -0.2067
 2240DOPG   C3B48743  12.048  12.674  21.973 -0.0008 -0.0353 -0.1190
 2240DOPG   C4B48744  12.087  12.646  21.612  0.4820  0.0371  0.0249
 2241DOPG   GL048745  23.972  17.486  21.636 -0.0298 -0.0255  0.2319
 2241DOPG   PO448746  24.395  17.510  21.675 -0.2423  0.3508 -0.2277
 2241DOPG   GL148747  24.399  17.620  21.317 -0.2266 -0.4455  0.2644
 2241DOPG   GL248748  24.156  17.952  21.225  0.0868 -0.3812 -0.0857
 2241DOPG   C1A48749  24.258  17.645  20.845  0.0201 -0.0167  0.1411
 2241DOPG   D2A48750  24.239  17.888  20.476 -0.0663 -0.4682  0.0568
 2241DOPG   C3A48751  23.851  17.703  20.333  0.0453  0.3117 -0.0863
 2241DOPG   C4A48752  23.429  17.667  20.485  0.0378 -0.1166 -0.0688
 2241DOPG   C1B48753  24.225  18.225  20.868 -0.0020 -0.0388 -0.1575
 2241DOPG   D2B48754  24.461  18.426  20.606  0.2729 -0.0317  0.1601
 2241DOPG   C3B48755  24.674  18.180  20.524 -0.1166  0.0943 -0.2014
 2241DOPG   C4B48756  24.923  17.797  20.565 -0.1343 -0.1004  0.3924
 2242DOPG   GL048757  18.058  13.251  22.782  0.1931  0.1921  0.0933
 2242DOPG   PO448758  18.384  12.994  22.608 -0.2141 -0.2242 -0.1955
 2242DOPG   GL148759  18.141  12.945  22.232 -0.0077  0.1184 -0.3504
 2242DOPG   GL248760  17.874  13.185  22.196 -0.1535  0.0383 -0.0915
 2242DOPG   C1A48761  18.068  12.936  21.776  0.0828 -0.0885  0.4551
 2242DOPG   D2A48762  18.104  13.171  21.299  0.0351  0.4113  0.1320
 2242DOPG   C3A48763  18.070  13.517  20.901 -0.0607 -0.2802  0.1031
 2242DOPG   C4A48764  18.234  13.736  20.453 -0.0573  0.0697 -0.0785
 2242DOPG   C1B48765  17.523  13.326  22.017  0.0849  0.0051  0.2829
 2242DOPG   D2B48766  17.339  13.316  21.571 -0.0547  0.1982 -0.3179
 2242DOPG   C3B48767  16.993  13.537  21.286 -0.0212  0.2524 -0.2498
 2242DOPG   C4B48768  16.967  13.861  21.064 -0.2373  0.3218  0.1977
 2243DOPG   GL048769  22.033  16.537  22.734 -0.2383  0.2151  0.0231
 2243DOPG   PO448770  22.294  16.160  22.486  0.1046 -0.2524  0.0261
 2243DOPG   GL148771  22.159  15.937  22.117 -0.0147 -0.1528  0.3453
 2243DOPG   GL248772  22.077  16.194  21.999  0.0579  0.0774 -0.0485
 2243DOPG   C1A48773  22.294  15.856  21.599  0.0889 -0.0337  0.2313
 2243DOPG   D2A48774  22.790  15.752  21.421  0.2214  0.0753 -0.0217
 2243DOPG   C3A48775  23.108  15.525  21.166 -0.1136  0.1670 -0.1002
 2243DOPG   C4A48776  23.531  15.517  20.990 -0.1403 -0.0938  0.0579
 2243DOPG   C1B48777  21.898  16.318  21.589  0.1892 -0.3039 -0.0628
 2243DOPG   D2B48778  21.564  16.131  21.422 -0.1435 -0.0754  0.2107
 2243DOPG   C3B48779  21.510  16.021  21.000 -0.1827  0.0134 -0.1959
 2243DOPG   C4B48780  21.369  15.984  20.627  0.0380 -0.0065  0.1152
 2244DOPG   GL048781  17.802  24.275  17.361  0.0519  0.2339  0.0954
 2244DOPG   PO448782  18.283  24.346  17.237 -0.1296  0.1683 -0.0965
 2244DOPG   GL148783  18.453  24.007  17.559  0.1303  0.2633 -0.0460
 2244DOPG   GL248784  18.266  23.687  17.412 -0.0950 -0.1367  0.0621
 2244DOPG   C1A48785  18.666  23.817  17.914  0.0150 -0.3348  0.1863
 2244DOPG   D2A48786  18.638  23.438  18.063  0.1033  0.1871  0.0422
 2244DOPG   C3A48787  18.645  23.323  18.545  0.3340 -0.0153 -0.0118
 2244DOPG   C4A48788  18.584  23.430  18.987 -0.0970 -0.0706 -0.0313
 2244DOPG   C1B48789  18.089  23.262  17.303 -0.4204 -0.0963 -0.1092
 2244DOPG   D2B48790  18.191  23.183  16.918  0.0958 -0.1362  0.0294
 2244DOPG   C3B48791  18.002  22.776  16.773 -0.0545 -0.0742  0.5522
 2244DOPG   C4B48792  18.120  22.413  16.933 -0.1382 -0.1297 -0.0821
 2245DOPG   GL048793  21.064  10.539  17.113 -0.2683 -0.1886  0.0024
 2245DOPG   PO448794  20.820  10.915  17.000 -0.0937 -0.3264  0.3226
 2245DOPG   GL148795  20.763  11.336  17.056  0.2675  0.1386  0.1341
 2245DOPG   GL248796  21.009  11.450  17.227  0.2191  0.1696 -0.2303
 2245DOPG   C1A48797  20.316  11.455  17.180 -0.4013  0.6872 -0.0803
 2245DOPG   D2A48798  19.892  11.242  17.223 -0.2155  0.0475 -0.3033
 2245DOPG   C3A48799  19.880  11.002  16.977  0.0539 -0.1165 -0.1177
 2245DOPG   C4A48800  19.677  10.860  16.531 -0.0932  0.0695  0.0454
 2245DOPG   C1B48801  20.968  11.780  17.473 -0.2295 -0.3894  0.0432
 2245DOPG   D2B48802  21.186  12.256  17.483 -0.0277 -0.2746 -0.1951
 2245DOPG   C3B48803  21.556  12.483  17.332  0.1181 -0.2129  0.0692
 2245DOPG   C4B48804  21.885  12.659  17.531  0.1659 -0.1752  0.3484
 2246DOPG   GL048805   8.912   7.712  19.445 -0.0560 -0.1588  0.0226
 2246DOPG   PO448806   9.013   7.926  19.077 -0.1943  0.0991  0.3365
 2246DOPG   GL148807   9.080   8.315  19.029 -0.0022  0.2349 -0.1213
 2246DOPG   GL248808   8.890   8.603  18.946  0.4160 -0.2201  0.0075
 2246DOPG   C1A48809   9.357   8.469  19.285  0.0471  0.0498  0.2564
 2246DOPG   D2A48810   9.718   8.618  19.685  0.2011 -0.2256  0.0540
 2246DOPG   C3A48811   9.889   9.157  19.770  0.4620  0.1497  0.1501
 2246DOPG   C4A48812  10.218   9.463  19.848 -0.1632  0.1933  0.0873
 2246DOPG   C1B48813   8.690   8.889  19.106  0.1322 -0.2666  0.2588
 2246DOPG   D2B48814   8.362   9.079  19.065  0.0729  0.1360  0.0252
 2246DOPG   C3B48815   8.441   9.132  18.520 -0.1189  0.0548  0.1253
 2246DOPG   C4B48816   8.470   9.458  18.199  0.0617 -0.1065  0.1315
 2247DOPG   GL048817  18.231  24.797  17.398 -0.4948  0.2783 -0.0692
 2247DOPG   PO448818  18.182  24.413  17.716 -0.1333  0.2173  0.3276
 2247DOPG   GL148819  17.937  24.143  17.843 -0.3555 -0.2363 -0.0125
 2247DOPG   GL248820  17.861  24.133  18.211  0.1960 -0.0702 -0.0320
 2247DOPG   C1A48821  17.960  23.609  17.757  0.1017  0.0159  0.2110
 2247DOPG   D2A48822  18.299  23.295  17.798  0.2212  0.0837  0.0199
 2247DOPG   C3A48823  18.206  22.910  17.596  0.2050  0.1016 -0.2201
 2247DOPG   C4A48824  18.353  22.782  17.209  0.4997 -0.0291  0.0881
 2247DOPG   C1B48825  17.538  23.797  18.145 -0.2271  0.0484  0.0148
 2247DOPG   D2B48826  17.416  23.498  17.915 -0.0118  0.1644 -0.2665
 2247DOPG   C3B48827  17.740  23.172  17.922  0.1095 -0.2896  0.2952
 2247DOPG   C4B48828  17.722  22.748  17.816 -0.0227 -0.0741  0.1694
 2248DOPG   GL048829  19.892  11.840  21.534 -0.0584  0.0199 -0.2361
 2248DOPG   PO448830  19.813  12.026  21.918  0.2994  0.1796  0.2312
 2248DOPG   GL148831  19.532  12.303  21.790  0.1982 -0.0583 -0.4692
 2248DOPG   GL248832  19.638  12.498  21.549 -0.2265  0.0280 -0.2930
 2248DOPG   C1A48833  19.273  12.722  21.848  0.1276 -0.0914  0.0131
 2248DOPG   D2A48834  19.250  13.112  21.926  0.1939  0.1864 -0.0534
 2248DOPG   C3A48835  18.829  13.155  21.762  0.0208  0.1159 -0.2976
 2248DOPG   C4A48836  18.390  13.334  21.796 -0.1160 -0.2409 -0.0494
 2248DOPG   C1B48837  19.375  12.914  21.391 -0.0322  0.0297  0.2127
 2248DOPG   D2B48838  19.099  13.205  21.326  0.0639 -0.5373 -0.2952
 2248DOPG   C3B48839  19.363  13.546  21.525 -0.1324 -0.1038 -0.0473
 2248DOPG   C4B48840  19.458  13.574  21.894 -0.3331 -0.6372 -0.2129
 2249DOPG   GL048841  16.756  20.157  23.167  0.0103  0.3864 -0.1558
 2249DOPG   PO448842  16.703  19.707  23.082  0.0286 -0.1692  0.1153
 2249DOPG   GL148843  16.686  19.307  22.861 -0.2463 -0.1066 -0.0179
 2249DOPG   GL248844  16.427  19.073  22.960  0.1081 -0.0909  0.0198
 2249DOPG   C1A48845  16.666  19.016  22.501  0.3630  0.0686 -0.3112
 2249DOPG   D2A48846  16.437  18.575  22.302 -0.2097  0.1408  0.0381
 2249DOPG   C3A48847  16.571  18.152  22.539  0.0179 -0.0353  0.0224
 2249DOPG   C4A48848  16.529  17.701  22.472 -0.2298  0.1128  0.3208
 2249DOPG   C1B48849  16.069  19.052  22.598  0.0335  0.2866 -0.1093
 2249DOPG   D2B48850  15.804  19.200  22.239  0.2605 -0.1402 -0.0626
 2249DOPG   C3B48851  15.410  19.305  22.263  0.0357  0.2237  0.0745
 2249DOPG   C4B48852  15.125  19.187  22.172  0.2757 -0.0983 -0.0350
 2250DOPG   GL048853  22.964  22.117  20.288 -0.0971  0.2731  0.2245
 2250DOPG   PO448854  23.196  22.042  20.613  0.1747  0.2620 -0.0932
 2250DOPG   GL148855  23.474  21.717  20.488 -0.0315 -0.1183  0.1146
 2250DOPG   GL248856  23.430  21.478  20.632  0.1803 -0.1891  0.3622
 2250DOPG   C1A48857  23.382  21.376  20.093 -0.0381  0.1617  0.1273
 2250DOPG   D2A48858  23.373  20.858  20.117  0.2193 -0.1989 -0.0736
 2250DOPG   C3A48859  23.703  20.606  19.919  0.0262 -0.1629  0.2548
 2250DOPG   C4A48860  24.102  20.616  19.658  0.0620  0.0558 -0.2413
 2250DOPG   C1B48861  23.783  21.263  20.509  0.2028  0.2777 -0.3215
 2250DOPG   D2B48862  24.107  21.177  20.135 -0.3431  0.1072 -0.2214
 2250DOPG   C3B48863  24.438  21.142  20.144 -0.0524  0.1520  0.2440
 2250DOPG   C4B48864  24.775  21.282  20.028  0.1895 -0.0445 -0.0067
 2251DOPG   GL048865  15.505  24.997  17.424 -0.1123  0.0001  0.3507
 2251DOPG   PO448866  15.118  24.833  17.654  0.1222 -0.0651  0.0122
 2251DOPG   GL148867  15.036  24.420  17.549  0.1521 -0.2945  0.2104
 2251DOPG   GL248868  14.691  24.455  17.703 -0.1233  0.0186  0.2522
 2251DOPG   C1A48869  15.171  24.066  17.843 -0.5615 -0.1427 -0.3048
 2251DOPG   D2A48870  15.040  23.667  17.822 -0.3115 -0.2749 -0.1615
 2251DOPG   C3A48871  15.345  23.346  17.755  0.0219  0.0267 -0.4483
 2251DOPG   C4A48872  15.745  23.147  17.401  0.1166 -0.3788 -0.3468
 2251DOPG   C1B48873  14.862  23.990  17.466  0.0347  0.0849  0.6420
 2251DOPG   D2B48874  15.003  23.535  17.264 -0.0745  0.1067  0.2321
 2251DOPG   C3B48875  15.354  23.211  17.104  0.1910  0.0481 -0.0278
 2251DOPG   C4B48876  15.750  23.227  16.920  0.0799 -0.5576 -0.0305
 2252DOPG   GL048877  14.057   9.153  21.319 -0.0052 -0.2734 -0.1973
 2252DOPG   PO448878  14.148   8.663  21.272 -0.3345  0.0639  0.1684
 2252DOPG   GL148879  14.264   8.852  20.898 -0.1662  0.0484 -0.2257
 2252DOPG   GL248880  13.932   8.904  20.778  0.1378  0.0544 -0.1059
 2252DOPG   C1A48881  14.362   8.756  20.498  0.0084 -0.0451 -0.1012
 2252DOPG   D2A48882  14.096   8.844  20.124 -0.0666  0.1966 -0.2410
 2252DOPG   C3A48883  14.205   8.806  19.704 -0.2060 -0.1833 -0.1185
 2252DOPG   C4A48884  14.095   8.901  19.276 -0.0969 -0.3600  0.3267
 2252DOPG   C1B48885  13.805   9.103  20.405  0.0024  0.1497 -0.0835
 2252DOPG   D2B48886  13.585   9.434  20.054 -0.0429 -0.0216 -0.2589
 2252DOPG   C3B48887  13.780   9.685  19.986 -0.0161 -0.3775 -0.1321
 2252DOPG   C4B48888  14.039   9.808  19.644  0.1306 -0.1052  0.1384
 2253DOPG   GL048889  11.754   8.497  22.025  0.0781  0.1650  0.1725
 2253DOPG   PO448890  11.949   8.572  21.588 -0.2689 -0.0608  0.2078
 2253DOPG   GL148891  11.819   8.908  21.235 -0.3694  0.0344 -0.2464
 2253DOPG   GL248892  11.566   9.149  21.334 -0.1477 -0.2210  0.0036
 2253DOPG   C1A48893  11.638   8.784  20.798 -0.1024  0.3239  0.0388
 2253DOPG   D2A48894  11.555   8.687  20.498 -0.0008  0.0131  0.1205
 2253DOPG   C3A48895  11.456   8.801  20.090  0.0612  0.0984  0.1520
 2253DOPG   C4A48896  11.424   9.195  19.803  0.1331  0.1402  0.1425
 2253DOPG   C1B48897  11.380   9.207  20.935  0.1127  0.4371  0.3387
 2253DOPG   D2B48898  11.637   9.209  20.548  0.3331 -0.2253  0.0816
 2253DOPG   C3B48899  11.889   8.954  20.298 -0.0923 -0.1493  0.1972
 2253DOPG   C4B48900  12.228   8.601  20.402 -0.1531  0.0127 -0.1529
 2254DOPG   GL048901   9.711  23.290  21.469  0.0765 -0.0730  0.1087
 2254DOPG   PO448902   9.438  23.074  21.212 -0.3114 -0.1538  0.1567
 2254DOPG   GL148903   9.264  22.799  20.805 -0.1203 -0.1386  0.2658
 2254DOPG   GL248904   8.854  22.848  20.756  0.0754  0.0095  0.1881
 2254DOPG   C1A48905   9.156  22.610  20.408  0.0596  0.1056  0.1228
 2254DOPG   D2A48906   8.965  22.396  20.129  0.2768  0.1947  0.0409
 2254DOPG   C3A48907   9.081  22.236  19.716 -0.1367  0.0347 -0.1789
 2254DOPG   C4A48908   8.777  21.961  19.444  0.0793  0.0616 -0.0839
 2254DOPG   C1B48909   8.586  22.566  20.592  0.0150  0.2578  0.0059
 2254DOPG   D2B48910   8.451  22.224  20.305 -0.0973 -0.2378  0.1621
 2254DOPG   C3B48911   8.250  21.791  20.282 -0.1250 -0.1452  0.2361
 2254DOPG   C4B48912   7.889  21.540  20.099 -0.2826 -0.4386 -0.1165
 2255DOPG   GL048913  19.532  21.963  21.561 -0.2319  0.1372 -0.4401
 2255DOPG   PO448914  19.852  22.042  21.123 -0.0227 -0.0927  0.2406
 2255DOPG   GL148915  19.951  22.197  20.723  0.1444  0.0581  0.0929
 2255DOPG   GL248916  20.203  22.232  20.738  0.0291 -0.0095  0.1111
 2255DOPG   C1A48917  19.846  22.066  20.246  0.2191 -0.0014 -0.2632
 2255DOPG   D2A48918  20.142  22.009  19.872 -0.1847 -0.0074 -0.1377
 2255DOPG   C3A48919  20.250  21.616  19.713 -0.2036  0.3177  0.0752
 2255DOPG   C4A48920  20.445  21.241  19.426 -0.4823 -0.1599  0.0099
 2255DOPG   C1B48921  20.329  22.096  20.320 -0.0637 -0.1947  0.1149
 2255DOPG   D2B48922  20.591  21.778  20.094  0.1471  0.1895  0.0229
 2255DOPG   C3B48923  20.707  21.430  19.791 -0.1365  0.1852 -0.2038
 2255DOPG   C4B48924  20.735  20.987  19.694  0.3690  0.0020  0.0057
 2256DOPG   GL048925  20.314  20.429  22.310 -0.2283  0.0681  0.0646
 2256DOPG   PO448926  19.932  20.200  22.224 -0.0256  0.3404  0.1774
 2256DOPG   GL148927  19.666  19.965  22.016  0.3481 -0.2595  0.2144
 2256DOPG   GL248928  19.513  19.683  22.200 -0.0668  0.0416 -0.2234
 2256DOPG   C1A48929  19.280  19.963  21.777  0.2229  0.2634  0.0926
 2256DOPG   D2A48930  18.898  20.149  21.742  0.1804  0.2428  0.0945
 2256DOPG   C3A48931  18.883  20.495  21.496 -0.1053  0.2861  0.1421
 2256DOPG   C4A48932  18.893  20.924  21.522 -0.2324 -0.3614 -0.1323
 2256DOPG   C1B48933  19.407  19.435  21.864 -0.2516 -0.1759 -0.1347
 2256DOPG   D2B48934  19.107  19.150  21.772 -0.2203  0.0032 -0.0056
 2256DOPG   C3B48935  18.828  19.128  21.403 -0.0257  0.0778  0.3878
 2256DOPG   C4B48936  18.950  19.185  20.991  0.1227  0.2553  0.0236
 2257DOPG   GL048937  22.423  14.578  22.435 -0.1831  0.2388 -0.2194
 2257DOPG   PO448938  22.859  14.408  22.445 -0.2826  0.0213 -0.2767
 2257DOPG   GL148939  22.691  14.539  22.005 -0.1118 -0.0495 -0.0013
 2257DOPG   GL248940  22.584  14.913  22.063 -0.1019  0.1669 -0.2399
 2257DOPG   C1A48941  22.380  14.443  21.536  0.2647 -0.0864  0.3246
 2257DOPG   D2A48942  22.269  14.397  21.044 -0.0760  0.2021 -0.1513
 2257DOPG   C3A48943  22.595  14.604  20.780 -0.5572  0.1392 -0.2134
 2257DOPG   C4A48944  23.026  14.699  20.768  0.0226 -0.2849 -0.0517
 2257DOPG   C1B48945  22.656  14.954  21.648 -0.0409  0.0126  0.1140
 2257DOPG   D2B48946  22.631  15.280  21.336  0.1021 -0.2056  0.2670
 2257DOPG   C3B48947  22.656  15.073  20.989  0.1033  0.1669  0.0976
 2257DOPG   C4B48948  23.013  15.233  20.724  0.1199  0.3342  0.1657
 2258DOPG   GL048949  14.446  24.983  16.695  0.1734 -0.0256 -0.1976
 2258DOPG   PO448950  14.616  25.036  17.061 -0.3781 -0.4101  0.1514
 2258DOPG   GL148951  14.578  24.535  17.138 -0.4990  0.0769  0.2522
 2258DOPG   GL248952  14.732  24.533  16.826  0.1082 -0.0160 -0.0769
 2258DOPG   C1A48953  14.562  24.073  17.073  0.2845 -0.1532 -0.0911
 2258DOPG   D2A48954  14.288  23.696  17.098  0.2582 -0.3955 -0.0336
 2258DOPG   C3A48955  14.003  23.466  16.805  0.1261  0.1086 -0.4868
 2258DOPG   C4A48956  13.590  23.504  16.618 -0.3658 -0.1162 -0.1231
 2258DOPG   C1B48957  14.707  24.164  16.610  0.4244  0.0074 -0.2507
 2258DOPG   D2B48958  14.986  23.884  16.413  0.0184 -0.1798  0.3235
 2258DOPG   C3B48959  14.911  23.489  16.314 -0.1057  0.0624  0.0939
 2258DOPG   C4B48960  14.754  23.140  16.376  0.1269 -0.0069  0.2950
 2259DOPG   GL048961  12.638  10.574  22.579  0.2892 -0.1613 -0.2009
 2259DOPG   PO448962  12.366  10.193  22.647 -0.0419  0.1484  0.0465
 2259DOPG   GL148963  12.163  10.498  22.337 -0.2381  0.0362 -0.1523
 2259DOPG   GL248964  12.132  10.756  22.248  0.0322  0.2789 -0.2822
 2259DOPG   C1A48965  12.044  10.422  21.890 -0.1771  0.0205 -0.1630
 2259DOPG   D2A48966  12.011  10.405  21.371  0.2329  0.2446  0.1410
 2259DOPG   C3A48967  12.313  10.025  21.048  0.3604 -0.0029 -0.2707
 2259DOPG   C4A48968  12.286   9.909  20.689 -0.0787 -0.2035  0.1462
 2259DOPG   C1B48969  12.068  11.081  21.920  0.2602 -0.0281  0.3078
 2259DOPG   D2B48970  11.963  11.164  21.498  0.2193 -0.0564  0.2135
 2259DOPG   C3B48971  12.139  11.390  21.166  0.0231 -0.0794 -0.0116
 2259DOPG   C4B48972  12.167  11.732  20.764  0.0695 -0.2676 -0.1804
 2260DOPG   GL048973  23.794  14.615  22.420  0.1175 -0.2220  0.2967
 2260DOPG   PO448974  23.936  14.355  22.021  0.1094  0.0690  0.1501
 2260DOPG   GL148975  23.892  14.624  21.712  0.2263 -0.1158  0.3883
 2260DOPG   GL248976  23.692  14.427  21.529 -0.0366  0.2502  0.1219
 2260DOPG   C1A48977  23.874  14.868  21.223  0.2281  0.0660  0.4255
 2260DOPG   D2A48978  23.957  14.855  20.802 -0.0294 -0.0223 -0.0198
 2260DOPG   C3A48979  23.778  15.152  20.467 -0.2175 -0.3422 -0.0762
 2260DOPG   C4A48980  23.729  15.522  20.203 -0.1652 -0.1949 -0.2355
 2260DOPG   C1B48981  23.488  14.871  21.606 -0.3815  0.2237  0.1333
 2260DOPG   D2B48982  23.510  15.344  21.640 -0.2873 -0.1239  0.0722
 2260DOPG   C3B48983  23.285  15.724  21.594 -0.1288  0.1192  0.3770
 2260DOPG   C4B48984  23.105  16.119  21.497  0.1142 -0.1672  0.0400
 2261DOPG   GL048985   6.062  13.569  19.961 -0.0301 -0.1541 -0.2176
 2261DOPG   PO448986   6.312  13.676  20.335  0.0871 -0.2967 -0.2031
 2261DOPG   GL148987   6.676  13.813  20.169  0.0274  0.3725 -0.1629
 2261DOPG   GL248988   6.612  13.710  19.844  0.0584  0.1710 -0.2427
 2261DOPG   C1A48989   7.067  14.012  20.019 -0.1020 -0.0053 -0.1506
 2261DOPG   D2A48990   7.427  14.011  19.731  0.6897  0.4283  0.1125
 2261DOPG   C3A48991   7.744  13.608  19.630 -0.2510 -0.0963  0.2126
 2261DOPG   C4A48992   7.816  13.285  19.848 -0.0990  0.3545 -0.1532
 2261DOPG   C1B48993   6.942  13.792  19.496  0.4634  0.0575  0.1178
 2261DOPG   D2B48994   6.900  13.713  19.013 -0.1113 -0.1069  0.0814
 2261DOPG   C3B48995   7.189  13.981  18.809 -0.1843  0.1182  0.3629
 2261DOPG   C4B48996   7.409  14.442  18.878 -0.4446 -0.2192  0.1566
 2262DOPG   GL048997  18.850  24.189  19.725 -0.0907 -0.3861 -0.2499
 2262DOPG   PO448998  19.131  23.994  19.515  0.1811 -0.3641  0.0933
 2262DOPG   GL148999  19.080  23.698  19.246 -0.1420  0.3076  0.5316
 2262DOPG   GL249000  19.406  23.606  19.235  0.1560  0.1159  0.2097
 2262DOPG   C1A49001  18.877  23.237  19.303 -0.2212 -0.3338 -0.0773
 2262DOPG   D2A49002  19.034  22.913  19.287 -0.0690 -0.3533 -0.0076
 2262DOPG   C3A49003  18.913  22.526  19.143  0.1748 -0.0265  0.4783
 2262DOPG   C4A49004  19.254  22.182  19.257  0.1177 -0.2329  0.0802
 2262DOPG   C1B49005  19.348  23.330  19.552  0.1790 -0.3894  0.1536
 2262DOPG   D2B49006  19.519  22.877  19.635 -0.0790  0.0337 -0.0104
 2262DOPG   C3B49007  19.230  22.489  19.673  0.0612  0.2744  0.0316
 2262DOPG   C4B49008  18.708  22.333  19.597 -0.0643  0.2463  0.1296
 2263DOPG   GL049009  21.209  10.788  18.392  0.0719  0.0424 -0.0286
 2263DOPG   PO449010  20.849  10.938  18.288 -0.0942 -0.2400 -0.1849
 2263DOPG   GL149011  20.649  11.229  18.378 -0.0112 -0.0048  0.2291
 2263DOPG   GL249012  20.887  11.351  18.664 -0.2580 -0.1553  0.1159
 2263DOPG   C1A49013  20.257  11.436  18.153  0.0006  0.2898 -0.0758
 2263DOPG   D2A49014  19.755  11.258  18.025 -0.2333 -0.3762 -0.0719
 2263DOPG   C3A49015  19.715  10.769  17.964 -0.0166 -0.1140 -0.0406
 2263DOPG   C4A49016  19.521  10.409  17.828 -0.1436 -0.1542 -0.1520
 2263DOPG   C1B49017  21.000  11.761  18.674  0.1276 -0.3986  0.0599
 2263DOPG   D2B49018  21.015  12.070  19.037  0.2212  0.1092  0.0340
 2263DOPG   C3B49019  20.812  12.388  18.993  0.3805  0.0328  0.0983
 2263DOPG   C4B49020  20.807  12.806  19.139  0.1719  0.0922  0.2649
 2264DOPG   GL049021   7.050  15.925  21.348  0.0843 -0.0284  0.1933
 2264DOPG   PO449022   7.280  16.099  21.008 -0.3093  0.2137  0.0025
 2264DOPG   GL149023   7.435  16.056  20.582 -0.1108 -0.0819  0.2041
 2264DOPG   GL249024   7.230  15.860  20.359  0.0972  0.0398  0.2814
 2264DOPG   C1A49025   7.694  16.076  20.248  0.1142  0.0701 -0.2710
 2264DOPG   D2A49026   8.014  15.979  19.912 -0.0025 -0.4175 -0.1122
 2264DOPG   C3A49027   8.466  15.718  20.024 -0.2384 -0.0462 -0.1523
 2264DOPG   C4A49028   8.805  15.681  20.346 -0.2328  0.0328  0.0595
 2264DOPG   C1B49029   7.320  16.126  19.937  0.0210  0.3214  0.0325
 2264DOPG   D2B49030   7.633  16.408  19.649 -0.2021  0.2068 -0.3529
 2264DOPG   C3B49031   7.494  16.534  19.232  0.0813 -0.0114  0.1806
 2264DOPG   C4B49032   7.246  16.616  18.916  0.0989  0.1224 -0.3188
 2265DOPG   GL049033  15.299  20.977  22.946  0.1369  0.1118  0.0536
 2265DOPG   PO449034  15.420  21.220  22.640  0.1141  0.4405 -0.0549
 2265DOPG   GL149035  15.695  20.995  22.224  0.1274 -0.1403  0.0930
 2265DOPG   GL249036  15.669  21.335  22.069  0.0149  0.2592 -0.1363
 2265DOPG   C1A49037  15.975  20.749  22.027  0.3010  0.2335 -0.1281
 2265DOPG   D2A49038  16.030  20.567  21.716 -0.2564  0.1165 -0.2683
 2265DOPG   C3A49039  15.989  20.657  21.255 -0.2452  0.1275 -0.2966
 2265DOPG   C4A49040  16.146  20.923  20.997  0.1424 -0.2450 -0.3271
 2265DOPG   C1B49041  15.528  21.022  21.755  0.2393 -0.1168 -0.0106
 2265DOPG   D2B49042  15.558  20.598  21.619  0.0929 -0.0953 -0.2165
 2265DOPG   C3B49043  15.628  20.338  21.224 -0.4313  0.4321 -0.2740
 2265DOPG   C4B49044  15.950  20.177  20.966  0.1925  0.2883 -0.3077
 2266DOPG   GL049045   9.105  23.815  20.868 -0.1666 -0.2743 -0.1404
 2266DOPG   PO449046   8.651  23.560  20.803 -0.0575 -0.1698  0.6395
 2266DOPG   GL149047   8.725  23.255  20.519  0.1372 -0.0700  0.0370
 2266DOPG   GL249048   8.464  23.293  20.242  0.0697  0.0156  0.4274
 2266DOPG   C1A49049   8.718  22.838  20.211  0.2514  0.3162  0.0007
 2266DOPG   D2A49050   9.020  22.808  19.851  0.0307 -0.0835 -0.0324
 2266DOPG   C3A49051   9.407  23.079  19.837 -0.1708 -0.5181  0.0407
 2266DOPG   C4A49052   9.732  23.085  19.753  0.0486  0.1064 -0.0639
 2266DOPG   C1B49053   8.179  22.896  20.308  0.0202 -0.1750  0.1271
 2266DOPG   D2B49054   8.002  22.584  20.179 -0.2781  0.2843  0.0693
 2266DOPG   C3B49055   7.872  22.462  19.700 -0.0278  0.4357  0.0456
 2266DOPG   C4B49056   7.605  22.610  19.347 -0.3325 -0.2545  0.2422
 2267DOPG   GL049057  21.854  13.277  21.732  0.0246  0.0266 -0.0341
 2267DOPG   PO449058  21.806  12.843  21.657 -0.0413 -0.2062 -0.0968
 2267DOPG   GL149059  21.736  12.942  21.307 -0.1095 -0.0356  0.1795
 2267DOPG   GL249060  21.661  12.816  20.933  0.0164 -0.0687  0.1322
 2267DOPG   C1A49061  21.615  13.354  21.299 -0.2229 -0.3647  0.1328
 2267DOPG   D2A49062  21.484  13.651  21.616  0.0287  0.2449  0.0357
 2267DOPG   C3A49063  21.282  14.035  21.609  0.1425  0.2046 -0.0444
 2267DOPG   C4A49064  21.416  14.307  21.332  0.0166  0.4526 -0.1394
 2267DOPG   C1B49065  21.326  13.077  20.983  0.1611  0.1062 -0.2133
 2267DOPG   D2B49066  21.120  13.330  20.744  0.0848 -0.2104 -0.0156
 2267DOPG   C3B49067  21.116  13.716  20.822  0.0940  0.0800  0.3178
 2267DOPG   C4B49068  21.049  14.088  21.061  0.4107  0.2393  0.0721
 2268DOPG   GL049069  16.449  20.859  22.223  0.1706  0.1367  0.2148
 2268DOPG   PO449070  16.708  20.736  22.538  0.0498 -0.2221 -0.0469
 2268DOPG   GL149071  16.528  20.263  22.295 -0.5771 -0.0190 -0.1398
 2268DOPG   GL249072  16.238  20.124  22.423 -0.2339 -0.0073  0.0197
 2268DOPG   C1A49073  16.607  19.839  22.234  0.1157  0.2041 -0.0843
 2268DOPG   D2A49074  16.645  19.668  21.887 -0.1367 -0.2066  0.1317
 2268DOPG   C3A49075  16.676  20.169  21.753  0.0279  0.0481 -0.2438
 2268DOPG   C4A49076  16.450  20.537  21.422 -0.0988  0.1541  0.0604
 2268DOPG   C1B49077  16.164  19.786  22.148  0.1867  0.2143 -0.1354
 2268DOPG   D2B49078  16.406  19.362  22.218  0.0257 -0.3466  0.1075
 2268DOPG   C3B49079  16.215  18.940  22.068 -0.0712  0.2210 -0.1359
 2268DOPG   C4B49080  15.936  18.913  21.822  0.3865  0.3238 -0.1227
 2269DOPG   GL049081  13.265  18.992  23.316 -0.0918 -0.0263 -0.1879
 2269DOPG   PO449082  13.486  18.780  23.778 -0.3501  0.1434  0.1907
 2269DOPG   GL149083  13.587  18.531  23.432  0.0799  0.1348  0.3205
 2269DOPG   GL249084  13.337  18.414  23.320 -0.0108 -0.1887 -0.2146
 2269DOPG   C1A49085  13.733  18.376  23.020  0.1229  0.0405  0.3200
 2269DOPG   D2A49086  13.899  18.105  22.626  0.0713  0.1882  0.4147
 2269DOPG   C3A49087  14.153  17.797  22.667 -0.0042  0.0289 -0.0567
 2269DOPG   C4A49088  14.436  17.515  22.754 -0.1981 -0.2019  0.2269
 2269DOPG   C1B49089  13.261  18.485  22.986  0.1825 -0.2100  0.3770
 2269DOPG   D2B49090  13.503  18.632  22.639  0.0541  0.1409 -0.1645
 2269DOPG   C3B49091  13.821  18.560  22.438 -0.1237 -0.0141 -0.2193
 2269DOPG   C4B49092  14.108  18.558  22.098 -0.5870 -0.1239 -0.0803
 2270DOPG   GL049093  10.858  19.478  22.711 -0.1032 -0.1315 -0.1777
 2270DOPG   PO449094  11.068  19.402  23.077 -0.0915  0.0364  0.3291
 2270DOPG   GL149095  11.338  19.334  22.789 -0.0659  0.2310 -0.1894
 2270DOPG   GL249096  11.318  19.467  22.475  0.0623  0.0476  0.0532
 2270DOPG   C1A49097  11.586  19.106  22.432  0.0579  0.6044 -0.2155
 2270DOPG   D2A49098  11.736  18.982  22.034  0.4381  0.0621 -0.1993
 2270DOPG   C3A49099  11.996  18.740  22.147  0.1223  0.2886 -0.0497
 2270DOPG   C4A49100  12.142  18.510  22.522 -0.0546  0.0331  0.0333
 2270DOPG   C1B49101  11.316  19.354  21.966  0.1968 -0.0021 -0.1034
 2270DOPG   D2B49102  11.526  19.269  21.632  0.1180 -0.0626  0.4391
 2270DOPG   C3B49103  11.723  19.344  21.329 -0.0436  0.1753  0.0652
 2270DOPG   C4B49104  12.206  19.383  21.250  0.0629 -0.0306 -0.1706
 2271DOPG   GL049105   9.274  10.157  22.406  0.1461  0.1656 -0.0359
 2271DOPG   PO449106   9.844  10.208  22.382  0.0162  0.2623 -0.2972
 2271DOPG   GL149107  10.220  10.271  22.169  0.0138 -0.0538  0.1737
 2271DOPG   GL249108  10.082  10.052  21.972  0.1551  0.1152 -0.1298
 2271DOPG   C1A49109  10.511  10.370  21.888  0.0511  0.0898 -0.3147
 2271DOPG   D2A49110  10.964  10.389  21.744 -0.3955  0.0845  0.3520
 2271DOPG   C3A49111  10.983  10.257  21.326  0.0860 -0.2519 -0.4138
 2271DOPG   C4A49112  10.772   9.850  21.309  0.0393 -0.1500  0.1263
 2271DOPG   C1B49113   9.995  10.371  21.718 -0.0601 -0.1410  0.3070
 2271DOPG   D2B49114  10.171  10.521  21.372  0.0856 -0.2430 -0.1362
 2271DOPG   C3B49115  10.070  10.699  21.001  0.0246 -0.3008 -0.2533
 2271DOPG   C4B49116   9.998  10.978  20.621 -0.1120 -0.0841 -0.1698
 2272DOPG   GL049117  22.601  21.963  20.596  0.1329  0.2402 -0.0866
 2272DOPG   PO449118  22.482  21.506  20.751  0.1057 -0.1065  0.4813
 2272DOPG   GL149119  22.699  21.495  20.433 -0.1167  0.0271 -0.1315
 2272DOPG   GL249120  22.981  21.595  20.414  0.3210 -0.0754  0.0396
 2272DOPG   C1A49121  22.787  21.199  20.067  0.0974 -0.1643 -0.0170
 2272DOPG   D2A49122  23.017  20.885  19.840  0.0663  0.0913  0.0203
 2272DOPG   C3A49123  23.215  20.479  19.706 -0.0001 -0.0239 -0.2122
 2272DOPG   C4A49124  23.434  20.071  19.720  0.3214 -0.4280  0.1498
 2272DOPG   C1B49125  22.990  21.710  19.990  0.0155  0.1469  0.3065
 2272DOPG   D2B49126  23.203  21.519  19.612 -0.0597  0.0387 -0.2219
 2272DOPG   C3B49127  23.707  21.481  19.491  0.4640  0.2531 -0.0570
 2272DOPG   C4B49128  24.086  21.322  19.165 -0.0522 -0.0663 -0.0020
 2273DOPG   GL049129   8.460  12.958  21.943  0.1698  0.0105 -0.3157
 2273DOPG   PO449130   8.692  13.207  22.258 -0.4923  0.0379  0.2327
 2273DOPG   GL149131   8.928  13.277  21.859 -0.0129  0.0487 -0.2723
 2273DOPG   GL249132   8.680  13.368  21.570  0.0686  0.0269 -0.6739
 2273DOPG   C1A49133   9.195  12.968  21.777  0.0380 -0.2667  0.0969
 2273DOPG   D2A49134   9.144  12.650  21.325  0.0077  0.0333 -0.0105
 2273DOPG   C3A49135   9.353  12.910  20.952  0.0465  0.1971  0.0239
 2273DOPG   C4A49136   9.687  13.103  20.672  0.0622  0.2583  0.3388
 2273DOPG   C1B49137   8.827  13.500  21.178 -0.2714  0.0691 -0.0556
 2273DOPG   D2B49138   9.015  13.416  20.768 -0.2014 -0.0005  0.0826
 2273DOPG   C3B49139   8.776  13.196  20.487 -0.1238  0.3425  0.1646
 2273DOPG   C4B49140   8.874  13.195  20.045 -0.4334 -0.2522  0.0937
 2274DOPG   GL049141  18.004  16.938  23.871 -0.0085  0.3536 -0.1921
 2274DOPG   PO449142  17.574  17.055  23.894  0.0815  0.0745 -0.0658
 2274DOPG   GL149143  17.359  16.947  23.465  0.0536  0.1889 -0.2323
 2274DOPG   GL249144  17.018  16.925  23.496 -0.1210  0.1862  0.1554
 2274DOPG   C1A49145  17.245  16.607  23.200  0.0680 -0.4339 -0.0719
 2274DOPG   D2A49146  17.347  16.613  22.847 -0.0824  0.1044 -0.0701
 2274DOPG   C3A49147  17.111  16.418  22.602 -0.1750 -0.0283 -0.2054
 2274DOPG   C4A49148  17.004  16.027  22.597 -0.1771  0.0425  0.2889
 2274DOPG   C1B49149  16.977  17.077  23.039 -0.0619  0.0953 -0.1393
 2274DOPG   D2B49150  16.664  17.205  22.795  0.0394 -0.2794 -0.2683
 2274DOPG   C3B49151  16.314  17.407  23.019 -0.2434  0.1781  0.1128
 2274DOPG   C4B49152  15.956  17.533  22.975 -0.0512 -0.2770  0.2078
 2275DOPG   GL049153   9.085  16.080  22.618  0.1028  0.2655  0.0795
 2275DOPG   PO449154   9.258  16.171  22.276  0.3316 -0.1559  0.1274
 2275DOPG   GL149155   9.359  16.251  21.954 -0.2467 -0.2453 -0.2996
 2275DOPG   GL249156   9.690  16.279  21.849 -0.0548 -0.2457 -0.1930
 2275DOPG   C1A49157   9.313  16.231  21.504 -0.0142  0.1075  0.4374
 2275DOPG   D2A49158   9.185  16.578  21.182  0.1660  0.0265  0.0131
 2275DOPG   C3A49159   9.541  16.875  21.086  0.3324 -0.0728  0.1190
 2275DOPG   C4A49160   9.633  17.232  20.823  0.0906  0.3535 -0.1895
 2275DOPG   C1B49161   9.607  15.823  21.598 -0.0710  0.0807 -0.0733
 2275DOPG   D2B49162   9.472  15.429  21.397 -0.1715 -0.1059  0.3065
 2275DOPG   C3B49163   9.132  15.265  21.300  0.0308 -0.4680  0.0580
 2275DOPG   C4B49164   9.001  14.977  21.035  0.2405 -0.0175 -0.0437
 2276DOPG   GL049165  17.891   9.430  19.447 -0.1134 -0.2591  0.1323
 2276DOPG   PO449166  18.140   9.469  19.115 -0.0628  0.2337 -0.2053
 2276DOPG   GL149167  18.163   9.816  18.849 -0.0188  0.0775 -0.2098
 2276DOPG   GL249168  18.378   9.790  18.711 -0.2163  0.3196  0.0493
 2276DOPG   C1A49169  17.946  10.131  18.711 -0.3004  0.3689  0.2024
 2276DOPG   D2A49170  17.748  10.151  18.265  0.5155  0.0517 -0.2661
 2276DOPG   C3A49171  17.752  10.359  17.920 -0.3051 -0.0529 -0.0897
 2276DOPG   C4A49172  17.976  10.566  17.496  0.2698  0.1292  0.0005
 2276DOPG   C1B49173  18.480  10.281  18.670  0.0863 -0.1113  0.0315
 2276DOPG   D2B49174  18.319  10.552  18.814 -0.1474 -0.3890 -0.3291
 2276DOPG   C3B49175  18.497  11.030  18.919  0.0213  0.1346 -0.4786
 2276DOPG   C4B49176  18.839  11.300  18.835  0.0668  0.1174 -0.0710
 2277DOPG   GL049177  27.271  21.072  17.183 -0.0833 -0.0711  0.1291
 2277DOPG   PO449178  27.060  21.336  17.275  0.0865 -0.0447 -0.0524
 2277DOPG   GL149179  26.982  21.136  17.632  0.2510  0.4256 -0.1843
 2277DOPG   GL249180  26.971  20.768  17.602 -0.0637 -0.1770  0.3341
 2277DOPG   C1A49181  26.712  21.082  17.973  0.1042  0.1375  0.1228
 2277DOPG   D2A49182  26.248  21.009  18.137 -0.0615 -0.2302 -0.1761
 2277DOPG   C3A49183  25.941  20.838  17.954  0.0284 -0.1455  0.0477
 2277DOPG   C4A49184  25.582  20.488  17.793  0.2602 -0.0954 -0.0208
 2277DOPG   C1B49185  26.706  20.378  17.489 -0.2186 -0.0032 -0.0696
 2277DOPG   D2B49186  26.265  20.319  17.477  0.1187 -0.4160 -0.0784
 2277DOPG   C3B49187  26.020  20.359  17.963 -0.1237  0.3429  0.0809
 2277DOPG   C4B49188  25.776  20.071  18.008  0.0011 -0.0259 -0.0389
 2278DOPG   GL049189  22.998  20.699  20.572  0.2889 -0.2097  0.1213
 2278DOPG   PO449190  23.280  20.518  20.851  0.0452 -0.2698  0.1376
 2278DOPG   GL149191  23.513  20.474  20.579  0.2699 -0.0873  0.1669
 2278DOPG   GL249192  23.502  20.329  20.267  0.0395 -0.2862 -0.2800
 2278DOPG   C1A49193  23.885  20.689  20.370 -0.0838  0.1288 -0.0352
 2278DOPG   D2A49194  24.251  20.876  20.555  0.3864 -0.0443  0.0522
 2278DOPG   C3A49195  24.689  20.838  20.465  0.2656  0.0891 -0.2421
 2278DOPG   C4A49196  25.127  20.583  20.655 -0.0187  0.3052  0.0149
 2278DOPG   C1B49197  23.964  20.218  20.529  0.1117 -0.0286 -0.1366
 2278DOPG   D2B49198  24.142  20.392  20.912  0.0713 -0.4172 -0.2785
 2278DOPG   C3B49199  24.366  20.224  21.179  0.5072 -0.4301  0.1751
 2278DOPG   C4B49200  24.658  20.218  21.446 -0.4135 -0.0769 -0.1747
 2279DOPG   GL049201  19.395  20.784  22.460  0.2010 -0.0052 -0.0771
 2279DOPG   PO449202  18.980  20.735  22.457  0.3680  0.1337 -0.0224
 2279DOPG   GL149203  18.991  20.421  22.245 -0.3054  0.1395 -0.0551
 2279DOPG   GL249204  19.128  20.643  21.982  0.0438 -0.0277  0.3133
 2279DOPG   C1A49205  18.964  19.928  22.202  0.1685 -0.0580 -0.2514
 2279DOPG   D2A49206  18.857  19.625  21.931  0.0210 -0.4571  0.3302
 2279DOPG   C3A49207  18.966  19.640  21.532  0.3007  0.2044  0.1817
 2279DOPG   C4A49208  19.140  19.616  21.148  0.0457 -0.2759  0.1982
 2279DOPG   C1B49209  19.321  20.430  21.711  0.1174 -0.0151 -0.4205
 2279DOPG   D2B49210  19.514  20.017  21.360 -0.2061 -0.0716 -0.0663
 2279DOPG   C3B49211  19.637  19.621  21.493 -0.2746  0.0517 -0.2211
 2279DOPG   C4B49212  19.516  19.308  21.283 -0.2266 -0.2388 -0.2266
 2280DOPG   GL049213  20.034  10.202  17.198 -0.2607  0.1199  0.3850
 2280DOPG   PO449214  19.807  10.031  16.980  0.1826 -0.0296 -0.0656
 2280DOPG   GL149215  19.473  10.244  16.729  0.0637  0.1299 -0.1157
 2280DOPG   GL249216  19.275  10.180  16.510 -0.2320 -0.2174  0.0422
 2280DOPG   C1A49217  19.230  10.615  16.875 -0.1531 -0.1423  0.1834
 2280DOPG   D2A49218  19.350  10.979  17.026 -0.2894  0.1542  0.0950
 2280DOPG   C3A49219  19.385  11.295  17.279  0.1272 -0.0455  0.0645
 2280DOPG   C4A49220  19.539  11.551  17.703  0.1463  0.2274  0.2025
 2280DOPG   C1B49221  18.924  10.234  16.739 -0.0146  0.1581 -0.1931
 2280DOPG   D2B49222  18.727  10.433  17.118  0.0292  0.1438  0.3155
 2280DOPG   C3B49223  18.288  10.528  17.029  0.0857  0.0035 -0.1133
 2280DOPG   C4B49224  18.098  10.456  16.677 -0.0941 -0.1388 -0.1929
 2281DOPG   GL049225  21.375  17.246  22.273 -0.4577  0.0528 -0.1423
 2281DOPG   PO449226  21.018  17.420  22.347  0.1112 -0.0856  0.1224
 2281DOPG   GL149227  20.782  17.510  22.033 -0.3092 -0.0827 -0.0418
 2281DOPG   GL249228  20.842  17.791  21.924 -0.2420 -0.0284  0.1331
 2281DOPG   C1A49229  20.521  17.433  21.616 -0.1890  0.0762 -0.2375
 2281DOPG   D2A49230  20.290  17.006  21.640 -0.1263 -0.2375 -0.0616
 2281DOPG   C3A49231  19.850  17.094  21.723  0.3053  0.3320  0.0814
 2281DOPG   C4A49232  19.549  16.774  21.877 -0.0458 -0.0639 -0.0758
 2281DOPG   C1B49233  20.474  17.941  21.626 -0.3313 -0.0054 -0.2889
 2281DOPG   D2B49234  20.376  18.218  21.335 -0.1761 -0.0652  0.0248
 2281DOPG   C3B49235  20.401  18.032  20.950  0.0690  0.2005  0.1959
 2281DOPG   C4B49236  20.454  17.957  20.418 -0.0621  0.0104 -0.0543
 2282DOPG   GL049237  17.311  22.963  20.825  0.1021 -0.0976 -0.0977
 2282DOPG   PO449238  17.678  23.172  20.716  0.0122  0.1131  0.1321
 2282DOPG   GL149239  17.919  22.815  20.540  0.2974 -0.1109  0.0243
 2282DOPG   GL249240  17.784  22.541  20.594  0.3066 -0.0536 -0.0031
 2282DOPG   C1A49241  18.039  22.775  20.062  0.2913  0.1474  0.1377
 2282DOPG   D2A49242  18.318  22.550  19.820  0.3534 -0.1079 -0.2711
 2282DOPG   C3A49243  18.263  22.459  19.364  0.0493  0.0877 -0.3319
 2282DOPG   C4A49244  18.449  22.308  19.000 -0.0094  0.1120  0.1248
 2282DOPG   C1B49245  17.555  22.228  20.506 -0.0304 -0.1045  0.0963
 2282DOPG   D2B49246  17.718  21.801  20.324  0.0943 -0.3578  0.3186
 2282DOPG   C3B49247  18.124  21.601  20.164  0.1149  0.2573 -0.1250
 2282DOPG   C4B49248  18.567  21.561  20.096 -0.1782  0.1041 -0.0990
 2283DOPG   GL049249  16.924  11.664  22.289 -0.1118  0.2288 -0.1991
 2283DOPG   PO449250  16.695  11.959  22.489  0.1913 -0.2456 -0.2209
 2283DOPG   GL149251  16.616  12.021  22.074 -0.2129  0.0745  0.3592
 2283DOPG   GL249252  16.374  12.068  21.757 -0.1238 -0.2458 -0.1079
 2283DOPG   C1A49253  16.723  12.490  21.805  0.0941 -0.0650 -0.2207
 2283DOPG   D2A49254  16.636  12.740  21.401  0.1126  0.1632 -0.0021
 2283DOPG   C3A49255  16.982  13.043  21.197 -0.5302 -0.2063 -0.0632
 2283DOPG   C4A49256  16.991  13.253  20.774  0.0542 -0.0139 -0.0940
 2283DOPG   C1B49257  16.516  12.298  21.360  0.1333  0.2877 -0.1748
 2283DOPG   D2B49258  16.425  12.556  20.986  0.2486  0.1385  0.0777
 2283DOPG   C3B49259  16.600  12.921  20.872 -0.1617 -0.2500 -0.4634
 2283DOPG   C4B49260  16.561  13.345  21.001  0.3620  0.1775  0.0951
 2284DOPG   GL049261  17.806  17.804  23.683 -0.0434  0.3680 -0.1105
 2284DOPG   PO449262  17.685  18.204  23.574  0.1589  0.0663 -0.1362
 2284DOPG   GL149263  17.758  18.176  23.115 -0.0581 -0.0505 -0.1283
 2284DOPG   GL249264  17.898  18.479  22.988  0.1372  0.1445 -0.0378
 2284DOPG   C1A49265  17.503  18.125  22.718 -0.2387 -0.2495  0.1107
 2284DOPG   D2A49266  17.346  18.382  22.451 -0.1047 -0.1593  0.0083
 2284DOPG   C3A49267  16.911  18.576  22.547 -0.2972  0.1401  0.0260
 2284DOPG   C4A49268  16.841  18.751  22.879 -0.1274 -0.2770 -0.0597
 2284DOPG   C1B49269  17.900  18.469  22.589  0.1165 -0.1331 -0.0608
 2284DOPG   D2B49270  17.810  18.241  22.204 -0.0618 -0.0641 -0.1932
 2284DOPG   C3B49271  17.469  17.922  22.205 -0.0705 -0.0774 -0.0387
 2284DOPG   C4B49272  17.145  17.943  22.380 -0.0976  0.2026  0.2184
 2285DOPG   GL049273  15.105  11.519  22.450 -0.4682  0.1238 -0.3462
 2285DOPG   PO449274  14.769  11.512  22.275 -0.2447  0.3377 -0.0318
 2285DOPG   GL149275  14.818  11.613  21.930 -0.1623 -0.0815  0.0917
 2285DOPG   GL249276  15.033  11.469  21.651 -0.1535 -0.1334 -0.1185
 2285DOPG   C1A49277  14.523  11.468  21.633  0.1670  0.0123  0.1709
 2285DOPG   D2A49278  14.407  11.388  21.243 -0.0924  0.0044 -0.0662
 2285DOPG   C3A49279  14.024  11.314  21.221  0.0953  0.0040 -0.1105
 2285DOPG   C4A49280  13.642  11.559  21.332  0.3583 -0.1842 -0.1312
 2285DOPG   C1B49281  14.917  11.521  21.243 -0.2018 -0.1717 -0.0691
 2285DOPG   D2B49282  14.827  11.564  20.744 -0.2044 -0.1653 -0.0847
 2285DOPG   C3B49283  14.490  11.657  20.693 -0.1361  0.2089 -0.0618
 2285DOPG   C4B49284  14.040  11.655  20.911  0.0591  0.0209  0.4038
 2286DOPG   GL049285  10.431  24.509  20.281  0.0030 -0.0345  0.1080
 2286DOPG   PO449286  10.599  24.139  20.477 -0.3387  0.1595 -0.2090
 2286DOPG   GL149287  10.638  23.723  20.223  0.0772  0.1744 -0.2343
 2286DOPG   GL249288  10.316  23.572  20.122 -0.0158 -0.0769  0.2257
 2286DOPG   C1A49289  10.953  23.423  20.013  0.3957  0.0995 -0.0805
 2286DOPG   D2A49290  11.105  23.454  19.678 -0.0119 -0.3116 -0.0857
 2286DOPG   C3A49291  11.053  23.307  19.260 -0.2410 -0.1819  0.0795
 2286DOPG   C4A49292  10.892  23.355  18.853 -0.0368  0.1265 -0.1620
 2286DOPG   C1B49293  10.139  23.355  19.767 -0.1948  0.1355 -0.3216
 2286DOPG   D2B49294  10.271  22.989  19.486 -0.0863 -0.0308  0.1353
 2286DOPG   C3B49295  10.021  22.660  19.566  0.0119  0.1492  0.0278
 2286DOPG   C4B49296   9.815  22.378  19.223  0.1061 -0.0778  0.0094
 2287DOPG   GL049297  19.203  16.128  23.238  0.1221 -0.2043  0.0558
 2287DOPG   PO449298  18.990  15.756  23.472  0.1696 -0.2370  0.2933
 2287DOPG   GL149299  18.744  15.567  23.116  0.4552 -0.1968  0.1418
 2287DOPG   GL249300  19.000  15.544  22.995 -0.1224  0.2098  0.1443
 2287DOPG   C1A49301  18.486  15.490  22.683  0.0074  0.3952  0.0138
 2287DOPG   D2A49302  18.742  15.384  22.220  0.0713  0.1209  0.1870
 2287DOPG   C3A49303  19.094  15.174  22.144 -0.2077 -0.1408 -0.1654
 2287DOPG   C4A49304  19.492  14.947  22.314 -0.0531 -0.2631  0.1740
 2287DOPG   C1B49305  19.018  15.856  22.759  0.0873 -0.1257 -0.1365
 2287DOPG   D2B49306  18.915  16.218  22.555  0.2237 -0.0809 -0.2009
 2287DOPG   C3B49307  18.733  16.253  22.175  0.1010  0.0521  0.0045
 2287DOPG   C4B49308  18.657  16.187  21.740 -0.1663 -0.2956  0.2448
 2288DOPG   GL049309   8.643  20.429  21.324 -0.0065 -0.2315 -0.1443
 2288DOPG   PO449310   8.627  20.583  21.737  0.2064 -0.1969 -0.1194
 2288DOPG   GL149311   8.397  20.867  21.471  0.1551  0.3923  0.1064
 2288DOPG   GL249312   7.960  20.899  21.491 -0.1472 -0.0152  0.0875
 2288DOPG   C1A49313   8.470  21.057  21.130 -0.1769 -0.1292  0.0150
 2288DOPG   D2A49314   8.455  21.422  20.797  0.1521  0.0435  0.0351
 2288DOPG   C3A49315   8.120  21.332  20.560  0.2758  0.2422 -0.4247
 2288DOPG   C4A49316   7.818  21.074  20.389  0.0616  0.2692  0.1059
 2288DOPG   C1B49317   7.835  21.120  21.155 -0.1268  0.0052  0.0680
 2288DOPG   D2B49318   7.565  20.917  20.808  0.1430 -0.0462 -0.1316
 2288DOPG   C3B49319   7.254  21.105  20.541  0.0379 -0.2286  0.3941
 2288DOPG   C4B49320   7.036  20.763  20.248 -0.3400 -0.2284  0.1867
 2289DOPG   GL049321  15.409  16.218  24.546 -0.1833  0.0754 -0.2221
 2289DOPG   PO449322  15.447  15.888  24.267  0.0620  0.0471  0.0309
 2289DOPG   GL149323  15.705  16.007  23.979 -0.3275 -0.1601 -0.0761
 2289DOPG   GL249324  15.400  15.920  23.787  0.2011 -0.2794 -0.0149
 2289DOPG   C1A49325  15.783  16.263  23.488 -0.1050 -0.1712  0.0978
 2289DOPG   D2A49326  15.978  16.192  23.159  0.1690  0.1511 -0.2611
 2289DOPG   C3A49327  15.914  16.472  22.839  0.1576 -0.0694  0.0256
 2289DOPG   C4A49328  15.499  16.704  23.051 -0.3912 -0.0270 -0.0547
 2289DOPG   C1B49329  15.141  16.178  23.607 -0.2901 -0.0055  0.0112
 2289DOPG   D2B49330  14.797  16.492  23.401 -0.0778  0.1176  0.0583
 2289DOPG   C3B49331  14.659  16.621  23.081 -0.1828 -0.1036 -0.3446
 2289DOPG   C4B49332  14.324  16.376  22.884 -0.1402  0.0747 -0.1612
 2290DOPG   GL049333  20.884  11.941  21.687 -0.1261 -0.1283 -0.4130
 2290DOPG   PO449334  20.731  11.791  21.255  0.3207  0.1791  0.1835
 2290DOPG   GL149335  20.742  12.010  20.905  0.3988 -0.1291 -0.0916
 2290DOPG   GL249336  20.477  11.899  20.755  0.2146 -0.0339  0.0751
 2290DOPG   C1A49337  20.745  12.530  20.805 -0.2407  0.3546  0.2336
 2290DOPG   D2A49338  21.006  12.895  20.618 -0.0567  0.0146  0.2519
 2290DOPG   C3A49339  20.943  13.164  20.318 -0.0684 -0.1570 -0.0741
 2290DOPG   C4A49340  20.716  13.388  19.972 -0.2059  0.0003  0.0908
 2290DOPG   C1B49341  20.272  12.298  20.707 -0.2255 -0.0857 -0.1095
 2290DOPG   D2B49342  19.957  12.440  20.631  0.1408 -0.0954  0.1325
 2290DOPG   C3B49343  19.940  12.731  20.306  0.0367  0.2478  0.0873
 2290DOPG   C4B49344  19.869  13.177  20.052  0.0917 -0.1367 -0.1458
 2291DOPG   GL049345  20.462  24.013  19.966  0.1081  0.1785 -0.0347
 2291DOPG   PO449346  20.404  23.613  19.872  0.0003 -0.0365  0.2056
 2291DOPG   GL149347  20.173  23.188  19.903 -0.1747 -0.0232  0.0823
 2291DOPG   GL249348  19.859  23.051  19.898  0.0475 -0.0342  0.0262
 2291DOPG   C1A49349  20.356  22.806  19.658  0.1036  0.0667  0.0475
 2291DOPG   D2A49350  20.300  22.423  19.499  0.1614 -0.1599  0.4676
 2291DOPG   C3A49351  20.073  22.282  19.042  0.1733 -0.1035  0.0792
 2291DOPG   C4A49352  20.401  22.376  18.669  0.1137 -0.2995 -0.1764
 2291DOPG   C1B49353  19.407  23.141  20.054 -0.2965  0.3274 -0.1113
 2291DOPG   D2B49354  18.983  23.044  19.798  0.1044 -0.5962 -0.0692
 2291DOPG   C3B49355  18.532  22.940  19.514  0.0433 -0.0468  0.2472
 2291DOPG   C4B49356  18.601  22.876  19.007 -0.0470  0.2829  0.0038
 2292DOPG   GL049357  19.560  11.179  21.542 -0.2045  0.3672  0.1102
 2292DOPG   PO449358  19.502  11.502  21.249  0.2938  0.2062  0.2189
 2292DOPG   GL149359  19.179  11.813  21.257  0.0852 -0.1922 -0.1188
 2292DOPG   GL249360  19.520  12.037  21.241  0.5631 -0.0898 -0.2443
 2292DOPG   C1A49361  18.810  12.158  21.119  0.0981 -0.0816  0.1932
 2292DOPG   D2A49362  18.286  12.067  20.918  0.1200 -0.1686  0.0970
 2292DOPG   C3A49363  18.394  12.403  20.534  0.0162  0.1733  0.0343
 2292DOPG   C4A49364  18.650  12.346  20.087  0.3859  0.0524 -0.3091
 2292DOPG   C1B49365  19.642  12.042  20.800 -0.1028 -0.1959 -0.0364
 2292DOPG   D2B49366  19.525  12.009  20.342 -0.0355  0.1324  0.0487
 2292DOPG   C3B49367  19.164  12.100  20.141 -0.1705  0.3033 -0.0188
 2292DOPG   C4B49368  19.175  12.457  19.882  0.0351 -0.3877 -0.1914
 2293DOPG   GL049369  17.597  20.460  23.103 -0.2421  0.2157 -0.0055
 2293DOPG   PO449370  17.591  20.534  22.692 -0.1657 -0.0526 -0.1643
 2293DOPG   GL149371  17.424  20.173  22.559 -0.1137 -0.0148 -0.0527
 2293DOPG   GL249372  17.459  20.102  22.235  0.0399 -0.2246  0.0277
 2293DOPG   C1A49373  17.182  19.782  22.402 -0.0068  0.0774  0.2404
 2293DOPG   D2A49374  16.976  19.351  22.358 -0.0258 -0.0460 -0.2213
 2293DOPG   C3A49375  16.699  19.065  21.988 -0.0164 -0.3404  0.0048
 2293DOPG   C4A49376  16.436  19.030  21.568  0.2575 -0.0158  0.0852
 2293DOPG   C1B49377  17.732  20.257  21.931  0.1446  0.2123  0.1905
 2293DOPG   D2B49378  17.740  20.120  21.496  0.2002 -0.1743 -0.3749
 2293DOPG   C3B49379  17.298  20.065  21.305 -0.0348 -0.1118 -0.0599
 2293DOPG   C4B49380  16.983  20.050  20.908  0.1265 -0.1262  0.0611
 2294DOPG   GL049381  13.623  20.318  23.454 -0.0003 -0.2682  0.0653
 2294DOPG   PO449382  13.351  20.263  23.088 -0.2452 -0.0585 -0.1878
 2294DOPG   GL149383  13.327  19.984  22.795  0.0177  0.3201  0.0138
 2294DOPG   GL249384  13.193  19.614  22.742 -0.3834 -0.1111  0.2243
 2294DOPG   C1A49385  13.364  20.003  22.303  0.0615 -0.1143 -0.1606
 2294DOPG   D2A49386  13.561  19.791  22.002 -0.1675  0.1523  0.4570
 2294DOPG   C3A49387  13.412  19.465  21.666 -0.0591 -0.0608  0.0387
 2294DOPG   C4A49388  13.648  19.195  21.502 -0.0579  0.0996  0.0263
 2294DOPG   C1B49389  12.964  19.817  22.454  0.2556  0.0169 -0.2230
 2294DOPG   D2B49390  12.980  20.004  21.982 -0.3312  0.1236  0.4019
 2294DOPG   C3B49391  12.969  19.714  21.651  0.1059 -0.0101  0.0526
 2294DOPG   C4B49392  13.080  19.175  21.594  0.1927 -0.1122 -0.2982
 2295DOPG   GL049393  10.228  12.702  23.196  0.0721 -0.0504  0.1711
 2295DOPG   PO449394   9.985  12.804  22.777 -0.1892  0.2182 -0.1248
 2295DOPG   GL149395   9.929  12.674  22.382 -0.0091 -0.0772 -0.0843
 2295DOPG   GL249396  10.136  12.364  22.284  0.0050  0.0044 -0.0044
 2295DOPG   C1A49397   9.778  12.911  21.896 -0.2751 -0.4526 -0.0748
 2295DOPG   D2A49398   9.633  13.022  21.589  0.5274 -0.2363  0.5303
 2295DOPG   C3A49399   9.765  12.844  21.225  0.2570  0.2600 -0.1694
 2295DOPG   C4A49400   9.955  12.775  20.986 -0.1056 -0.0290  0.1038
 2295DOPG   C1B49401  10.475  12.307  21.954 -0.1358 -0.0264  0.1465
 2295DOPG   D2B49402  10.593  12.274  21.629 -0.0826 -0.2881 -0.1814
 2295DOPG   C3B49403  10.767  11.918  21.535  0.0926 -0.4329 -0.1525
 2295DOPG   C4B49404  10.890  11.596  21.343  0.0547 -0.0192 -0.2278
 2296DOPG   GL049405  25.481  14.896  21.058  0.2584 -0.1000 -0.0336
 2296DOPG   PO449406  25.181  14.603  20.926  0.3222 -0.2810 -0.1565
 2296DOPG   GL149407  24.929  14.543  20.598 -0.0917  0.0310 -0.0729
 2296DOPG   GL249408  25.076  14.789  20.346  0.4974 -0.2285  0.1173
 2296DOPG   C1A49409  24.541  14.866  20.403 -0.3965 -0.3217 -0.0874
 2296DOPG   D2A49410  24.375  15.113  20.469  0.0717  0.1631  0.1049
 2296DOPG   C3A49411  24.558  15.526  20.428  0.4395  0.0181 -0.0799
 2296DOPG   C4A49412  24.916  15.560  20.549 -0.1926  0.1709 -0.1040
 2296DOPG   C1B49413  24.975  15.133  20.251  0.0654  0.1018  0.0423
 2296DOPG   D2B49414  25.324  15.492  20.266  0.0812 -0.2049  0.2392
 2296DOPG   C3B49415  25.156  15.866  20.139 -0.1608  0.2785 -0.1240
 2296DOPG   C4B49416  24.925  15.992  19.810 -0.2954 -0.3400  0.1956
 2297DOPG   GL049417  10.937  25.270  19.095 -0.1666  0.0021  0.0551
 2297DOPG   PO449418  10.852  25.190  18.703 -0.2533 -0.0002 -0.0293
 2297DOPG   GL149419  10.998  24.829  18.495 -0.0475 -0.1892  0.0008
 2297DOPG   GL249420  10.939  24.617  18.323  0.0687 -0.0703 -0.2708
 2297DOPG   C1A49421  11.328  24.507  18.634 -0.2824 -0.1650  0.1260
 2297DOPG   D2A49422  11.569  24.143  18.566 -0.1600 -0.2774  0.1849
 2297DOPG   C3A49423  11.505  23.839  18.170  0.1398  0.1797 -0.0079
 2297DOPG   C4A49424  11.523  23.583  17.872  0.0620 -0.2166  0.0303
 2297DOPG   C1B49425  11.169  24.237  18.286  0.3707  0.2147 -0.3394
 2297DOPG   D2B49426  10.956  23.860  18.216  0.1171 -0.3179  0.0237
 2297DOPG   C3B49427  11.125  23.446  18.254  0.2313  0.0548  0.0369
 2297DOPG   C4B49428  11.048  23.018  18.462  0.0114 -0.0645  0.0704
 2298DOPG   GL049429   7.192  12.845  21.721  0.0785 -0.1180  0.1867
 2298DOPG   PO449430   7.644  13.000  21.692 -0.0512  0.3358  0.1963
 2298DOPG   GL149431   7.568  12.969  21.210  0.0071  0.1664  0.1854
 2298DOPG   GL249432   7.430  12.749  20.944 -0.0727  0.4269  0.0695
 2298DOPG   C1A49433   7.877  12.722  21.023 -0.1717  0.2724 -0.0760
 2298DOPG   D2A49434   8.286  12.743  21.177 -0.1256  0.0992 -0.1702
 2298DOPG   C3A49435   8.556  13.070  21.059 -0.1572  0.1922 -0.1162
 2298DOPG   C4A49436   8.474  13.409  20.791 -0.0334 -0.2115  0.1424
 2298DOPG   C1B49437   7.725  13.021  20.711  0.1805 -0.1852  0.1260
 2298DOPG   D2B49438   7.510  13.123  20.279  0.0002  0.0111 -0.3441
 2298DOPG   C3B49439   7.274  13.030  19.988 -0.0833  0.3786 -0.1610
 2298DOPG   C4B49440   6.884  12.920  19.860  0.2573  0.5055  0.3142
 2299DOPG   GL049441  15.694   9.984  22.063  0.1147 -0.0074  0.2765
 2299DOPG   PO449442  15.473   9.947  21.687  0.0298 -0.3244  0.0766
 2299DOPG   GL149443  15.426  10.200  21.431 -0.1832  0.2138 -0.1630
 2299DOPG   GL249444  15.703  10.206  21.139  0.1283  0.2399  0.1134
 2299DOPG   C1A49445  15.205  10.202  21.036 -0.1032  0.0756 -0.1035
 2299DOPG   D2A49446  15.269  10.046  20.566  0.0847 -0.0904  0.3966
 2299DOPG   C3A49447  15.469  10.400  20.297 -0.4467  0.2038  0.1557
 2299DOPG   C4A49448  15.386  10.743  20.153 -0.3710  0.1556 -0.0324
 2299DOPG   C1B49449  15.527  10.489  20.743 -0.2930  0.0625 -0.0125
 2299DOPG   D2B49450  15.908  10.592  20.460  0.0837  0.1191  0.1318
 2299DOPG   C3B49451  15.942  10.387  20.057 -0.3938 -0.1268 -0.2068
 2299DOPG   C4B49452  15.992  10.313  19.640  0.1072 -0.0197  0.4355
 2300DOPG   GL049453  13.931  16.693  24.158  0.1324 -0.2347  0.1753
 2300DOPG   PO449454  13.912  17.141  24.049  0.3492 -0.0411 -0.3122
 2300DOPG   GL149455  13.800  17.179  23.667 -0.1026 -0.2072 -0.0907
 2300DOPG   GL249456  13.597  17.511  23.588  0.1498  0.0967  0.0792
 2300DOPG   C1A49457  13.826  16.939  23.309 -0.2362  0.0568 -0.1471
 2300DOPG   D2A49458  13.518  16.682  23.215 -0.0843 -0.1953  0.2275
 2300DOPG   C3A49459  13.462  16.376  22.883 -0.0578  0.0598 -0.1397
 2300DOPG   C4A49460  13.287  15.994  22.563 -0.0238 -0.0512  0.3763
 2300DOPG   C1B49461  13.395  17.364  23.210 -0.3182  0.3826 -0.0539
 2300DOPG   D2B49462  13.549  17.073  22.935  0.0848 -0.0477  0.1580
 2300DOPG   C3B49463  13.241  16.821  22.712  0.1207  0.2844  0.1743
 2300DOPG   C4B49464  12.910  17.018  22.425 -0.0949  0.4890 -0.0418
 2301DOPG   GL049465  19.764  19.157  23.121  0.0648 -0.2508 -0.0819
 2301DOPG   PO449466  19.492  19.278  22.710  0.0489 -0.1299  0.1308
 2301DOPG   GL149467  19.299  19.167  22.380  0.0424  0.0710  0.1136
 2301DOPG   GL249468  18.977  19.363  22.449  0.3642 -0.1107  0.1539
 2301DOPG   C1A49469  19.286  18.841  22.091  0.3088 -0.0838  0.3221
 2301DOPG   D2A49470  19.298  18.527  21.705  0.2948  0.2102 -0.1976
 2301DOPG   C3A49471  18.960  18.200  21.587  0.0999  0.2666 -0.0251
 2301DOPG   C4A49472  18.848  18.019  21.270 -0.3234 -0.5520  0.1341
 2301DOPG   C1B49473  18.676  19.221  22.085  0.2008  0.1145  0.0555
 2301DOPG   D2B49474  18.528  19.385  21.636 -0.0601  0.0187 -0.5214
 2301DOPG   C3B49475  18.284  19.105  21.416  0.2032  0.0307 -0.0298
 2301DOPG   C4B49476  17.969  19.041  21.153  0.1980  0.1707 -0.0943
 2302DOPG   GL049477  10.767  17.442  22.772 -0.1233 -0.0324  0.2724
 2302DOPG   PO449478  10.483  17.714  22.843 -0.0589 -0.2710 -0.1496
 2302DOPG   GL149479  10.297  17.773  22.452 -0.0432 -0.0524  0.4031
 2302DOPG   GL249480  10.443  17.624  22.248  0.0739 -0.0217 -0.0881
 2302DOPG   C1A49481  10.361  18.074  22.190 -0.4561 -0.2196  0.0931
 2302DOPG   D2A49482  10.308  18.330  21.898 -0.2624  0.0023 -0.2149
 2302DOPG   C3A49483  10.495  18.091  21.491 -0.0314  0.0453 -0.2931
 2302DOPG   C4A49484  10.763  18.228  21.204 -0.0362 -0.1766 -0.2297
 2302DOPG   C1B49485  10.518  17.337  21.959 -0.0839  0.2270 -0.0012
 2302DOPG   D2B49486  10.569  16.977  21.792  0.1819  0.0582 -0.0622
 2302DOPG   C3B49487  10.610  16.683  21.512 -0.0166  0.2442  0.0716
 2302DOPG   C4B49488  10.708  16.259  21.521  0.0243 -0.2693  0.2121
 2303DOPG   GL049489  23.239  23.802  19.411 -0.0481 -0.0616  0.2031
 2303DOPG   PO449490  23.064  23.454  19.267  0.0854  0.1960 -0.1924
 2303DOPG   GL149491  22.920  23.217  18.815 -0.0109 -0.3100  0.2765
 2303DOPG   GL249492  22.723  23.032  18.571 -0.0864 -0.0191  0.0211
 2303DOPG   C1A49493  23.225  22.892  18.573 -0.0841 -0.1358  0.0650
 2303DOPG   D2A49494  23.148  22.413  18.431 -0.0583 -0.0923 -0.1420
 2303DOPG   C3A49495  23.400  22.108  18.240 -0.1834  0.0030  0.3539
 2303DOPG   C4A49496  23.879  22.164  18.030 -0.3408  0.0227  0.1041
 2303DOPG   C1B49497  22.412  22.822  18.423 -0.0864  0.1022  0.1087
 2303DOPG   D2B49498  22.068  22.604  18.353 -0.2635  0.0993  0.2469
 2303DOPG   C3B49499  21.576  22.704  18.467 -0.0836 -0.1134  0.0779
 2303DOPG   C4B49500  21.204  22.473  18.314  0.3509 -0.0069  0.2571
 2304DOPG   GL049501  11.210   7.076  20.907 -0.1720  0.0793 -0.2369
 2304DOPG   PO449502  11.177   7.601  20.897 -0.0705  0.0054  0.0775
 2304DOPG   GL149503  11.259   7.849  20.673  0.0710 -0.2547 -0.1647
 2304DOPG   GL249504  11.383   8.188  20.707  0.1839  0.1303  0.0409
 2304DOPG   C1A49505  10.889   7.969  20.369 -0.1678  0.3576  0.0256
 2304DOPG   D2A49506  10.857   8.141  20.016  0.2326  0.2050  0.0068
 2304DOPG   C3A49507  10.691   8.352  19.731 -0.0633  0.1119  0.0208
 2304DOPG   C4A49508  10.888   8.632  19.391  0.2140  0.2783 -0.1841
 2304DOPG   C1B49509  11.790   8.271  20.615 -0.4158  0.2635 -0.2920
 2304DOPG   D2B49510  12.163   8.075  20.476  0.4306  0.1888 -0.0033
 2304DOPG   C3B49511  12.654   8.237  20.530  0.0227 -0.1669  0.2791
 2304DOPG   C4B49512  12.869   8.625  20.724 -0.0609 -0.0594  0.2103
 2305DOPG   GL049513   7.150  13.252  21.397  0.1240 -0.2878 -0.0427
 2305DOPG   PO449514   6.948  12.783  21.249 -0.0221 -0.1195 -0.2343
 2305DOPG   GL149515   6.899  13.033  20.918 -0.0965  0.1214 -0.1366
 2305DOPG   GL249516   7.149  13.221  20.880  0.0314 -0.0984  0.0950
 2305DOPG   C1A49517   6.993  13.059  20.408 -0.0028 -0.3626  0.0782
 2305DOPG   D2A49518   7.093  13.421  20.121 -0.0376 -0.2409  0.0181
 2305DOPG   C3A49519   7.299  13.462  19.771  0.1398 -0.1022 -0.0551
 2305DOPG   C4A49520   7.347  13.458  19.370 -0.1168 -0.1631 -0.0114
 2305DOPG   C1B49521   7.406  13.457  20.594 -0.2028  0.2525 -0.1281
 2305DOPG   D2B49522   7.817  13.536  20.639  0.1352  0.4432  0.1400
 2305DOPG   C3B49523   8.172  13.788  20.423  0.2761  0.0058  0.1118
 2305DOPG   C4B49524   8.568  13.585  20.307 -0.1412 -0.1525  0.0423
 2306DOPG   GL049525  24.378  13.708  20.324 -0.0723 -0.0267 -0.0294
 2306DOPG   PO449526  24.621  13.527  20.094 -0.3662 -0.1669  0.2630
 2306DOPG   GL149527  24.867  13.913  19.937 -0.0657  0.0421 -0.1971
 2306DOPG   GL249528  24.731  14.115  20.166  0.1224  0.0210 -0.3034
 2306DOPG   C1A49529  25.119  14.239  19.725  0.2064 -0.0871  0.0108
 2306DOPG   D2A49530  25.021  14.567  19.428  0.0312  0.1275 -0.1727
 2306DOPG   C3A49531  25.388  14.982  19.303  0.0483  0.1015 -0.3169
 2306DOPG   C4A49532  25.546  15.211  18.931  0.1122  0.1168 -0.0832
 2306DOPG   C1B49533  24.718  14.490  20.123 -0.0988  0.1602  0.1180
 2306DOPG   D2B49534  24.606  14.891  19.869 -0.0015 -0.1573  0.2842
 2306DOPG   C3B49535  24.177  14.991  19.574 -0.0290  0.1002 -0.0992
 2306DOPG   C4B49536  24.046  15.245  19.172  0.0468 -0.0508 -0.0039
 2307DOPG   GL049537  23.271  12.986  21.595 -0.1522 -0.0398  0.2250
 2307DOPG   PO449538  23.089  12.851  21.110 -0.1263  0.3186  0.2291
 2307DOPG   GL149539  22.953  13.212  20.861 -0.0211 -0.1531 -0.3010
 2307DOPG   GL249540  22.715  13.231  20.718 -0.3711 -0.5315  0.1612
 2307DOPG   C1A49541  22.897  13.640  20.539 -0.1672 -0.1934 -0.0781
 2307DOPG   D2A49542  22.912  14.115  20.661  0.0940 -0.0305 -0.1991
 2307DOPG   C3A49543  23.131  14.355  21.087  0.0086 -0.0902 -0.1726
 2307DOPG   C4A49544  23.556  14.549  20.970  0.0775  0.1226 -0.0670
 2307DOPG   C1B49545  22.420  13.496  20.668 -0.1343 -0.2312  0.0007
 2307DOPG   D2B49546  22.017  13.578  20.618 -0.0326  0.0390 -0.2843
 2307DOPG   C3B49547  21.692  13.563  20.855  0.0301  0.3658 -0.0220
 2307DOPG   C4B49548  21.477  13.833  21.179  0.0843 -0.0915 -0.2294
 2308DOPG   GL049549  16.110  11.221  22.568  0.0461  0.2511 -0.2434
 2308DOPG   PO449550  16.159  11.118  22.098  0.1992 -0.1323 -0.1074
 2308DOPG   GL149551  16.176  11.248  21.706  0.1065  0.0571 -0.0086
 2308DOPG   GL249552  16.201  11.575  21.584 -0.1971 -0.2750 -0.1092
 2308DOPG   C1A49553  15.767  11.232  21.537 -0.1392 -0.2135  0.2368
 2308DOPG   D2A49554  15.650  11.640  21.549 -0.2792  0.3379 -0.0173
 2308DOPG   C3A49555  15.670  12.089  21.242  0.2060 -0.2226  0.2174
 2308DOPG   C4A49556  15.572  12.240  20.779 -0.0350 -0.2362 -0.2177
 2308DOPG   C1B49557  16.102  11.894  21.348 -0.5379 -0.1019 -0.3160
 2308DOPG   D2B49558  16.056  12.216  21.036  0.1278  0.1091  0.2169
 2308DOPG   C3B49559  15.799  12.594  21.146  0.1148 -0.0449 -0.0833
 2308DOPG   C4B49560  15.577  12.844  20.833  0.1390  0.2130  0.1973
 2309DOPG   GL049561  14.850  24.254  18.792 -0.1411 -0.0876  0.2143
 2309DOPG   PO449562  15.268  24.381  19.084  0.1730  0.1338  0.1509
 2309DOPG   GL149563  15.296  23.925  19.206  0.0118 -0.0371  0.0398
 2309DOPG   GL249564  15.490  23.802  19.028  0.0952  0.0044 -0.0738
 2309DOPG   C1A49565  15.163  23.471  19.046 -0.2044 -0.1256  0.4048
 2309DOPG   D2A49566  14.745  23.285  18.919  0.0214 -0.0554  0.1620
 2309DOPG   C3A49567  14.400  23.233  19.226  0.1623 -0.3882  0.0891
 2309DOPG   C4A49568  13.998  22.934  19.144 -0.3624 -0.1370  0.0471
 2309DOPG   C1B49569  15.651  23.520  18.774 -0.0233 -0.1213  0.1355
 2309DOPG   D2B49570  16.049  23.241  18.583  0.1487 -0.0365  0.1495
 2309DOPG   C3B49571  16.027  22.953  18.273 -0.1342 -0.2654  0.1409
 2309DOPG   C4B49572  15.749  22.870  17.983  0.3215 -0.2604 -0.0688
 2310DOPG   GL049573  19.083  16.734  23.740  0.1217 -0.5057 -0.3900
 2310DOPG   PO449574  19.180  16.673  23.370  0.0267 -0.1974  0.1611
 2310DOPG   GL149575  18.875  16.510  23.070 -0.4108 -0.1642  0.2091
 2310DOPG   GL249576  18.723  16.135  23.101 -0.0084  0.1483 -0.0030
 2310DOPG   C1A49577  18.526  16.572  22.854 -0.1383 -0.1720  0.1440
 2310DOPG   D2A49578  18.355  16.455  22.468  0.4313  0.0341 -0.0089
 2310DOPG   C3A49579  18.394  16.705  22.055 -0.4159  0.1323 -0.1160
 2310DOPG   C4A49580  18.469  16.974  21.667 -0.3533 -0.1283 -0.1193
 2310DOPG   C1B49581  18.506  16.075  22.823  0.0352 -0.0922  0.1944
 2310DOPG   D2B49582  18.432  15.954  22.453  0.2479  0.0045 -0.3160
 2310DOPG   C3B49583  18.224  16.128  22.102 -0.0810  0.0928  0.4277
 2310DOPG   C4B49584  18.140  16.213  21.657  0.1816 -0.0108 -0.1431
 2311DOPG   GL049585  14.034  22.972  20.571 -0.0902 -0.4397 -0.0209
 2311DOPG   PO449586  14.491  23.013  20.783 -0.4466 -0.1784  0.1499
 2311DOPG   GL149587  14.466  22.693  20.476 -0.2482 -0.1794 -0.3752
 2311DOPG   GL249588  14.711  22.501  20.711 -0.1891  0.2249  0.3046
 2311DOPG   C1A49589  14.365  22.412  20.207  0.5714 -0.2246  0.0681
 2311DOPG   D2A49590  14.014  22.521  20.012 -0.0267 -0.3435 -0.0376
 2311DOPG   C3A49591  14.047  22.902  19.760 -0.1161  0.4249 -0.0584
 2311DOPG   C4A49592  14.150  23.256  19.729  0.0327 -0.1458  0.0838
 2311DOPG   C1B49593  14.831  22.274  20.407 -0.0872 -0.1823 -0.0185
 2311DOPG   D2B49594  15.033  22.088  20.009  0.0394 -0.0540  0.1208
 2311DOPG   C3B49595  14.786  21.931  19.825  0.1179 -0.0638 -0.1735
 2311DOPG   C4B49596  14.802  21.599  19.477  0.3082  0.4085 -0.1050
 2312DOPG   GL049597  15.485   7.139  18.883  0.2869  0.0613  0.0875
 2312DOPG   PO449598  15.090   7.192  18.844  0.0659  0.0770  0.2869
 2312DOPG   GL149599  14.881   7.579  18.581 -0.3105 -0.0373 -0.0254
 2312DOPG   GL249600  15.027   7.564  18.237  0.1500  0.1429 -0.0151
 2312DOPG   C1A49601  14.850   8.065  18.610  0.1323  0.1892 -0.0239
 2312DOPG   D2A49602  14.827   8.445  18.859  0.0375  0.0918 -0.1294
 2312DOPG   C3A49603  14.573   8.755  18.818 -0.2442 -0.2709 -0.1815
 2312DOPG   C4A49604  14.616   9.234  18.559  0.3070 -0.2062 -0.4154
 2312DOPG   C1B49605  14.573   7.523  18.249  0.2165 -0.1834  0.1973
 2312DOPG   D2B49606  14.412   7.903  18.463 -0.2971 -0.0433  0.4343
 2312DOPG   C3B49607  14.364   8.246  18.250  0.0547  0.3203  0.0838
 2312DOPG   C4B49608  14.577   8.612  18.102 -0.0273 -0.3906  0.1198
 2313DOPG   GL049609  14.017  14.437  20.160  0.1481 -0.0795  0.0435
 2313DOPG   PO449610  14.404  14.323  19.979  0.2683  0.0479  0.0714
 2313DOPG   GL149611  14.642  14.200  19.699 -0.1349  0.0295  0.3147
 2313DOPG   GL249612  14.549  14.056  19.561  0.0291 -0.2797 -0.1908
 2313DOPG   C1A49613  15.020  14.105  19.481 -0.3476 -0.2043 -0.3464
 2313DOPG   D2A49614  15.386  13.869  19.598  0.0115 -0.0450 -0.1863
 2313DOPG   C3A49615  15.523  13.525  19.576 -0.2435 -0.2374 -0.2320
 2313DOPG   C4A49616  15.399  13.072  19.574 -0.0259  0.2324 -0.3767
 2313DOPG   C1B49617  14.247  14.306  19.246 -0.0501 -0.2326 -0.1736
 2313DOPG   D2B49618  14.205  14.386  18.780 -0.0230  0.0270  0.3183
 2313DOPG   C3B49619  14.101  14.712  18.482 -0.0498  0.2261  0.2280
 2313DOPG   C4B49620  14.062  14.857  18.082  0.0416  0.2304 -0.2466
 2314DOPG   GL049621  13.163  15.310  20.200 -0.0683 -0.0153 -0.1100
 2314DOPG   PO449622  13.324  15.684  20.499  0.0902 -0.2804 -0.0385
 2314DOPG   GL149623  13.482  15.619  20.878  0.2762  0.0443  0.1800
 2314DOPG   GL249624  13.180  15.637  21.053  0.1457  0.0136 -0.2738
 2314DOPG   C1A49625  13.543  15.284  21.115 -0.0853  0.1471 -0.0517
 2314DOPG   D2A49626  13.780  14.883  21.132  0.0847  0.0135  0.0365
 2314DOPG   C3A49627  13.707  14.501  21.394 -0.3241 -0.3699 -0.2640
 2314DOPG   C4A49628  13.542  14.495  21.752 -0.3395  0.0029 -0.2673
 2314DOPG   C1B49629  12.910  15.482  21.388  0.3228  0.0894  0.2400
 2314DOPG   D2B49630  12.792  15.150  21.656 -0.2029 -0.0738 -0.0219
 2314DOPG   C3B49631  12.411  15.156  21.766  0.0791  0.3566  0.0371
 2314DOPG   C4B49632  12.352  15.397  22.109  0.0066  0.1576  0.4078
 2315DOPG   GL049633  17.744  15.828  20.101 -0.1388 -0.2536  0.0344
 2315DOPG   PO449634  17.526  15.980  20.471  0.2133  0.1803 -0.0526
 2315DOPG   GL149635  17.784  15.745  20.639 -0.1203  0.2706 -0.1773
 2315DOPG   GL249636  17.981  15.463  20.426  0.2379 -0.0326 -0.3808
 2315DOPG   C1A49637  17.931  15.586  20.964 -0.0116  0.1949  0.0592
 2315DOPG   D2A49638  18.037  15.808  21.379  0.2442 -0.2628 -0.1649
 2315DOPG   C3A49639  18.298  15.648  21.764 -0.2506  0.1307  0.0207
 2315DOPG   C4A49640  18.629  15.779  21.972 -0.3385  0.2517  0.1248
 2315DOPG   C1B49641  18.175  15.224  20.760 -0.0581  0.0708 -0.0605
 2315DOPG   D2B49642  18.197  15.019  21.119 -0.0993  0.1065 -0.3405
 2315DOPG   C3B49643  18.074  15.315  21.467 -0.2116  0.1247  0.1306
 2315DOPG   C4B49644  17.871  15.295  21.894 -0.0804 -0.2736  0.0142
 2316DOPG   GL049645  20.731  15.259  18.365 -0.2244  0.5284  0.1251
 2316DOPG   PO449646  20.672  15.501  18.730  0.1554 -0.1154 -0.0157
 2316DOPG   GL149647  20.835  15.290  19.140  0.1776 -0.1699 -0.0371
 2316DOPG   GL249648  20.758  15.357  19.509  0.0789  0.1984  0.1666
 2316DOPG   C1A49649  20.993  14.933  19.446  0.2817  0.2254 -0.2098
 2316DOPG   D2A49650  21.359  14.912  19.505  0.1815 -0.0910  0.2498
 2316DOPG   C3A49651  21.627  14.470  19.302  0.6482 -0.2324 -0.1772
 2316DOPG   C4A49652  21.439  14.062  19.118  0.1785  0.0771 -0.0236
 2316DOPG   C1B49653  20.721  15.097  19.840  0.1051 -0.4482  0.1690
 2316DOPG   D2B49654  20.964  14.801  19.980  0.0322 -0.0560  0.0251
 2316DOPG   C3B49655  21.263  14.701  20.201  0.1467 -0.0248  0.1238
 2316DOPG   C4B49656  21.268  14.288  20.273  0.2883 -0.0861 -0.1298
 2317DOPG   GL049657  14.883  19.914  19.410  0.2419  0.1419 -0.1133
 2317DOPG   PO449658  14.894  20.162  19.094 -0.1683  0.1013  0.0660
 2317DOPG   GL149659  14.924  20.441  19.369 -0.0748  0.1553 -0.0524
 2317DOPG   GL249660  14.952  20.255  19.774  0.0161 -0.0727  0.0698
 2317DOPG   C1A49661  14.646  20.611  19.786  0.3120 -0.0347 -0.0153
 2317DOPG   D2A49662  14.519  20.967  20.029  0.1321  0.1658  0.2127
 2317DOPG   C3A49663  14.330  21.287  19.808 -0.0376  0.0387  0.1631
 2317DOPG   C4A49664  14.343  21.733  19.729  0.1993  0.4473  0.0798
 2317DOPG   C1B49665  15.181  20.706  19.702 -0.0344 -0.1777  0.0253
 2317DOPG   D2B49666  15.573  20.794  19.802  0.2500  0.2774  0.0322
 2317DOPG   C3B49667  15.754  20.463  19.980  0.1923  0.0955  0.0295
 2317DOPG   C4B49668  15.797  20.014  20.027 -0.0147  0.2778 -0.4862
 2318DOPG   GL049669  13.861  14.828  19.898  0.2248 -0.3145  0.0658
 2318DOPG   PO449670  14.079  14.998  19.577  0.1675 -0.0851  0.1479
 2318DOPG   GL149671  14.011  15.251  19.195 -0.0592  0.0043  0.0408
 2318DOPG   GL249672  13.637  15.243  19.159  0.1406 -0.2300  0.2184
 2318DOPG   C1A49673  14.140  15.085  18.814  0.2279 -0.0389 -0.1131
 2318DOPG   D2A49674  14.414  15.194  18.377 -0.2574  0.1950  0.3360
 2318DOPG   C3A49675  14.565  14.803  18.158 -0.3013  0.1957 -0.0101
 2318DOPG   C4A49676  14.893  14.606  17.857  0.4491  0.2486  0.2982
 2318DOPG   C1B49677  13.617  15.310  18.729 -0.0035  0.0752  0.3998
 2318DOPG   D2B49678  13.825  15.152  18.355  0.3443  0.1419  0.4095
 2318DOPG   C3B49679  13.665  15.070  17.867  0.0405  0.1618  0.1294
 2318DOPG   C4B49680  13.771  15.107  17.518 -0.0554 -0.0055 -0.1752
 2319DOPG   GL049681   5.552  22.965  20.518 -0.0351 -0.1220  0.4221
 2319DOPG   PO449682   5.509  22.881  21.052 -0.1016  0.3261  0.3432
 2319DOPG   GL149683   5.929  22.750  20.886  0.2517  0.3035  0.1661
 2319DOPG   GL249684   6.051  22.695  20.563  0.0914  0.3577 -0.3748
 2319DOPG   C1A49685   6.258  22.332  20.936 -0.1616  0.1594  0.0951
 2319DOPG   D2A49686   6.434  21.972  20.842 -0.0668 -0.1821  0.0017
 2319DOPG   C3A49687   6.899  21.883  20.941 -0.0210  0.1371 -0.1562
 2319DOPG   C4A49688   7.361  21.777  20.925 -0.0238 -0.1549 -0.2517
 2319DOPG   C1B49689   6.461  22.492  20.457  0.1311  0.2198  0.0832
 2319DOPG   D2B49690   6.840  22.530  20.173 -0.0065  0.0760 -0.1503
 2319DOPG   C3B49691   6.986  22.136  19.914 -0.1745 -0.1234  0.0284
 2319DOPG   C4B49692   7.033  21.734  19.846  0.1026 -0.3566 -0.2091
 2320DOPG   GL049693  13.275  16.360  18.898 -0.2672 -0.1607  0.1938
 2320DOPG   PO449694  13.185  16.731  18.967  0.1103 -0.2980  0.0278
 2320DOPG   GL149695  12.911  16.862  18.740 -0.0677  0.0983  0.0691
 2320DOPG   GL249696  12.779  17.064  18.922 -0.1092 -0.0713  0.1690
 2320DOPG   C1A49697  12.789  16.988  18.430  0.1001 -0.1646 -0.3529
 2320DOPG   D2A49698  12.621  17.299  18.236 -0.2501  0.1783  0.1541
 2320DOPG   C3A49699  12.099  17.331  18.333 -0.1020 -0.0786 -0.0608
 2320DOPG   C4A49700  11.713  17.358  18.144 -0.2395  0.0046  0.0087
 2320DOPG   C1B49701  12.367  16.944  18.728  0.0734  0.2180 -0.0087
 2320DOPG   D2B49702  12.014  17.154  19.080 -0.0396  0.0854 -0.2174
 2320DOPG   C3B49703  11.755  17.046  19.481 -0.2746 -0.1243  0.0483
 2320DOPG   C4B49704  11.341  16.895  19.455 -0.0019 -0.2700 -0.0961
 2321DOPG   GL049705  15.271  15.753  20.608 -0.0864  0.0224  0.0537
 2321DOPG   PO449706  14.827  15.826  20.758  0.1062 -0.0543 -0.1669
 2321DOPG   GL149707  15.066  15.989  21.133 -0.2360  0.2048  0.0421
 2321DOPG   GL249708  15.277  16.245  21.008  0.1143  0.0144  0.0135
 2321DOPG   C1A49709  15.161  15.838  21.489 -0.0216 -0.0236 -0.0905
 2321DOPG   D2A49710  15.059  15.704  21.892  0.0361  0.1194 -0.0006
 2321DOPG   C3A49711  15.327  15.478  22.196  0.0053  0.0099  0.0483
 2321DOPG   C4A49712  15.122  15.239  22.415 -0.3000  0.2553  0.0532
 2321DOPG   C1B49713  15.580  16.242  21.398  0.1260  0.1157 -0.1057
 2321DOPG   D2B49714  15.498  16.142  21.782 -0.0260 -0.1350  0.4847
 2321DOPG   C3B49715  15.480  16.326  22.220  0.1863 -0.0047  0.3712
 2321DOPG   C4B49716  15.472  16.208  22.685 -0.0160  0.4178  0.2693
 2322DOPG   GL049717  10.768  14.546  18.568  0.3647  0.0525 -0.1087
 2322DOPG   PO449718  10.567  14.239  18.881 -0.3647 -0.0182 -0.1061
 2322DOPG   GL149719  10.261  14.318  19.182  0.0628 -0.2912  0.1575
 2322DOPG   GL249720  10.058  14.661  19.349  0.2037  0.0391 -0.0150
 2322DOPG   C1A49721  10.086  14.281  19.682 -0.0697  0.1362 -0.1152
 2322DOPG   D2A49722  10.205  14.324  20.198  0.0372 -0.3568 -0.3730
 2322DOPG   C3A49723  10.329  13.994  20.659  0.0676  0.0286  0.2108
 2322DOPG   C4A49724  10.585  13.969  20.985 -0.2722 -0.2994  0.0451
 2322DOPG   C1B49725   9.875  14.739  19.706 -0.3797 -0.0302  0.2320
 2322DOPG   D2B49726   9.352  14.689  19.850 -0.0723 -0.1761 -0.2446
 2322DOPG   C3B49727   9.177  15.084  20.059 -0.1175 -0.1176  0.1239
 2322DOPG   C4B49728   9.270  15.558  19.981  0.1066 -0.0411  0.1984
 2323DOPG   GL049729  13.836  21.240  16.696  0.1264 -0.1560 -0.3801
 2323DOPG   PO449730  13.494  21.525  16.729  0.1828  0.1899  0.0434
 2323DOPG   GL149731  13.628  21.872  16.964  0.3905  0.1633 -0.1679
 2323DOPG   GL249732  13.468  21.931  17.074  0.1806  0.0623 -0.2193
 2323DOPG   C1A49733  13.896  22.183  17.102 -0.0823 -0.0754  0.3710
 2323DOPG   D2A49734  13.962  22.529  17.352  0.2802  0.1080  0.0097
 2323DOPG   C3A49735  14.395  22.508  17.600 -0.3280 -0.1376  0.0959
 2323DOPG   C4A49736  14.742  22.142  17.483 -0.0565 -0.0025 -0.0715
 2323DOPG   C1B49737  13.417  22.349  17.275  0.1403  0.0184  0.0785
 2323DOPG   D2B49738  13.538  22.793  17.342 -0.0748 -0.0690 -0.1801
 2323DOPG   C3B49739  13.622  23.246  17.516  0.1569  0.2512 -0.0420
 2323DOPG   C4B49740  13.692  23.493  17.813  0.0218  0.3503 -0.3490
 2324DOPG   GL049741  13.240  16.146  19.336 -0.0700 -0.1421 -0.0451
 2324DOPG   PO449742  12.871  16.242  19.278 -0.0017 -0.0927  0.2075
 2324DOPG   GL149743  12.699  16.501  19.048 -0.0624  0.4468 -0.2598
 2324DOPG   GL249744  12.618  16.385  18.752  0.3610  0.1015 -0.0224
 2324DOPG   C1A49745  12.327  16.724  19.199 -0.1120 -0.0724 -0.0371
 2324DOPG   D2A49746  12.009  16.594  19.420  0.2840  0.1751  0.1118
 2324DOPG   C3A49747  11.680  16.658  19.814  0.0609 -0.1905 -0.2093
 2324DOPG   C4A49748  11.575  16.907  20.184  0.0887 -0.1295 -0.2193
 2324DOPG   C1B49749  12.335  16.523  18.527  0.0629  0.0529 -0.0329
 2324DOPG   D2B49750  12.260  16.784  18.232 -0.0979 -0.0138 -0.1231
 2324DOPG   C3B49751  12.620  16.882  17.979  0.3309  0.2721  0.0781
 2324DOPG   C4B49752  12.941  16.666  17.834  0.1283 -0.1420  0.0064
 2325DOPG   GL049753  22.064  16.516  18.486  0.2102  0.3866 -0.1401
 2325DOPG   PO449754  22.142  16.457  18.903 -0.0531  0.3464 -0.0062
 2325DOPG   GL149755  22.317  16.566  19.330  0.2364  0.0792 -0.1168
 2325DOPG   GL249756  22.667  16.671  19.528  0.1168  0.1072 -0.3155
 2325DOPG   C1A49757  22.368  16.241  19.737  0.1674 -0.0777 -0.1567
 2325DOPG   D2A49758  22.765  16.043  19.899  0.1561 -0.2063  0.1518
 2325DOPG   C3A49759  22.675  15.810  20.232 -0.0371  0.3863  0.0989
 2325DOPG   C4A49760  22.721  15.521  20.446  0.0114 -0.0521  0.0206
 2325DOPG   C1B49761  23.237  16.693  19.564  0.1670  0.1570 -0.2684
 2325DOPG   D2B49762  23.446  16.647  19.815  0.2174  0.2154  0.0749
 2325DOPG   C3B49763  23.338  16.848  20.028 -0.0966  0.1750 -0.1116
 2325DOPG   C4B49764  23.569  17.160  20.215 -0.0945 -0.1859  0.1736
 2326DOPG   GL049765  17.289  13.314  17.869 -0.1864 -0.0836  0.2464
 2326DOPG   PO449766  17.602  13.571  17.872 -0.2025  0.2647 -0.2662
 2326DOPG   GL149767  17.417  13.799  18.214  0.0049 -0.0138 -0.0074
 2326DOPG   GL249768  17.195  13.634  18.259  0.1381 -0.3162 -0.1597
 2326DOPG   C1A49769  17.240  14.269  18.145 -0.1110  0.0115 -0.3512
 2326DOPG   D2A49770  17.059  14.636  18.125  0.0452  0.4196  0.0408
 2326DOPG   C3A49771  16.828  14.787  18.425  0.0857  0.0813 -0.1353
 2326DOPG   C4A49772  16.724  15.040  18.742 -0.2211  0.0251 -0.0148
 2326DOPG   C1B49773  17.101  14.003  18.579 -0.0623 -0.2427  0.1072
 2326DOPG   D2B49774  17.216  14.224  18.976  0.1812  0.0529  0.2470
 2326DOPG   C3B49775  16.890  14.094  19.217 -0.1267 -0.2965  0.2771
 2326DOPG   C4B49776  16.601  14.010  19.554 -0.0721  0.1506  0.1171
 2327DOPG   GL049777   9.069  15.516  18.547  0.1242 -0.1107 -0.0104
 2327DOPG   PO449778   9.216  15.337  18.234 -0.0046 -0.0947 -0.1055
 2327DOPG   GL149779   8.781  15.202  18.295  0.0311 -0.1281 -0.0879
 2327DOPG   GL249780   8.612  14.948  18.270  0.1265 -0.0188  0.1900
 2327DOPG   C1A49781   8.381  15.371  18.664 -0.1076  0.2897 -0.0906
 2327DOPG   D2A49782   8.063  15.207  18.959 -0.2329 -0.2721  0.2676
 2327DOPG   C3A49783   8.011  15.512  19.241 -0.0415  0.1727 -0.2652
 2327DOPG   C4A49784   8.232  15.759  19.555  0.0976 -0.0468  0.1079
 2327DOPG   C1B49785   8.181  14.960  18.448  0.0406  0.2268 -0.1861
 2327DOPG   D2B49786   7.844  14.976  18.331  0.3082 -0.0166 -0.0034
 2327DOPG   C3B49787   7.514  14.865  18.502 -0.2189  0.1261 -0.0239
 2327DOPG   C4B49788   7.143  14.891  18.774 -0.2384  0.2242 -0.0134
 2328DOPG   GL049789  13.678  20.621  17.950  0.1101 -0.0978  0.0065
 2328DOPG   PO449790  13.577  20.635  18.308  0.1270 -0.4877 -0.0876
 2328DOPG   GL149791  13.535  20.990  18.693 -0.3482 -0.1039 -0.0311
 2328DOPG   GL249792  13.471  20.968  18.961  0.2303 -0.1703  0.0922
 2328DOPG   C1A49793  13.466  21.439  18.863  0.2727  0.1981  0.0297
 2328DOPG   D2A49794  13.444  21.863  18.936  0.0674  0.0133  0.2097
 2328DOPG   C3A49795  13.743  21.964  19.232  0.1360  0.0109  0.1684
 2328DOPG   C4A49796  13.852  21.694  19.682 -0.0851 -0.1651  0.4691
 2328DOPG   C1B49797  13.329  20.819  19.378 -0.0900 -0.0894 -0.0918
 2328DOPG   D2B49798  13.310  20.876  19.728 -0.4351 -0.0033  0.1147
 2328DOPG   C3B49799  13.157  21.127  20.009 -0.0350  0.5636  0.1830
 2328DOPG   C4B49800  12.936  21.455  19.738 -0.0299 -0.1506  0.0670
 2329DOPG   GL049801   9.266  13.563  17.694 -0.1603  0.0193 -0.0332
 2329DOPG   PO449802   9.078  13.974  17.680 -0.2378 -0.0427 -0.2805
 2329DOPG   GL149803   8.715  13.889  17.808 -0.1637  0.0023 -0.2748
 2329DOPG   GL249804   8.393  14.075  17.729 -0.0052 -0.0981  0.0974
 2329DOPG   C1A49805   8.345  13.576  17.873  0.2514  0.0134 -0.1140
 2329DOPG   D2A49806   8.215  13.303  17.663 -0.1825  0.0454  0.2149
 2329DOPG   C3A49807   7.801  13.188  17.601 -0.1125  0.2242 -0.0359
 2329DOPG   C4A49808   7.527  13.136  17.858  0.1757  0.0715 -0.4674
 2329DOPG   C1B49809   8.029  14.064  17.683 -0.4121  0.1137  0.3466
 2329DOPG   D2B49810   7.772  13.687  17.837  0.0474 -0.2390  0.4285
 2329DOPG   C3B49811   7.568  13.590  18.238  0.2108  0.0695 -0.2394
 2329DOPG   C4B49812   7.531  13.194  18.435 -0.0913 -0.3736  0.0889
 2330DOPG   GL049813  12.021  10.399  18.666  0.0544  0.0460 -0.0195
 2330DOPG   PO449814  12.417  10.401  18.795 -0.0385  0.0941 -0.1548
 2330DOPG   GL149815  12.250   9.979  18.854  0.0249  0.1112 -0.4429
 2330DOPG   GL249816  12.059   9.894  19.082 -0.1957  0.1042 -0.1041
 2330DOPG   C1A49817  12.363   9.459  18.864 -0.0153 -0.2056 -0.0836
 2330DOPG   D2A49818  12.492   9.269  19.206  0.0812  0.0643 -0.0023
 2330DOPG   C3A49819  12.977   9.062  19.224 -0.1469  0.0039 -0.1347
 2330DOPG   C4A49820  13.323   8.728  19.235 -0.0539 -0.0150  0.1209
 2330DOPG   C1B49821  12.099   9.937  19.543  0.1005  0.0044  0.0538
 2330DOPG   D2B49822  12.381  10.078  19.846 -0.2861 -0.1148  0.0956
 2330DOPG   C3B49823  12.406   9.935  20.207 -0.0047  0.0779  0.0756
 2330DOPG   C4B49824  12.561   9.517  20.319  0.2109  0.0228  0.1107
 2331DOPG   GL049825  15.537  12.033  18.447  0.0285  0.3965  0.2141
 2331DOPG   PO449826  15.701  12.231  18.672  0.1235  0.1682  0.4328
 2331DOPG   GL149827  15.468  12.345  19.066 -0.1971  0.1232 -0.1705
 2331DOPG   GL249828  15.580  12.644  19.367  0.2854  0.1451  0.0502
 2331DOPG   C1A49829  15.080  12.448  19.303  0.2186 -0.2815 -0.5196
 2331DOPG   D2A49830  14.653  12.593  19.382  0.0917  0.2773 -0.1357
 2331DOPG   C3A49831  14.511  13.014  19.547 -0.1358  0.1532 -0.0193
 2331DOPG   C4A49832  14.164  13.132  19.267 -0.4169 -0.0312  0.0290
 2331DOPG   C1B49833  15.543  12.235  19.531  0.1330 -0.1768  0.5119
 2331DOPG   D2B49834  15.764  12.162  19.946  0.1973 -0.0903  0.0873
 2331DOPG   C3B49835  15.794  12.018  20.357 -0.2019  0.2566 -0.0720
 2331DOPG   C4B49836  15.856  11.587  20.579 -0.0222 -0.0074 -0.3293
 2332DOPG   GL049837  13.938  19.645  19.709 -0.1257 -0.1163  0.0296
 2332DOPG   PO449838  13.554  19.840  19.537  0.1022  0.2874 -0.1630
 2332DOPG   GL149839  13.355  19.930  19.947 -0.3202  0.0201 -0.1777
 2332DOPG   GL249840  13.153  19.679  19.923 -0.1111  0.0145 -0.2329
 2332DOPG   C1A49841  13.242  20.078  20.341 -0.0245 -0.1392 -0.0234
 2332DOPG   D2A49842  13.005  20.142  20.631 -0.3092  0.2673  0.4790
 2332DOPG   C3A49843  12.924  19.746  20.806  0.5696  0.0033 -0.2236
 2332DOPG   C4A49844  12.614  19.460  20.786  0.0682 -0.0497  0.1621
 2332DOPG   C1B49845  13.008  19.642  20.336 -0.2348 -0.0947 -0.0602
 2332DOPG   D2B49846  12.593  19.789  20.390  0.0235 -0.2939  0.2083
 2332DOPG   C3B49847  12.524  20.222  20.494  0.1492 -0.0795 -0.0101
 2332DOPG   C4B49848  12.133  20.448  20.739 -0.1032 -0.4594  0.0401
 2333DOPG   GL049849  18.521  14.217  18.588 -0.0749 -0.1925 -0.0179
 2333DOPG   PO449850  18.525  14.610  18.664  0.4260  0.1342 -0.1461
 2333DOPG   GL149851  18.182  14.826  18.715 -0.2136  0.0400 -0.0686
 2333DOPG   GL249852  18.030  14.675  19.017 -0.1949  0.1122 -0.5120
 2333DOPG   C1A49853  17.942  15.143  18.701  0.0305 -0.1892 -0.2941
 2333DOPG   D2A49854  17.686  15.453  18.523  0.0901  0.5293  0.0428
 2333DOPG   C3A49855  17.642  15.369  18.119  0.5036  0.0566  0.3498
 2333DOPG   C4A49856  17.705  15.573  17.765  0.1006  0.0747  0.1040
 2333DOPG   C1B49857  17.538  14.713  19.142 -0.2657  0.0603 -0.1509
 2333DOPG   D2B49858  17.440  14.848  19.567  0.0679 -0.2294 -0.2522
 2333DOPG   C3B49859  17.471  14.595  19.904  0.0219  0.1668 -0.1667
 2333DOPG   C4B49860  17.504  14.494  20.289  0.1159 -0.2255 -0.0987
 2334DOPG   GL049861  15.409  20.378  18.152 -0.1189 -0.5281  0.1328
 2334DOPG   PO449862  15.414  20.700  18.476 -0.1405  0.1278 -0.3662
 2334DOPG   GL149863  15.637  20.985  18.475  0.2336 -0.2464  0.1230
 2334DOPG   GL249864  15.352  21.212  18.309 -0.0027 -0.1747  0.0837
 2334DOPG   C1A49865  16.029  21.296  18.647  0.0157 -0.3490 -0.0205
 2334DOPG   D2A49866  16.106  21.747  18.925 -0.2174 -0.0163  0.2454
 2334DOPG   C3A49867  15.941  22.177  19.012 -0.1406  0.0677 -0.0619
 2334DOPG   C4A49868  15.521  22.397  19.169 -0.0524  0.0324  0.0284
 2334DOPG   C1B49869  15.205  21.651  18.337  0.1068  0.2364 -0.1330
 2334DOPG   D2B49870  15.348  22.039  18.239  0.0859 -0.3091  0.2015
 2334DOPG   C3B49871  15.116  22.501  18.353  0.2468  0.1213 -0.1098
 2334DOPG   C4B49872  14.674  22.543  18.563 -0.0600  0.1110 -0.1841
 2335DOPG   GL049873  12.061  21.138  17.534  0.2658 -0.0995  0.1587
 2335DOPG   PO449874  11.947  21.448  17.685 -0.0548 -0.0874  0.1522
 2335DOPG   GL149875  11.994  21.786  17.971  0.1983 -0.3683  0.0228
 2335DOPG   GL249876  11.936  22.094  17.824  0.2872 -0.1241 -0.2759
 2335DOPG   C1A49877  11.968  21.939  18.397 -0.3698 -0.1398  0.1459
 2335DOPG   D2A49878  12.090  21.971  18.854  0.2261  0.2819 -0.0373
 2335DOPG   C3A49879  11.784  22.124  19.063 -0.1270 -0.0373  0.1358
 2335DOPG   C4A49880  11.398  22.323  18.821  0.0109  0.3475 -0.1620
 2335DOPG   C1B49881  12.102  22.332  18.091 -0.0510 -0.1060 -0.1693
 2335DOPG   D2B49882  11.921  22.720  18.267 -0.0187  0.2630  0.0231
 2335DOPG   C3B49883  12.308  23.033  18.228  0.0014 -0.0469  0.1602
 2335DOPG   C4B49884  12.723  23.305  18.260  0.0276 -0.0340 -0.0047
 2336DOPG   GL049885  18.129  12.843  19.315  0.2595  0.1375 -0.0641
 2336DOPG   PO449886  17.781  12.960  19.356 -0.0705  0.0579 -0.3363
 2336DOPG   GL149887  17.593  12.852  19.781 -0.1617 -0.3753  0.0907
 2336DOPG   GL249888  17.535  12.583  19.873  0.0006  0.0175  0.1490
 2336DOPG   C1A49889  17.277  13.092  20.042 -0.1651 -0.0594 -0.0760
 2336DOPG   D2A49890  17.172  13.370  20.259  0.1443  0.2305  0.1902
 2336DOPG   C3A49891  16.771  13.556  20.304  0.1406  0.2375  0.1050
 2336DOPG   C4A49892  16.547  13.679  20.619  0.2638  0.0341  0.1638
 2336DOPG   C1B49893  17.387  12.560  20.250  0.2491  0.0115  0.1499
 2336DOPG   D2B49894  17.357  12.366  20.682  0.0186  0.0925 -0.0890
 2336DOPG   C3B49895  17.393  12.498  21.087 -0.3222 -0.0773  0.1954
 2336DOPG   C4B49896  17.186  12.629  21.517  0.0305 -0.3217  0.2432
 2337DOPG   GL049897   8.933  20.765  17.711 -0.0595  0.0334 -0.0060
 2337DOPG   PO449898   8.678  21.217  17.716  0.1016  0.0936  0.4776
 2337DOPG   GL149899   8.650  21.001  18.070 -0.0399  0.1941 -0.1320
 2337DOPG   GL249900   8.710  20.649  18.131 -0.0194  0.0662  0.1530
 2337DOPG   C1A49901   8.808  21.179  18.457  0.0560 -0.3086  0.0786
 2337DOPG   D2A49902   8.837  21.041  18.838 -0.3214  0.0900  0.0535
 2337DOPG   C3A49903   8.574  21.235  19.164 -0.1580  0.0005 -0.2965
 2337DOPG   C4A49904   8.235  21.074  19.468  0.0079  0.0118 -0.2727
 2337DOPG   C1B49905   8.557  20.796  18.560  0.0927  0.1026  0.0314
 2337DOPG   D2B49906   8.246  20.721  18.957 -0.1348 -0.2556  0.1243
 2337DOPG   C3B49907   7.887  20.859  19.145 -0.3205  0.0414 -0.0112
 2337DOPG   C4B49908   7.669  20.978  19.554  0.4341 -0.1986  0.0063
 2338DOPG   GL049909  20.857  19.165  17.500 -0.0848 -0.0780  0.2281
 2338DOPG   PO449910  20.480  19.343  17.476  0.0109 -0.4221 -0.0464
 2338DOPG   GL149911  20.513  19.180  17.918 -0.0127 -0.1597  0.3757
 2338DOPG   GL249912  20.673  18.862  17.836 -0.1073 -0.0098 -0.1763
 2338DOPG   C1A49913  20.261  19.145  18.246 -0.1692 -0.3502  0.1921
 2338DOPG   D2A49914  20.208  19.252  18.623  0.0825 -0.0015  0.2253
 2338DOPG   C3A49915  19.977  19.088  19.055 -0.2197  0.2583  0.0439
 2338DOPG   C4A49916  20.026  18.976  19.495  0.4172 -0.1523 -0.0655
 2338DOPG   C1B49917  20.418  18.446  18.015  0.0682 -0.0224  0.2824
 2338DOPG   D2B49918  20.206  18.309  18.372  0.1885  0.2285  0.1743
 2338DOPG   C3B49919  20.003  18.082  18.685 -0.0394  0.2617  0.0420
 2338DOPG   C4B49920  20.128  17.976  19.140  0.1524  0.0328  0.2958
 2339DOPG   GL049921  16.642  16.659  20.349 -0.6023 -0.4329  0.0191
 2339DOPG   PO449922  17.091  16.725  20.380  0.1102 -0.0794 -0.0090
 2339DOPG   GL149923  17.455  16.513  20.488  0.2896 -0.0918 -0.0559
 2339DOPG   GL249924  17.483  16.396  20.945  0.1745 -0.0045 -0.3457
 2339DOPG   C1A49925  17.926  16.517  20.750  0.1339 -0.0915  0.2531
 2339DOPG   D2A49926  18.198  16.580  21.093 -0.0859  0.0501  0.2440
 2339DOPG   C3A49927  18.470  16.183  21.254  0.0861  0.0900 -0.1068
 2339DOPG   C4A49928  18.769  15.815  21.451  0.2590 -0.2041 -0.1518
 2339DOPG   C1B49929  17.876  16.082  21.000  0.0679  0.0144  0.2988
 2339DOPG   D2B49930  18.243  16.079  20.861 -0.1531 -0.0039  0.1206
 2339DOPG   C3B49931  18.435  15.737  21.095  0.0799 -0.2140  0.0340
 2339DOPG   C4B49932  18.549  15.329  21.315 -0.0268  0.0471  0.0477
 2340DOPG   GL049933   9.010  18.744  17.645 -0.2806  0.1816  0.1072
 2340DOPG   PO449934   8.646  18.684  17.945  0.0486  0.2741  0.0574
 2340DOPG   GL149935   8.260  18.584  18.237  0.2467  0.1011  0.2682
 2340DOPG   GL249936   8.307  18.779  18.450  0.1721  0.4825 -0.2692
 2340DOPG   C1A49937   7.778  18.439  18.175  0.1103 -0.1784  0.0892
 2340DOPG   D2A49938   7.507  18.437  18.464 -0.1117 -0.4121  0.4215
 2340DOPG   C3A49939   7.247  18.390  18.897  0.2829  0.1705  0.0658
 2340DOPG   C4A49940   7.157  18.691  19.234  0.2901 -0.0833  0.2750
 2340DOPG   C1B49941   8.396  19.125  18.718  0.2361 -0.2526 -0.1101
 2340DOPG   D2B49942   8.010  19.004  18.856  0.1691 -0.0040 -0.2564
 2340DOPG   C3B49943   7.859  19.060  19.338 -0.0364 -0.1504  0.1856
 2340DOPG   C4B49944   7.489  18.869  19.584  0.1851 -0.3409  0.0238
 2341DOPG   GL049945  15.693  11.804  17.813  0.2103  0.0387  0.4226
 2341DOPG   PO449946  15.407  11.572  17.938  0.0531 -0.0323  0.1740
 2341DOPG   GL149947  15.578  11.271  18.200 -0.2831  0.0357  0.0430
 2341DOPG   GL249948  15.783  11.149  18.325 -0.0975  0.0985  0.0638
 2341DOPG   C1A49949  15.314  11.021  18.621  0.3674  0.1193 -0.1115
 2341DOPG   D2A49950  15.111  10.762  18.888  0.0815  0.0505 -0.1049
 2341DOPG   C3A49951  15.141  10.299  19.047  0.3794 -0.2982 -0.0374
 2341DOPG   C4A49952  14.864   9.833  18.978 -0.1179 -0.1837  0.2430
 2341DOPG   C1B49953  15.827  10.715  18.582 -0.0097 -0.1766 -0.3053
 2341DOPG   D2B49954  15.663  10.467  18.875  0.4242 -0.0938 -0.0714
 2341DOPG   C3B49955  16.020  10.468  19.030 -0.3357  0.0836 -0.2962
 2341DOPG   C4B49956  16.092  10.702  19.310  0.1020 -0.0129 -0.0997
 2342DOPG   GL049957  14.177  10.889  18.317 -0.1575  0.0044  0.0449
 2342DOPG   PO449958  14.229  11.099  18.688  0.0852 -0.2054  0.1417
 2342DOPG   GL149959  14.419  10.858  19.004  0.1393 -0.1967  0.1571
 2342DOPG   GL249960  14.135  10.712  19.312  0.3484  0.0160  0.1118
 2342DOPG   C1A49961  14.666  10.735  19.320 -0.0750  0.2699 -0.2716
 2342DOPG   D2A49962  14.459  10.773  19.720  0.1622  0.1669  0.1076
 2342DOPG   C3A49963  14.124  10.941  19.903  0.1460 -0.4289 -0.1405
 2342DOPG   C4A49964  14.054  11.449  19.906 -0.0795  0.0000 -0.4845
 2342DOPG   C1B49965  14.225  10.351  19.647 -0.3266  0.1734 -0.0213
 2342DOPG   D2B49966  14.090  10.401  20.035 -0.1666  0.1341  0.1302
 2342DOPG   C3B49967  13.845  10.165  20.067 -0.0807  0.0596 -0.2489
 2342DOPG   C4B49968  13.647  10.086  19.694 -0.1667 -0.2722 -0.2032
 2343DOPG   GL049969  16.467  20.694  17.846  0.1105 -0.1105  0.1997
 2343DOPG   PO449970  16.521  21.130  17.876  0.0958  0.0417  0.0506
 2343DOPG   GL149971  16.741  21.602  17.735  0.1997  0.1659  0.2375
 2343DOPG   GL249972  17.075  21.599  17.582 -0.3395  0.1614  0.1699
 2343DOPG   C1A49973  16.664  21.991  17.814  0.1524  0.1265  0.0886
 2343DOPG   D2A49974  16.693  22.394  17.637 -0.3299  0.2842  0.0198
 2343DOPG   C3A49975  16.894  22.350  17.212  0.1718 -0.1496  0.0830
 2343DOPG   C4A49976  16.892  22.611  16.932 -0.2104 -0.2605  0.1304
 2343DOPG   C1B49977  17.169  22.063  17.563  0.3624  0.4386 -0.0135
 2343DOPG   D2B49978  17.273  22.445  17.503 -0.1732  0.3418  0.1090
 2343DOPG   C3B49979  17.243  22.841  17.348 -0.2734 -0.1394  0.0735
 2343DOPG   C4B49980  16.965  23.163  17.308 -0.0947 -0.1082  0.4707
 2344DOPG   GL049981  10.895  21.381  17.982 -0.3371  0.1469 -0.2214
 2344DOPG   PO449982  10.422  21.337  18.079  0.2058  0.0422  0.1543
 2344DOPG   GL149983  10.172  21.394  18.446  0.1370 -0.2247 -0.0743
 2344DOPG   GL249984   9.854  21.348  18.352  0.1794 -0.2087 -0.3389
 2344DOPG   C1A49985   9.942  21.768  18.598  0.3533  0.0701  0.0947
 2344DOPG   D2A49986   9.709  21.903  18.953 -0.2630  0.3555 -0.3896
 2344DOPG   C3A49987   9.968  21.685  19.223 -0.1029 -0.1523  0.0416
 2344DOPG   C4A49988   9.967  21.644  19.697 -0.1413  0.1941 -0.0715
 2344DOPG   C1B49989   9.766  21.279  18.719 -0.4784  0.0138 -0.2923
 2344DOPG   D2B49990   9.541  21.442  19.133  0.2139  0.0449  0.1725
 2344DOPG   C3B49991   9.821  21.245  19.378  0.1987  0.2428 -0.0701
 2344DOPG   C4B49992  10.090  21.078  19.764  0.1735 -0.2157  0.1503
 2345DOPG   GL049993  20.509  19.336  16.827  0.1748 -0.1374  0.1915
 2345DOPG   PO449994  20.753  19.145  16.969  0.1541 -0.0246 -0.0707
 2345DOPG   GL149995  20.366  18.906  17.218 -0.0500 -0.1062  0.1189
 2345DOPG   GL249996  20.256  18.902  17.585 -0.1094  0.0757  0.1916
 2345DOPG   C1A49997  19.953  18.593  17.216 -0.1641 -0.0435 -0.0276
 2345DOPG   D2A49998  19.699  18.298  17.470  0.0365 -0.0211  0.1262
 2345DOPG   C3A49999  19.233  18.130  17.332 -0.4046 -0.1048  0.1381
 2345DOPG   C4A50000  18.903  18.033  17.642 -0.1559  0.0728 -0.2476
 2345DOPG   C1B50001  19.944  18.636  17.788 -0.1328  0.0436  0.0874
 2345DOPG   D2B50002  19.675  18.587  18.080  0.0180  0.3047  0.0316
 2345DOPG   C3B50003  19.490  18.215  18.233 -0.6289 -0.1192  0.1984
 2345DOPG   C4B50004  19.530  17.918  18.594  0.3317  0.0888  0.0901
 2346DOPG   GL050005  12.132  16.505  19.950 -0.1632 -0.0024  0.3209
 2346DOPG   PO450006  12.302  16.933  19.841  0.0909  0.1732  0.0139
 2346DOPG   GL150007  11.991  17.281  19.980  0.0477  0.2545 -0.2043
 2346DOPG   GL250008  12.077  17.388  19.704 -0.0482 -0.0762  0.2062
 2346DOPG   C1A50009  11.660  17.517  20.260 -0.1470  0.0230  0.2411
 2346DOPG   D2A50010  11.362  17.623  20.723  0.0277 -0.2587 -0.2203
 2346DOPG   C3A50011  10.982  17.427  20.749 -0.2585 -0.1981  0.0650
 2346DOPG   C4A50012  10.487  17.452  20.765  0.1986 -0.3693  0.2102
 2346DOPG   C1B50013  11.872  17.542  19.306 -0.0690 -0.0775  0.0213
 2346DOPG   D2B50014  11.414  17.407  19.110  0.0626 -0.0183 -0.0216
 2346DOPG   C3B50015  11.130  17.693  19.156 -0.1237 -0.1561  0.1660
 2346DOPG   C4B50016  10.666  17.714  18.995 -0.3053  0.0491  0.3525
 2347DOPG   GL050017  13.396  10.793  18.857 -0.1602  0.0088 -0.2258
 2347DOPG   PO450018  13.614  10.970  18.610 -0.1611  0.2509  0.1606
 2347DOPG   GL150019  13.835  11.092  19.035  0.3429  0.0959 -0.0178
 2347DOPG   GL250020  13.923  11.382  19.008 -0.0133 -0.0047  0.1240
 2347DOPG   C1A50021  13.769  11.170  19.481  0.0587  0.1797 -0.1848
 2347DOPG   D2A50022  13.423  11.220  19.856 -0.1637  0.0960 -0.1071
 2347DOPG   C3A50023  13.548  11.310  20.310 -0.2995 -0.1901 -0.0744
 2347DOPG   C4A50024  13.773  11.310  20.720  0.2185 -0.2593 -0.1098
 2347DOPG   C1B50025  14.243  11.304  19.371  0.0983  0.0247  0.0393
 2347DOPG   D2B50026  14.575  11.574  19.526  0.0620 -0.0821 -0.1749
 2347DOPG   C3B50027  14.583  11.714  19.974  0.4229  0.3528 -0.0607
 2347DOPG   C4B50028  14.889  11.842  20.262  0.4406  0.1095 -0.0836
 2348DOPG   GL050029  14.576  16.044  19.700 -0.0518  0.1692 -0.0391
 2348DOPG   PO450030  14.255  16.123  19.353  0.2133  0.0440 -0.3290
 2348DOPG   GL150031  14.059  15.985  18.975  0.0128 -0.1358 -0.3275
 2348DOPG   GL250032  13.907  15.700  18.924 -0.0847  0.2672 -0.0256
 2348DOPG   C1A50033  14.214  16.024  18.526 -0.1196  0.0482  0.0910
 2348DOPG   D2A50034  14.092  16.048  18.064 -0.1811  0.0804 -0.1103
 2348DOPG   C3A50035  14.329  16.233  17.733  0.0407  0.1683 -0.0032
 2348DOPG   C4A50036  14.632  16.032  17.450 -0.1689  0.1733  0.2413
 2348DOPG   C1B50037  14.037  15.545  18.544  0.1720 -0.1017 -0.0493
 2348DOPG   D2B50038  14.110  15.473  18.132  0.4191  0.0547 -0.1755
 2348DOPG   C3B50039  14.172  15.219  17.782  0.0567  0.0529 -0.0096
 2348DOPG   C4B50040  14.197  15.334  17.387 -0.0179  0.1110  0.0721
 2349DOPG   GL050041  15.311  12.094  16.753 -0.1437 -0.1307 -0.1347
 2349DOPG   PO450042  15.188  12.286  17.128 -0.1202 -0.3093 -0.0862
 2349DOPG   GL150043  14.971  12.672  17.303  0.2542 -0.0604 -0.0114
 2349DOPG   GL250044  14.911  12.881  16.966  0.0793  0.2781 -0.1576
 2349DOPG   C1A50045  14.624  13.072  17.479  0.0754  0.1560 -0.0509
 2349DOPG   D2A50046  14.701  13.438  17.565  0.0147  0.4881  0.0824
 2349DOPG   C3A50047  14.524  13.550  17.908  0.2897 -0.1283  0.1985
 2349DOPG   C4A50048  14.267  13.737  18.195  0.0202 -0.2807  0.3159
 2349DOPG   C1B50049  14.934  13.327  17.083 -0.4290  0.0935 -0.1895
 2349DOPG   D2B50050  15.094  13.762  17.139 -0.1661  0.1995 -0.0203
 2349DOPG   C3B50051  14.865  14.104  16.979  0.1468 -0.2594  0.2236
 2349DOPG   C4B50052  14.990  14.500  17.087 -0.2778 -0.2329  0.3129
 2350DOPG   GL050053   9.760  12.493  18.444 -0.1338  0.1091  0.0790
 2350DOPG   PO450054   9.826  12.409  18.839 -0.4569  0.2116 -0.0474
 2350DOPG   GL150055   9.529  12.566  18.970  0.4371  0.2050 -0.1288
 2350DOPG   GL250056   9.320  12.298  19.031 -0.0880 -0.1841  0.0226
 2350DOPG   C1A50057   9.266  12.697  19.336  0.2776  0.0335 -0.0062
 2350DOPG   D2A50058   9.008  12.793  19.766 -0.1100  0.1468 -0.0208
 2350DOPG   C3A50059   9.362  13.086  19.858 -0.2834 -0.1680  0.0121
 2350DOPG   C4A50060   9.380  13.486  19.800  0.2762 -0.0283 -0.3227
 2350DOPG   C1B50061   9.114  12.243  19.377  0.2743 -0.2210  0.1091
 2350DOPG   D2B50062   8.732  11.990  19.553 -0.4056  0.0340  0.3211
 2350DOPG   C3B50063   8.599  11.578  19.422  0.2765  0.0390 -0.0599
 2350DOPG   C4B50064   8.212  11.460  19.487  0.0597  0.1077  0.1233
 2351DOPG   GL050065  13.572  13.777  19.393  0.3320  0.1023 -0.1266
 2351DOPG   PO450066  13.801  13.934  19.682 -0.1225 -0.1835 -0.2040
 2351DOPG   GL150067  14.111  13.749  19.535 -0.0447 -0.1505  0.0543
 2351DOPG   GL250068  13.996  13.481  19.630 -0.2978  0.0386  0.2310
 2351DOPG   C1A50069  14.216  13.625  19.165  0.1865 -0.1516 -0.1228
 2351DOPG   D2A50070  13.826  13.446  19.033 -0.0188  0.1174 -0.1171
 2351DOPG   C3A50071  13.647  13.541  18.629 -0.0935  0.0738  0.1855
 2351DOPG   C4A50072  13.802  13.510  18.187  0.1809  0.0211 -0.2663
 2351DOPG   C1B50073  14.006  13.016  19.753 -0.1697  0.1371  0.3852
 2351DOPG   D2B50074  13.712  12.676  19.770 -0.1162 -0.0259  0.2001
 2351DOPG   C3B50075  13.903  12.289  19.956 -0.2031  0.1567  0.0307
 2351DOPG   C4B50076  14.301  12.024  20.200  0.3377 -0.0081 -0.2481
 2352DOPG   GL050077  10.377  20.954  18.386  0.0650 -0.2766 -0.0440
 2352DOPG   PO450078  10.137  20.682  18.439  0.1589  0.1656  0.1494
 2352DOPG   GL150079   9.879  20.584  18.737 -0.1060  0.1779 -0.0516
 2352DOPG   GL250080   9.786  20.867  18.967 -0.0258 -0.0660  0.0857
 2352DOPG   C1A50081   9.943  20.178  18.852  0.0034 -0.0654 -0.0586
 2352DOPG   D2A50082   9.949  19.957  19.354 -0.0489 -0.1189  0.0346
 2352DOPG   C3A50083  10.266  19.772  19.653 -0.0682  0.0382 -0.0158
 2352DOPG   C4A50084  10.399  19.370  19.735 -0.2400  0.2921 -0.1736
 2352DOPG   C1B50085  10.208  21.099  19.075 -0.0572 -0.1643 -0.0118
 2352DOPG   D2B50086  10.621  21.110  19.247  0.0091 -0.0567 -0.0354
 2352DOPG   C3B50087  10.943  21.428  19.517  0.3050  0.0681 -0.3247
 2352DOPG   C4B50088  10.882  21.617  19.895  0.2705  0.1689  0.0605
 2353DOPG   GL050089  15.612  12.300  17.960 -0.3095 -0.0724  0.2832
 2353DOPG   PO450090  15.179  12.061  18.004  0.0001 -0.0769 -0.2676
 2353DOPG   GL150091  14.913  12.109  18.315 -0.3533  0.1946 -0.2702
 2353DOPG   GL250092  15.144  12.211  18.581 -0.1802 -0.0170  0.1323
 2353DOPG   C1A50093  14.583  12.242  18.505 -0.1324 -0.1995 -0.0721
 2353DOPG   D2A50094  14.234  12.157  18.740 -0.1052 -0.1783 -0.3385
 2353DOPG   C3A50095  14.199  12.177  19.165  0.1157  0.3294  0.0928
 2353DOPG   C4A50096  14.336  12.055  19.643  0.0305 -0.0914  0.0054
 2353DOPG   C1B50097  15.004  12.071  18.836 -0.0883 -0.1018 -0.0735
 2353DOPG   D2B50098  14.742  11.986  19.267  0.0687  0.0232  0.1054
 2353DOPG   C3B50099  14.833  12.143  19.691  0.0543  0.1001  0.3066
 2353DOPG   C4B50100  14.767  12.248  20.046  0.0544 -0.0959 -0.1551
 2354DOPG   GL050101  19.333  19.811  17.392 -0.1809  0.0815  0.0814
 2354DOPG   PO450102  19.629  19.537  17.264 -0.1737  0.2089  0.1075
 2354DOPG   GL150103  19.590  19.237  17.533  0.1301 -0.0345  0.1682
 2354DOPG   GL250104  19.900  19.163  17.456 -0.3378  0.4637  0.1854
 2354DOPG   C1A50105  19.505  18.728  17.546 -0.0629 -0.0507 -0.4242
 2354DOPG   D2A50106  19.245  18.474  17.746  0.2357  0.3625 -0.4455
 2354DOPG   C3A50107  18.786  18.511  17.666  0.0678  0.1780 -0.0178
 2354DOPG   C4A50108  18.328  18.463  17.710  0.2296  0.0867 -0.3213
 2354DOPG   C1B50109  19.905  19.246  17.919 -0.1909  0.3310  0.1473
 2354DOPG   D2B50110  19.726  19.006  18.301  0.0165  0.0287  0.2950
 2354DOPG   C3B50111  20.033  18.782  18.485  0.0965  0.2253  0.1362
 2354DOPG   C4B50112  20.495  18.818  18.558  0.2691 -0.0988 -0.3243
 2355DOPG   GL050113  17.814  19.124  18.042 -0.3494 -0.1254 -0.0076
 2355DOPG   PO450114  18.112  19.306  18.270  0.0363 -0.1598 -0.2889
 2355DOPG   GL150115  18.562  19.287  18.315 -0.1205 -0.0703 -0.2337
 2355DOPG   GL250116  18.821  19.373  18.114  0.3285 -0.2025 -0.1235
 2355DOPG   C1A50117  18.761  19.299  18.786 -0.0096 -0.2366  0.0830
 2355DOPG   D2A50118  18.929  19.500  19.112 -0.1898  0.0479 -0.0362
 2355DOPG   C3A50119  18.946  19.839  19.294  0.1096 -0.1003  0.1072
 2355DOPG   C4A50120  19.338  19.967  19.356  0.2291  0.0122 -0.0865
 2355DOPG   C1B50121  18.826  18.870  18.013 -0.1292  0.2662  0.2061
 2355DOPG   D2B50122  18.484  18.512  18.186  0.0663  0.0315  0.0736
 2355DOPG   C3B50123  18.591  18.225  18.575 -0.1596 -0.0456 -0.2745
 2355DOPG   C4B50124  18.699  18.015  19.018 -0.0222 -0.0854 -0.2028
 2356DOPG   GL050125  17.810  12.325  17.749 -0.4436  0.3383 -0.0583
 2356DOPG   PO450126  17.482  12.280  18.042  0.0456 -0.2092 -0.1667
 2356DOPG   GL150127  17.812  12.089  18.260  0.1998 -0.3592  0.0304
 2356DOPG   GL250128  18.066  11.904  17.988  0.0979  0.0586  0.0589
 2356DOPG   C1A50129  18.284  12.111  18.357 -0.1859 -0.1263  0.3069
 2356DOPG   D2A50130  18.753  12.038  18.363 -0.4487  0.2453  0.0057
 2356DOPG   C3A50131  19.207  12.014  18.470  0.1887  0.1278  0.1380
 2356DOPG   C4A50132  19.556  12.014  18.680 -0.0063  0.1573 -0.2785
 2356DOPG   C1B50133  18.340  11.676  18.235  0.3056 -0.1632  0.0291
 2356DOPG   D2B50134  18.775  11.481  18.234 -0.0314  0.1367 -0.2161
 2356DOPG   C3B50135  18.913  10.993  18.110 -0.0645 -0.3770 -0.2598
 2356DOPG   C4B50136  19.260  10.627  18.237  0.1384 -0.0237 -0.0069
 2357DOPG   GL050137   8.878  21.389  16.877  0.1759 -0.2308  0.0023
 2357DOPG   PO450138   9.243  21.509  17.136  0.1964 -0.1320  0.1052
 2357DOPG   GL150139   9.239  21.915  17.250 -0.0497 -0.1296  0.1407
 2357DOPG   GL250140   8.841  22.094  17.302 -0.0744  0.0846  0.0729
 2357DOPG   C1A50141   9.328  22.390  17.371  0.0749  0.2808  0.0588
 2357DOPG   D2A50142   9.465  22.738  17.551  0.0559 -0.2342  0.0851
 2357DOPG   C3A50143   9.378  23.137  17.414 -0.3360 -0.1944  0.0398
 2357DOPG   C4A50144   9.435  23.653  17.475 -0.1162  0.1436 -0.0667
 2357DOPG   C1B50145   8.873  22.526  17.551  0.0884 -0.5733 -0.2278
 2357DOPG   D2B50146   8.956  22.910  17.560  0.1559 -0.4620  0.2799
 2357DOPG   C3B50147   8.898  23.333  17.429  0.3086 -0.0082 -0.1420
 2357DOPG   C4B50148   8.783  23.371  17.000  0.1818 -0.2750  0.0629
 2358DOPG   GL050149  13.310  16.938  19.953 -0.1079 -0.0292 -0.2395
 2358DOPG   PO450150  13.670  17.000  20.136 -0.0334  0.1457  0.1661
 2358DOPG   GL150151  13.883  17.108  20.515  0.0706  0.0671  0.0365
 2358DOPG   GL250152  13.868  17.391  20.581  0.2145  0.0523  0.2411
 2358DOPG   C1A50153  14.074  17.077  20.960  0.0084 -0.1277 -0.3978
 2358DOPG   D2A50154  14.283  17.021  21.423 -0.1288 -0.0177 -0.1015
 2358DOPG   C3A50155  14.275  16.671  21.819 -0.1288 -0.3143  0.1446
 2358DOPG   C4A50156  14.228  16.202  21.853 -0.0268  0.1033 -0.0358
 2358DOPG   C1B50157  13.744  17.669  20.937  0.3885  0.1848  0.2175
 2358DOPG   D2B50158  13.537  17.896  21.336  0.1177 -0.2153  0.0469
 2358DOPG   C3B50159  13.554  18.445  21.298  0.0055 -0.1622  0.2155
 2358DOPG   C4B50160  13.393  18.866  21.274 -0.0671  0.2063  0.1489
 2359DOPG   GL050161  18.955  20.312  18.353  0.1699  0.1264 -0.1842
 2359DOPG   PO450162  18.956  20.742  18.428  0.1321  0.0147 -0.0682
 2359DOPG   GL150163  18.773  20.585  18.817  0.0857  0.1630 -0.1752
 2359DOPG   GL250164  18.345  20.507  18.822  0.1805 -0.0188 -0.2069
 2359DOPG   C1A50165  18.772  20.741  19.202  0.2765  0.2913 -0.2188
 2359DOPG   D2A50166  19.040  20.952  19.470 -0.0679 -0.0607  0.0504
 2359DOPG   C3A50167  19.259  21.293  19.413 -0.0297  0.2793 -0.0631
 2359DOPG   C4A50168  19.341  21.639  19.566  0.3509 -0.3243 -0.0098
 2359DOPG   C1B50169  18.255  20.662  19.202 -0.3058 -0.0449  0.0374
 2359DOPG   D2B50170  18.193  21.033  19.386  0.0852  0.0162 -0.1948
 2359DOPG   C3B50171  18.266  21.513  19.645  0.0407 -0.2537  0.2328
 2359DOPG   C4B50172  18.359  21.955  19.425  0.0305  0.0083 -0.3643
 2360DOPG   GL050173  11.401  15.369  19.748  0.1007 -0.2319  0.1999
 2360DOPG   PO450174  11.294  14.955  19.522 -0.0863 -0.3975  0.0986
 2360DOPG   GL150175  11.365  14.693  19.860 -0.2806  0.4389  0.1321
 2360DOPG   GL250176  11.265  14.406  20.064  0.0374  0.3429  0.1366
 2360DOPG   C1A50177  10.997  14.915  20.067  0.0319 -0.0658  0.0196
 2360DOPG   D2A50178  10.634  14.979  20.207  0.2865  0.0793 -0.0322
 2360DOPG   C3A50179  10.417  14.703  20.476 -0.0080 -0.1656 -0.3190
 2360DOPG   C4A50180  10.405  14.509  20.872 -0.1038 -0.0647 -0.1704
 2360DOPG   C1B50181  11.080  14.224  20.421 -0.2864  0.0164 -0.3489
 2360DOPG   D2B50182  11.013  14.261  20.804 -0.0913 -0.0470  0.0334
 2360DOPG   C3B50183  11.409  14.257  21.106  0.5075  0.1640 -0.1723
 2360DOPG   C4B50184  11.782  14.351  21.102 -0.0028 -0.0105 -0.1352
 2361DOPG   GL050185  13.539  13.113  19.992  0.0235 -0.0993 -0.1503
 2361DOPG   PO450186  13.576  13.478  19.802  0.0453  0.1621  0.0963
 2361DOPG   GL150187  13.907  13.397  20.153 -0.0739 -0.4289  0.1940
 2361DOPG   GL250188  14.011  13.630  20.560  0.0509  0.0145  0.1335
 2361DOPG   C1A50189  14.323  13.315  20.289 -0.0092 -0.3568  0.1310
 2361DOPG   D2A50190  14.382  13.024  20.625 -0.1032 -0.3037 -0.2121
 2361DOPG   C3A50191  14.144  12.536  20.668  0.1126 -0.1911  0.4847
 2361DOPG   C4A50192  13.878  12.210  20.504  0.0719 -0.0096  0.0509
 2361DOPG   C1B50193  14.160  13.432  20.921 -0.1210  0.4219 -0.1521
 2361DOPG   D2B50194  14.092  13.343  21.430  0.0465  0.0317 -0.2721
 2361DOPG   C3B50195  13.809  12.983  21.536 -0.0890 -0.0546 -0.0449
 2361DOPG   C4B50196  13.751  12.650  21.779 -0.3193 -0.0492 -0.0615
 2362DOPG   GL050197  12.101  11.144  17.945  0.2320 -0.2306 -0.2397
 2362DOPG   PO450198  11.971  11.497  17.726 -0.0440  0.0414 -0.0267
 2362DOPG   GL150199  11.883  11.609  18.173 -0.0526 -0.0762 -0.0133
 2362DOPG   GL250200  11.630  11.770  18.157  0.0380 -0.1273  0.1752
 2362DOPG   C1A50201  11.904  11.836  18.552 -0.0625 -0.1943  0.0174
 2362DOPG   D2A50202  12.180  12.041  18.854  0.0127  0.0634  0.0428
 2362DOPG   C3A50203  12.601  12.145  18.807  0.3574 -0.1702 -0.0419
 2362DOPG   C4A50204  12.971  12.524  18.852  0.0518  0.1113  0.0581
 2362DOPG   C1B50205  11.619  12.188  18.329  0.1471  0.0092  0.0759
 2362DOPG   D2B50206  11.588  12.661  18.355 -0.1000 -0.0048 -0.4436
 2362DOPG   C3B50207  11.950  12.854  18.616 -0.1918 -0.0988  0.0893
 2362DOPG   C4B50208  12.250  13.096  18.948 -0.1210  0.1394 -0.0344
 2363DOPG   GL050209  12.846  13.755  20.352 -0.1838  0.1083 -0.1007
 2363DOPG   PO450210  12.493  13.768  20.474 -0.1687  0.1104  0.3308
 2363DOPG   GL150211  12.235  13.393  20.429 -0.0123  0.2834 -0.0141
 2363DOPG   GL250212  12.023  13.518  20.605 -0.0426  0.0573  0.0684
 2363DOPG   C1A50213  11.862  13.003  20.490 -0.4558  0.0947  0.0512
 2363DOPG   D2A50214  12.003  12.626  20.242 -0.1485 -0.1450  0.1340
 2363DOPG   C3A50215  11.976  12.206  20.412  0.1265  0.0791 -0.1445
 2363DOPG   C4A50216  11.732  11.893  20.690  0.0340 -0.2201 -0.0680
 2363DOPG   C1B50217  11.958  13.251  20.977 -0.0948 -0.1943  0.0146
 2363DOPG   D2B50218  11.901  12.772  21.084 -0.1296 -0.0977 -0.4003
 2363DOPG   C3B50219  12.004  12.557  20.732  0.1306  0.0441 -0.0233
 2363DOPG   C4B50220  12.429  12.429  20.481 -0.3287  0.1150 -0.1852
 2364DOPG   GL050221  13.995  18.435  20.040  0.1952 -0.1335 -0.3950
 2364DOPG   PO450222  14.434  18.334  19.908  0.0979  0.2734 -0.0813
 2364DOPG   GL150223  14.362  18.383  20.391  0.0153 -0.0369 -0.0280
 2364DOPG   GL250224  14.439  18.116  20.753 -0.1316 -0.0840 -0.2236
 2364DOPG   C1A50225  14.159  18.570  20.714 -0.0111 -0.0322  0.0132
 2364DOPG   D2A50226  13.892  18.860  20.881 -0.2178  0.2370  0.0189
 2364DOPG   C3A50227  14.087  18.953  21.270  0.0028 -0.0086 -0.0671
 2364DOPG   C4A50228  14.405  18.755  21.550 -0.2057 -0.1262  0.0121
 2364DOPG   C1B50229  14.427  18.003  21.243 -0.0396 -0.2979  0.2257
 2364DOPG   D2B50230  14.133  17.868  21.562 -0.1778 -0.1649 -0.0966
 2364DOPG   C3B50231  13.762  18.147  21.698  0.0200  0.0390 -0.0414
 2364DOPG   C4B50232  13.580  18.293  22.167  0.1513  0.1386  0.1168
 2365DOPG   GL050233  14.684  16.083  20.230 -0.2740 -0.0945  0.0761
 2365DOPG   PO450234  14.346  16.205  20.458  0.0633 -0.0179 -0.0656
 2365DOPG   GL150235  14.012  16.339  20.871 -0.0937 -0.2007 -0.0137
 2365DOPG   GL250236  14.038  16.581  21.033 -0.0710  0.0720  0.2432
 2365DOPG   C1A50237  13.830  16.230  21.265 -0.1590  0.1320  0.0846
 2365DOPG   D2A50238  13.695  16.046  21.646 -0.3387  0.0205 -0.0617
 2365DOPG   C3A50239  13.718  16.239  22.071  0.2174 -0.1825  0.1016
 2365DOPG   C4A50240  13.712  16.447  22.436 -0.2832  0.2377 -0.2481
 2365DOPG   C1B50241  14.318  16.362  21.308  0.2695  0.1358  0.3989
 2365DOPG   D2B50242  14.647  16.152  21.278 -0.0515 -0.0940 -0.2604
 2365DOPG   C3B50243  14.677  15.960  21.599  0.1009  0.1087  0.1122
 2365DOPG   C4B50244  14.569  15.884  22.016  0.0614 -0.0759 -0.3830
 2366DOPG   GL050245  18.342  13.374  18.534  0.0194 -0.0116  0.2133
 2366DOPG   PO450246  18.694  13.678  18.691 -0.1067 -0.1377 -0.1114
 2366DOPG   GL150247  19.032  13.461  19.054  0.2301 -0.0913 -0.1017
 2366DOPG   GL250248  19.223  13.545  19.448 -0.1421 -0.0382 -0.0463
 2366DOPG   C1A50249  19.071  13.028  19.167  0.2430  0.0587 -0.1851
 2366DOPG   D2A50250  19.232  12.586  19.072  0.1031 -0.1697  0.0882
 2366DOPG   C3A50251  19.440  12.498  18.718  0.4059  0.1125 -0.0330
 2366DOPG   C4A50252  19.471  12.399  18.305  0.0834 -0.3747  0.3443
 2366DOPG   C1B50253  19.133  13.226  19.800 -0.2559  0.0501 -0.3498
 2366DOPG   D2B50254  19.390  12.893  20.049  0.0791 -0.0929  0.1968
 2366DOPG   C3B50255  19.631  12.455  19.970  0.0131  0.1256  0.0632
 2366DOPG   C4B50256  20.001  12.288  19.878  0.3050 -0.0867  0.1985
 2367DOPG   GL050257  13.174  21.126  17.488 -0.4573  0.0128 -0.2321
 2367DOPG   PO450258  13.564  21.313  17.627 -0.0293 -0.0518  0.1651
 2367DOPG   GL150259  13.830  21.514  17.948 -0.2095 -0.1212 -0.3487
 2367DOPG   GL250260  14.135  21.515  18.100  0.2571  0.2609  0.3147
 2367DOPG   C1A50261  13.879  21.980  18.106  0.1223  0.1808 -0.1301
 2367DOPG   D2A50262  13.801  22.427  18.137  0.0120  0.1338  0.0031
 2367DOPG   C3A50263  13.803  22.593  17.871 -0.0410  0.0452 -0.0780
 2367DOPG   C4A50264  14.080  22.931  17.648 -0.2322  0.1329 -0.2115
 2367DOPG   C1B50265  14.277  21.713  18.461 -0.2088 -0.0019  0.3232
 2367DOPG   D2B50266  14.386  21.772  18.969  0.1368  0.1331 -0.0458
 2367DOPG   C3B50267  14.244  22.009  19.305  0.0834 -0.4484 -0.2894
 2367DOPG   C4B50268  14.233  22.217  19.741  0.0231 -0.1591  0.1154
 2368DOPG   GL050269  12.790  10.673  18.318  0.1741 -0.1101  0.2245
 2368DOPG   PO450270  12.984  10.455  18.762 -0.0491 -0.0711  0.1648
 2368DOPG   GL150271  12.771  10.119  18.990 -0.2002  0.1846 -0.0306
 2368DOPG   GL250272  13.078   9.924  18.975 -0.1321  0.1512 -0.1526
 2368DOPG   C1A50273  12.588   9.808  19.232  0.2251  0.1097  0.4956
 2368DOPG   D2A50274  12.865   9.533  19.439 -0.2995 -0.0568  0.0061
 2368DOPG   C3A50275  13.254   9.571  19.300 -0.0999 -0.3122 -0.1420
 2368DOPG   C4A50276  13.646   9.558  19.504  0.0347 -0.1035 -0.2118
 2368DOPG   C1B50277  12.900   9.554  18.893 -0.0958  0.3322 -0.2922
 2368DOPG   D2B50278  12.698   9.089  18.764  0.1765  0.0945 -0.0163
 2368DOPG   C3B50279  12.315   8.853  18.950 -0.1612 -0.2241 -0.1282
 2368DOPG   C4B50280  11.913   9.026  18.723 -0.3282 -0.0631  0.1644
 2369DOPG   GL050281   9.685  15.137  18.272  0.5104 -0.1767 -0.2453
 2369DOPG   PO450282   9.530  14.945  18.606 -0.3288  0.1178 -0.0006
 2369DOPG   GL150283   9.216  14.890  18.851  0.0274 -0.0616  0.0810
 2369DOPG   GL250284   9.055  15.025  18.748  0.0737  0.0203 -0.0277
 2369DOPG   C1A50285   9.094  14.857  19.241 -0.2408  0.2773 -0.1667
 2369DOPG   D2A50286   8.797  14.932  19.707 -0.2138 -0.0819  0.2956
 2369DOPG   C3A50287   8.581  14.534  19.898  0.1046 -0.1783  0.1739
 2369DOPG   C4A50288   8.510  14.240  20.301 -0.0767 -0.1285 -0.0676
 2369DOPG   C1B50289   8.849  15.345  18.908 -0.0107 -0.0719  0.0657
 2369DOPG   D2B50290   8.670  15.746  18.788  0.2961 -0.0688 -0.1182
 2369DOPG   C3B50291   8.344  15.864  19.032 -0.2164 -0.1393  0.2327
 2369DOPG   C4B50292   7.883  16.051  19.198 -0.1111  0.0096  0.2908
 2370DOPG   GL050293  14.203  18.843  20.339  0.1677  0.2711 -0.2316
 2370DOPG   PO450294  14.032  19.236  20.067  0.0375 -0.0148  0.0436
 2370DOPG   GL150295  13.881  19.572  20.262  0.2767 -0.1916 -0.1461
 2370DOPG   GL250296  13.645  19.554  20.222  0.2958  0.0213 -0.0600
 2370DOPG   C1A50297  13.763  20.015  20.473  0.0001  0.0730  0.2641
 2370DOPG   D2A50298  14.035  20.409  20.594  0.2451 -0.3059 -0.0651
 2370DOPG   C3A50299  13.889  20.790  20.562  0.0418 -0.1859 -0.1426
 2370DOPG   C4A50300  14.078  21.133  20.380  0.2484 -0.1997 -0.1153
 2370DOPG   C1B50301  13.384  19.642  20.628 -0.2680 -0.0009  0.1329
 2370DOPG   D2B50302  13.491  19.934  20.948 -0.1047 -0.2835 -0.0448
 2370DOPG   C3B50303  14.017  19.845  21.018  0.0072  0.0270 -0.2188
 2370DOPG   C4B50304  14.256  19.860  20.601  0.1215 -0.1160  0.0585
 2371DOPG   GL050305  13.570  10.722  17.274 -0.2852  0.0775 -0.0126
 2371DOPG   PO450306  13.488  11.159  17.181 -0.1597  0.0953 -0.4376
 2371DOPG   GL150307  13.322  11.332  17.474  0.1431 -0.2269 -0.1175
 2371DOPG   GL250308  13.699  11.444  17.741  0.2787  0.0979 -0.1057
 2371DOPG   C1A50309  13.255  11.432  17.892  0.0640  0.2412 -0.0059
 2371DOPG   D2A50310  13.166  11.759  18.142  0.0333  0.1904  0.2014
 2371DOPG   C3A50311  13.148  11.766  18.515  0.1711  0.1572 -0.5054
 2371DOPG   C4A50312  13.216  12.070  18.832 -0.0721 -0.0095 -0.3213
 2371DOPG   C1B50313  13.680  11.777  18.034  0.3102 -0.3910 -0.1252
 2371DOPG   D2B50314  13.419  12.153  18.194  0.4192 -0.3843 -0.0478
 2371DOPG   C3B50315  13.602  12.590  18.239 -0.0977 -0.0086 -0.2349
 2371DOPG   C4B50316  13.650  13.041  18.537  0.2343  0.3001 -0.0810
 2372DOPG   GL050317   9.458  14.761  18.141 -0.0698  0.0868  0.0828
 2372DOPG   PO450318   9.117  14.857  18.271 -0.0380 -0.1623 -0.0175
 2372DOPG   GL150319   8.823  14.610  18.516 -0.0086  0.3893 -0.1010
 2372DOPG   GL250320   8.855  14.504  18.862  0.2287 -0.1179 -0.0113
 2372DOPG   C1A50321   8.392  14.463  18.873 -0.1460  0.0137  0.4040
 2372DOPG   D2A50322   8.204  14.719  19.231  0.3720 -0.0780 -0.2625
 2372DOPG   C3A50323   8.226  14.570  19.585  0.0208 -0.3757  0.0502
 2372DOPG   C4A50324   8.097  14.797  19.966  0.0540  0.1515  0.2121
 2372DOPG   C1B50325   8.691  14.567  19.269 -0.0160  0.0385 -0.1288
 2372DOPG   D2B50326   8.570  14.186  19.584  0.0943 -0.1058  0.0726
 2372DOPG   C3B50327   8.502  13.850  19.490 -0.0621 -0.4006  0.0136
 2372DOPG   C4B50328   8.269  13.535  19.464  0.0738  0.0433  0.2603
 2373DOPG   GL050329  11.344  21.786  16.416 -0.0766 -0.3000  0.2394
 2373DOPG   PO450330  11.793  21.917  16.357  0.0102 -0.0427 -0.2542
 2373DOPG   GL150331  11.841  22.151  15.961 -0.0084 -0.0047 -0.1393
 2373DOPG   GL250332  11.784  21.963  15.657  0.2310 -0.0666  0.0097
 2373DOPG   C1A50333  12.249  22.442  15.943 -0.2442 -0.0327 -0.3964
 2373DOPG   D2A50334  12.398  22.755  16.210 -0.0756  0.0766 -0.0950
 2373DOPG   C3A50335  12.441  23.161  16.049 -0.0234 -0.0671  0.0976
 2373DOPG   C4A50336  12.383  23.646  16.128 -0.0611 -0.2004 -0.3424
 2373DOPG   C1B50337  11.469  22.289  15.581  0.1956 -0.0950  0.2760
 2373DOPG   D2B50338  11.479  22.708  15.727 -0.1211  0.2001 -0.0731
 2373DOPG   C3B50339  11.473  23.012  15.433  0.3350 -0.1767 -0.1419
 2373DOPG   C4B50340  11.565  23.197  14.996  0.0206  0.1220  0.2028
 2374DOPG   GL050341  13.091  13.642  20.910 -0.1320 -0.0657  0.0195
 2374DOPG   PO450342  13.195  13.159  20.844  0.1199 -0.0660  0.1024
 2374DOPG   GL150343  13.590  12.997  20.964  0.0324  0.1840  0.0045
 2374DOPG   GL250344  13.685  13.172  21.082 -0.1561  0.1647  0.3779
 2374DOPG   C1A50345  13.770  12.579  21.224 -0.0573  0.0605  0.1848
 2374DOPG   D2A50346  13.863  12.226  21.478  0.1586 -0.0549  0.0713
 2374DOPG   C3A50347  14.255  12.143  21.650 -0.2343 -0.0254  0.0281
 2374DOPG   C4A50348  14.633  12.034  21.723 -0.3885  0.1673 -0.0191
 2374DOPG   C1B50349  14.126  12.935  21.043  0.0074 -0.1329 -0.3878
 2374DOPG   D2B50350  14.235  12.502  21.170 -0.0209  0.3227 -0.0912
 2374DOPG   C3B50351  14.009  12.098  20.964  0.3824 -0.0862 -0.0371
 2374DOPG   C4B50352  13.580  11.799  20.831 -0.0262  0.0636  0.2244
 2375DOPG   GL050353  24.187  20.380  18.457 -0.1523 -0.2835 -0.0850
 2375DOPG   PO450354  23.996  20.113  18.657  0.1079 -0.0124 -0.0639
 2375DOPG   GL150355  23.668  20.426  18.877 -0.0152 -0.1793  0.2420
 2375DOPG   GL250356  23.635  20.597  18.645  0.1159 -0.2504 -0.0589
 2375DOPG   C1A50357  23.267  20.461  18.990  0.1148  0.0385 -0.1270
 2375DOPG   D2A50358  23.152  20.805  19.297  0.0339  0.2236 -0.4158
 2375DOPG   C3A50359  23.461  21.008  19.630 -0.0071  0.2705 -0.1232
 2375DOPG   C4A50360  23.770  21.028  19.696  0.1625 -0.2457  0.0473
 2375DOPG   C1B50361  23.465  20.929  18.973  0.0725  0.0236 -0.1847
 2375DOPG   D2B50362  23.337  21.299  19.201 -0.2325  0.2462 -0.1190
 2375DOPG   C3B50363  23.486  21.771  19.107 -0.0651 -0.2198 -0.0012
 2375DOPG   C4B50364  23.560  21.967  19.510 -0.0549  0.1159  0.3385
 2376DOPG   GL050365  21.797  16.577  18.098  0.0106 -0.1135  0.0228
 2376DOPG   PO450366  21.713  16.938  18.446  0.0476 -0.3267  0.4502
 2376DOPG   GL150367  21.668  17.090  18.822  0.0124  0.0791  0.2582
 2376DOPG   GL250368  21.683  16.839  19.010 -0.0757  0.0205 -0.4260
 2376DOPG   C1A50369  21.406  17.356  19.082  0.1292  0.6684  0.0055
 2376DOPG   D2A50370  21.004  17.208  19.228 -0.4472 -0.1728  0.1306
 2376DOPG   C3A50371  20.671  17.349  19.231 -0.0436 -0.0021 -0.1308
 2376DOPG   C4A50372  20.336  17.650  19.483 -0.0715  0.0141 -0.0338
 2376DOPG   C1B50373  21.547  16.898  19.461 -0.3096 -0.0342 -0.0378
 2376DOPG   D2B50374  21.432  17.345  19.594 -0.2539 -0.1625  0.0756
 2376DOPG   C3B50375  21.119  17.502  19.623 -0.2656 -0.4282 -0.4343
 2376DOPG   C4B50376  20.738  17.397  19.717 -0.2912  0.1653 -0.0356
 2377DOPG   GL050377  11.053  11.249  18.766  0.0440 -0.0534  0.2348
 2377DOPG   PO450378  10.808  11.519  18.799  0.0574 -0.4477 -0.1987
 2377DOPG   GL150379  10.714  11.754  19.147 -0.0294  0.0282 -0.2654
 2377DOPG   GL250380  11.094  11.784  19.128 -0.0555 -0.1646  0.1707
 2377DOPG   C1A50381  10.799  12.139  19.265 -0.1640  0.1038 -0.0820
 2377DOPG   D2A50382  10.854  12.592  19.303  0.2962  0.1748  0.2341
 2377DOPG   C3A50383  10.736  12.888  18.965  0.1128 -0.0510  0.0925
 2377DOPG   C4A50384  10.951  13.276  19.003  0.2875 -0.1500 -0.2806
 2377DOPG   C1B50385  11.277  12.042  19.412 -0.1322  0.2958 -0.0387
 2377DOPG   D2B50386  11.430  12.504  19.571 -0.2019 -0.1409  0.0319
 2377DOPG   C3B50387  11.644  12.766  19.277  0.1864  0.6390  0.1477
 2377DOPG   C4B50388  11.744  13.103  19.002  0.0920 -0.2095 -0.2672
 2378DOPG   GL050389  13.558  21.275  17.148  0.0514 -0.0598  0.3091
 2378DOPG   PO450390  13.222  21.503  17.162 -0.3281  0.1385 -0.2193
 2378DOPG   GL150391  13.119  21.700  17.450 -0.2779  0.0969 -0.2080
 2378DOPG   GL250392  13.409  21.732  17.646 -0.2157  0.2369 -0.1229
 2378DOPG   C1A50393  13.081  22.119  17.628  0.0146  0.2199  0.2513
 2378DOPG   D2A50394  12.842  22.470  17.727  0.1037 -0.3452  0.2113
 2378DOPG   C3A50395  12.797  22.826  18.034 -0.2240 -0.0251  0.0005
 2378DOPG   C4A50396  12.727  22.826  18.480  0.0607 -0.1858  0.3653
 2378DOPG   C1B50397  13.393  21.828  18.139 -0.0197  0.0391  0.1217
 2378DOPG   D2B50398  13.419  22.138  18.446 -0.1195  0.0590  0.1562
 2378DOPG   C3B50399  13.491  22.518  18.669 -0.0212 -0.0804 -0.1411
 2378DOPG   C4B50400  13.534  22.805  19.031 -0.1169  0.0690 -0.1127
 2379DOPG   GL050401  12.568  19.858  18.233  0.1865 -0.1042 -0.6938
 2379DOPG   PO450402  12.231  19.803  18.080 -0.1636 -0.1065  0.0227
 2379DOPG   GL150403  12.308  19.389  18.264  0.0011 -0.0903 -0.3646
 2379DOPG   GL250404  12.094  19.237  18.343  0.1681 -0.2562 -0.0299
 2379DOPG   C1A50405  12.663  19.105  18.068 -0.2849  0.1542  0.0978
 2379DOPG   D2A50406  12.659  18.720  18.342  0.3507 -0.0798 -0.0902
 2379DOPG   C3A50407  12.427  18.292  18.128  0.0933  0.2071  0.0161
 2379DOPG   C4A50408  12.550  17.886  18.021 -0.1565 -0.1269 -0.1039
 2379DOPG   C1B50409  12.246  18.871  18.027  0.1420  0.1223 -0.0155
 2379DOPG   D2B50410  12.192  18.884  17.648  0.2286  0.0643  0.1007
 2379DOPG   C3B50411  12.145  18.483  17.548 -0.1266 -0.1096 -0.1437
 2379DOPG   C4B50412  12.018  18.103  17.764  0.1038 -0.2086 -0.2715
 2380DOPG   GL050413  17.617  20.908  18.062  0.0941  0.1463 -0.0725
 2380DOPG   PO450414  17.235  20.736  18.048  0.0432  0.2099 -0.0244
 2380DOPG   GL150415  17.254  21.036  18.454 -0.1669 -0.3866 -0.2129
 2380DOPG   GL250416  17.347  21.006  18.788  0.1487  0.1330  0.0200
 2380DOPG   C1A50417  17.085  21.512  18.610  0.0463  0.0696 -0.0274
 2380DOPG   D2A50418  16.955  21.974  18.627 -0.0398  0.0530  0.1181
 2380DOPG   C3A50419  16.861  22.163  19.011 -0.0730  0.2636  0.1911
 2380DOPG   C4A50420  17.057  22.285  19.343  0.1631 -0.0423  0.0418
 2380DOPG   C1B50421  17.312  21.355  19.042 -0.3024  0.1275  0.0379
 2380DOPG   D2B50422  17.375  21.789  19.154  0.1926 -0.0402 -0.0837
 2380DOPG   C3B50423  17.427  22.137  18.918  0.2576  0.3176  0.2932
 2380DOPG   C4B50424  17.212  22.394  18.542 -0.0584  0.0606  0.3238
 2381DOPG   GL050425  10.055  11.860  17.381  0.0864 -0.0244 -0.0263
 2381DOPG   PO450426  10.128  12.035  17.684 -0.2492  0.0367  0.1710
 2381DOPG   GL150427  10.482  12.205  17.607  0.1652 -0.0407 -0.0193
 2381DOPG   GL250428  10.815  12.072  17.661 -0.1641  0.4592 -0.1980
 2381DOPG   C1A50429  10.758  12.617  17.645 -0.0084 -0.2262  0.0966
 2381DOPG   D2A50430  11.118  12.884  17.467 -0.1220  0.0709  0.0237
 2381DOPG   C3A50431  11.085  13.118  17.006 -0.0465 -0.0569 -0.2196
 2381DOPG   C4A50432  11.121  12.985  16.568 -0.0099  0.1972 -0.2539
 2381DOPG   C1B50433  11.183  12.266  17.516 -0.2403  0.2378 -0.0563
 2381DOPG   D2B50434  11.409  12.566  17.225  0.0381 -0.0667 -0.1673
 2381DOPG   C3B50435  11.047  12.560  16.929  0.1292  0.0108 -0.4332
 2381DOPG   C4B50436  10.828  12.581  16.464 -0.2442  0.0878 -0.0947
 2382DOPG   GL050437  19.693  14.497  19.376  0.0081 -0.0087  0.0385
 2382DOPG   PO450438  19.975  14.485  19.124 -0.0481 -0.0011 -0.2655
 2382DOPG   GL150439  20.271  14.195  18.983 -0.1915 -0.1384 -0.2897
 2382DOPG   GL250440  20.327  14.344  18.694  0.0379 -0.0515 -0.1387
 2382DOPG   C1A50441  20.475  13.843  19.156 -0.0566 -0.0016 -0.1636
 2382DOPG   D2A50442  20.327  13.566  19.438 -0.0192 -0.1743 -0.2216
 2382DOPG   C3A50443  20.327  13.030  19.295 -0.1352 -0.2167 -0.2365
 2382DOPG   C4A50444  20.289  12.758  19.015 -0.0097 -0.3630 -0.1034
 2382DOPG   C1B50445  20.778  14.128  18.758  0.3302 -0.2188  0.3062
 2382DOPG   D2B50446  21.217  14.116  18.475  0.2213  0.3055 -0.2236
 2382DOPG   C3B50447  21.361  13.776  18.259  0.2506 -0.0747 -0.0076
 2382DOPG   C4B50448  21.485  13.543  17.900  0.1242 -0.1432 -0.2366
 2383DOPG   GL050449  14.378  14.560  20.483 -0.0431 -0.2245 -0.0166
 2383DOPG   PO450450  13.961  14.686  20.620  0.0632 -0.0279 -0.0354
 2383DOPG   GL150451  14.139  14.290  20.816 -0.0572  0.1617  0.1934
 2383DOPG   GL250452  14.488  14.301  20.876 -0.0810 -0.3265 -0.2122
 2383DOPG   C1A50453  14.204  13.872  21.092  0.0665 -0.1319  0.1606
 2383DOPG   D2A50454  14.543  13.550  21.346 -0.0470  0.3299  0.1053
 2383DOPG   C3A50455  14.957  13.461  21.237 -0.3188 -0.1971 -0.0163
 2383DOPG   C4A50456  15.351  13.448  21.281 -0.3847  0.0734 -0.3626
 2383DOPG   C1B50457  14.752  13.934  21.054  0.2703 -0.0269  0.2065
 2383DOPG   D2B50458  15.128  13.851  20.932  0.4320 -0.1228  0.3468
 2383DOPG   C3B50459  15.211  13.399  20.776  0.2407 -0.1060 -0.0107
 2383DOPG   C4B50460  15.144  13.002  21.007 -0.0179 -0.0098  0.0947
 2384DOPG   GL050461  18.693  15.628  18.736  0.1686  0.1046  0.2784
 2384DOPG   PO450462  18.710  15.775  19.220  0.1057 -0.0569 -0.0252
 2384DOPG   GL150463  18.544  16.191  19.076  0.2081 -0.4626 -0.1305
 2384DOPG   GL250464  18.265  16.176  19.093  0.0598  0.0860  0.1116
 2384DOPG   C1A50465  18.443  16.567  18.896 -0.5958  0.3164 -0.3067
 2384DOPG   D2A50466  18.314  17.053  18.827  0.0372 -0.0464 -0.0279
 2384DOPG   C3A50467  18.315  17.097  18.408  0.0469 -0.1496  0.1712
 2384DOPG   C4A50468  18.230  17.166  18.005  0.0013  0.0287  0.0219
 2384DOPG   C1B50469  17.807  16.185  18.828 -0.1909  0.1434  0.0454
 2384DOPG   D2B50470  17.688  15.958  18.504 -0.0122 -0.1464  0.1730
 2384DOPG   C3B50471  18.010  15.917  18.177  0.1226 -0.1404  0.0737
 2384DOPG   C4B50472  18.226  15.508  17.907 -0.0134  0.0058  0.1391
 2385DOPG   GL050473  19.591  15.555  19.466  0.0004  0.0489 -0.1607
 2385DOPG   PO450474  19.630  16.039  19.382 -0.1223  0.0629 -0.1603
 2385DOPG   GL150475  19.712  16.220  19.798 -0.0789  0.1246  0.1247
 2385DOPG   GL250476  20.024  16.189  19.843 -0.0578  0.2808  0.1222
 2385DOPG   C1A50477  19.561  16.405  20.257 -0.0116  0.2702  0.2975
 2385DOPG   D2A50478  19.810  16.618  20.481 -0.0967  0.1020  0.3369
 2385DOPG   C3A50479  19.901  16.946  20.796  0.0020  0.1842 -0.3521
 2385DOPG   C4A50480  20.103  17.367  20.868  0.0178  0.0799  0.3324
 2385DOPG   C1B50481  20.228  16.343  20.180 -0.0822  0.1196 -0.2406
 2385DOPG   D2B50482  20.377  16.755  20.248  0.0854  0.0984 -0.1875
 2385DOPG   C3B50483  20.109  17.146  20.328  0.0776 -0.0095  0.0881
 2385DOPG   C4B50484  20.192  17.577  20.367 -0.0106 -0.2160  0.1715
 2386DOPG   GL050485  16.861  21.217  18.928 -0.2996  0.0076 -0.0147
 2386DOPG   PO450486  16.820  20.910  18.755 -0.0917  0.1910  0.3351
 2386DOPG   GL150487  16.627  21.315  18.532  0.0391 -0.1686  0.1990
 2386DOPG   GL250488  16.561  21.573  18.818  0.0515 -0.1043  0.2020
 2386DOPG   C1A50489  16.743  21.680  18.309  0.4276  0.3974  0.4104
 2386DOPG   D2A50490  17.173  21.937  18.186  0.0221  0.2823 -0.1289
 2386DOPG   C3A50491  17.030  22.414  18.051 -0.0644 -0.1551  0.2436
 2386DOPG   C4A50492  17.236  22.824  17.841 -0.3485  0.1013  0.1993
 2386DOPG   C1B50493  16.394  21.472  19.263  0.0283 -0.0997 -0.2612
 2386DOPG   D2B50494  16.221  21.238  19.649  0.4271 -0.0075  0.0246
 2386DOPG   C3B50495  15.765  21.271  19.767 -0.0841 -0.0311  0.0408
 2386DOPG   C4B50496  15.373  21.305  19.869  0.1140  0.0526  0.0074
 2387DOPG   GL050497  22.586  15.513  18.433  0.1979 -0.1367  0.4015
 2387DOPG   PO450498  22.913  15.828  18.361  0.2431  0.0444  0.2849
 2387DOPG   GL150499  23.307  15.693  18.317  0.0839  0.2950 -0.2630
 2387DOPG   GL250500  23.309  15.491  18.027 -0.2322 -0.0540 -0.3962
 2387DOPG   C1A50501  23.688  15.427  18.511  0.0013 -0.1245  0.0775
 2387DOPG   D2A50502  24.000  15.182  18.604 -0.1917  0.0098  0.1576
 2387DOPG   C3A50503  24.319  15.079  18.361 -0.1746  0.1691 -0.0921
 2387DOPG   C4A50504  24.601  14.819  18.092 -0.3955 -0.4595 -0.1835
 2387DOPG   C1B50505  23.086  15.139  18.228  0.0607  0.1028 -0.0558
 2387DOPG   D2B50506  22.861  14.766  18.020  0.0931 -0.4031 -0.0345
 2387DOPG   C3B50507  23.078  14.607  17.644 -0.2349  0.1062 -0.0066
 2387DOPG   C4B50508  23.358  14.638  17.350 -0.0739 -0.0851 -0.0174
 2388DOPG   GL050509  17.113  20.022  18.944  0.0054  0.0331  0.2880
 2388DOPG   PO450510  17.011  19.954  19.321 -0.2670 -0.0468 -0.0108
 2388DOPG   GL150511  17.449  20.059  19.536  0.0911 -0.1212  0.1442
 2388DOPG   GL250512  17.854  19.948  19.574 -0.2372  0.0980 -0.1173
 2388DOPG   C1A50513  17.637  20.269  19.904 -0.0580 -0.1659  0.1948
 2388DOPG   D2A50514  17.393  20.623  19.982 -0.2627  0.1902 -0.0833
 2388DOPG   C3A50515  17.527  21.005  20.138 -0.0744 -0.2342 -0.0070
 2388DOPG   C4A50516  17.730  21.261  20.310  0.2508 -0.2030  0.4760
 2388DOPG   C1B50517  18.105  20.002  19.976  0.0535 -0.0465 -0.1270
 2388DOPG   D2B50518  18.461  20.168  20.270 -0.3669 -0.0357  0.3221
 2388DOPG   C3B50519  18.743  19.821  20.407  0.0816  0.1166 -0.3777
 2388DOPG   C4B50520  18.784  19.331  20.545  0.2955 -0.0096  0.1338
 2389DOPG   GL050521   5.837  20.820  17.709 -0.1953 -0.0498 -0.1668
 2389DOPG   PO450522   6.245  20.899  17.965 -0.1605 -0.0211  0.0211
 2389DOPG   GL150523   6.177  20.819  18.391  0.1274  0.1000 -0.1987
 2389DOPG   GL250524   5.942  20.718  18.530 -0.1208  0.1376  0.0385
 2389DOPG   C1A50525   6.298  21.058  18.796  0.0445 -0.0267  0.1111
 2389DOPG   D2A50526   6.334  21.061  19.187  0.3180  0.0797 -0.2552
 2389DOPG   C3A50527   6.701  20.825  19.261 -0.1668 -0.0499 -0.0398
 2389DOPG   C4A50528   7.183  20.941  19.184 -0.2522  0.3368  0.0319
 2389DOPG   C1B50529   6.326  20.581  18.846 -0.1204 -0.2530 -0.0331
 2389DOPG   D2B50530   6.674  20.419  18.719 -0.0548  0.2494  0.1916
 2389DOPG   C3B50531   7.115  20.437  18.758  0.3429 -0.1793  0.0476
 2389DOPG   C4B50532   7.451  20.501  18.906 -0.4818  0.1224  0.0184
 2390DOPG   GL050533  11.879  14.737  20.001 -0.1647  0.0553  0.1112
 2390DOPG   PO450534  11.776  14.218  19.958 -0.2939  0.1052 -0.0495
 2390DOPG   GL150535  11.469  13.944  19.869 -0.0394 -0.4204 -0.1768
 2390DOPG   GL250536  11.462  13.650  19.805  0.2349  0.0992  0.0654
 2390DOPG   C1A50537  11.069  13.807  20.103  0.0530  0.0422 -0.0090
 2390DOPG   D2A50538  10.998  13.432  20.376  0.0576  0.0762 -0.1969
 2390DOPG   C3A50539  10.615  13.095  20.310  0.1714  0.0050  0.2335
 2390DOPG   C4A50540  10.537  12.761  20.153 -0.1253  0.2461 -0.0620
 2390DOPG   C1B50541  11.262  13.347  19.972  0.3475 -0.0367 -0.0519
 2390DOPG   D2B50542  10.856  13.159  19.880  0.1472  0.3781  0.1349
 2390DOPG   C3B50543  10.730  13.238  19.501 -0.0113  0.0142 -0.3689
 2390DOPG   C4B50544  10.662  13.670  19.168 -0.0625 -0.1296  0.1335
 2391DOPG   GL050545  12.952  11.581  18.924  0.0885 -0.0685 -0.2286
 2391DOPG   PO450546  13.285  11.251  19.024  0.1842 -0.1518 -0.2187
 2391DOPG   GL150547  13.415  11.520  19.262  0.0260  0.2082 -0.2070
 2391DOPG   GL250548  13.482  11.726  19.037  0.0084  0.3616 -0.0191
 2391DOPG   C1A50549  13.397  11.891  19.516  0.1517  0.1360 -0.3574
 2391DOPG   D2A50550  13.430  12.259  19.736  0.2542  0.2953 -0.1169
 2391DOPG   C3A50551  13.427  12.116  20.211 -0.0051 -0.1272  0.1942
 2391DOPG   C4A50552  13.178  12.079  20.666  0.1348  0.0327 -0.0123
 2391DOPG   C1B50553  13.654  12.048  19.132  0.0167  0.0484  0.0856
 2391DOPG   D2B50554  13.836  12.223  19.497 -0.0586  0.1712 -0.2814
 2391DOPG   C3B50555  14.161  12.573  19.532  0.1883  0.0449  0.3029
 2391DOPG   C4B50556  14.385  12.542  19.821 -0.1072  0.2319  0.0501
 2392DOPG   GL050557  22.154  15.202  19.030 -0.0654  0.3555  0.4462
 2392DOPG   PO450558  22.486  15.283  18.862 -0.1287  0.2137 -0.0478
 2392DOPG   GL150559  22.863  15.291  19.146 -0.1824 -0.0690 -0.1786
 2392DOPG   GL250560  22.987  14.955  19.098 -0.0169  0.1583  0.0012
 2392DOPG   C1A50561  23.250  15.383  19.299 -0.3692 -0.2193 -0.0254
 2392DOPG   D2A50562  23.487  15.740  19.313  0.0202  0.0104  0.2223
 2392DOPG   C3A50563  23.872  15.704  19.027 -0.0362  0.0669 -0.1277
 2392DOPG   C4A50564  24.217  15.590  18.813 -0.3154 -0.0353 -0.1417
 2392DOPG   C1B50565  22.661  14.863  19.425  0.3002  0.1700 -0.0004
 2392DOPG   D2B50566  22.219  14.723  19.462  0.2373 -0.1642 -0.3077
 2392DOPG   C3B50567  22.081  14.681  19.949 -0.1118  0.0920  0.1342
 2392DOPG   C4B50568  21.726  14.655  20.203 -0.1210 -0.3373  0.2069
 2393DOPG   GL050569  16.618  17.571  20.361 -0.0775  0.1110  0.1590
 2393DOPG   PO450570  16.720  17.920  20.651 -0.4194 -0.1846 -0.1785
 2393DOPG   GL150571  17.017  17.967  20.907 -0.1409 -0.0265 -0.0840
 2393DOPG   GL250572  17.216  18.176  20.870 -0.4073 -0.1238 -0.2922
 2393DOPG   C1A50573  17.180  18.014  21.364 -0.4134  0.1394  0.1706
 2393DOPG   D2A50574  17.309  17.784  21.624  0.1665 -0.0645 -0.0300
 2393DOPG   C3A50575  17.679  17.744  21.770  0.0175  0.0169  0.0297
 2393DOPG   C4A50576  17.936  17.749  21.539 -0.0659  0.0911 -0.1786
 2393DOPG   C1B50577  17.230  18.485  21.106 -0.2371 -0.0276 -0.2949
 2393DOPG   D2B50578  17.557  18.845  21.396  0.0009  0.1058  0.1481
 2393DOPG   C3B50579  17.667  18.775  21.794 -0.2005 -0.1699 -0.3971
 2393DOPG   C4B50580  17.760  18.795  22.211  0.2804 -0.0975 -0.0135
 2394DOPG   GL050581  10.555  11.135  18.998  0.3122  0.0977  0.0055
 2394DOPG   PO450582  10.381  10.832  19.253 -0.2341  0.0962  0.0523
 2394DOPG   GL150583  10.444  11.197  19.475  0.1048  0.0083  0.1452
 2394DOPG   GL250584  10.588  11.036  19.697 -0.1303  0.1152 -0.1111
 2394DOPG   C1A50585  10.116  11.261  19.777  0.3799 -0.0827  0.0189
 2394DOPG   D2A50586  10.125  11.197  20.235 -0.3352  0.4538  0.1229
 2394DOPG   C3A50587  10.392  11.420  20.568 -0.3270  0.1087  0.1235
 2394DOPG   C4A50588  10.174  11.460  21.058 -0.2377  0.0040 -0.0410
 2394DOPG   C1B50589  10.645  11.262  20.072 -0.0608 -0.1047 -0.0901
 2394DOPG   D2B50590  10.811  11.272  20.424  0.3107  0.3818  0.0581
 2394DOPG   C3B50591  11.017  10.915  20.571  0.1726  0.0332  0.0810
 2394DOPG   C4B50592  11.005  10.474  20.434 -0.1887  0.1145  0.2923
 2395DOPG   GL050593  21.389  18.198  17.348  0.0997  0.0661 -0.2754
 2395DOPG   PO450594  20.975  18.132  17.184  0.0291 -0.0427  0.0856
 2395DOPG   GL150595  20.651  17.991  17.517 -0.2040  0.0650  0.0106
 2395DOPG   GL250596  20.677  18.008  17.754  0.2020 -0.0621 -0.2451
 2395DOPG   C1A50597  20.189  18.151  17.563 -0.1351 -0.1901 -0.3349
 2395DOPG   D2A50598  19.869  18.068  17.893  0.3109 -0.3425 -0.1347
 2395DOPG   C3A50599  19.382  17.958  17.817 -0.1171 -0.0595 -0.1180
 2395DOPG   C4A50600  19.181  17.572  17.636 -0.0244 -0.1058  0.2106
 2395DOPG   C1B50601  20.783  17.951  18.144 -0.0094  0.2613 -0.0615
 2395DOPG   D2B50602  20.457  17.820  18.614 -0.0923 -0.1793 -0.1694
 2395DOPG   C3B50603  20.652  17.846  18.992 -0.1230 -0.0200 -0.1906
 2395DOPG   C4B50604  20.957  17.714  19.148 -0.1719  0.1826 -0.0194
 2396DOPG   GL050605  22.177  19.954  17.647 -0.1104 -0.1124  0.0706
 2396DOPG   PO450606  22.408  20.065  18.015 -0.1762 -0.0808 -0.1434
 2396DOPG   GL150607  22.080  20.224  18.352  0.1081 -0.1017  0.0352
 2396DOPG   GL250608  22.205  20.633  18.318  0.4068  0.0755 -0.0039
 2396DOPG   C1A50609  22.010  20.228  18.713 -0.1970  0.4767 -0.1970
 2396DOPG   D2A50610  21.805  20.093  19.014 -0.3084  0.2033  0.0346
 2396DOPG   C3A50611  22.006  19.713  19.250 -0.2588  0.2428  0.0618
 2396DOPG   C4A50612  22.315  19.625  19.424 -0.0387  0.0318  0.3595
 2396DOPG   C1B50613  21.878  20.729  18.587  0.4517 -0.2465 -0.2627
 2396DOPG   D2B50614  21.788  20.625  19.061 -0.0916  0.1470 -0.4695
 2396DOPG   C3B50615  21.653  21.029  19.391 -0.1426 -0.0607  0.4967
 2396DOPG   C4B50616  21.522  21.318  19.625 -0.1483  0.1680 -0.0095
 2397DOPG   GL050617  16.943  12.358  17.852 -0.3407  0.1119 -0.2710
 2397DOPG   PO450618  17.066  12.120  18.331 -0.0147 -0.1593  0.1087
 2397DOPG   GL150619  17.355  11.823  18.409 -0.2157 -0.0889 -0.4240
 2397DOPG   GL250620  17.487  11.753  18.146  0.1908  0.3342  0.2569
 2397DOPG   C1A50621  17.650  11.854  18.717 -0.1290 -0.0655 -0.1450
 2397DOPG   D2A50622  18.011  11.732  18.792  0.1579 -0.1716  0.1403
 2397DOPG   C3A50623  18.196  11.388  18.648 -0.0872 -0.2043  0.0688
 2397DOPG   C4A50624  18.124  11.006  18.597 -0.0738  0.1037  0.2416
 2397DOPG   C1B50625  17.858  11.519  18.247 -0.0816 -0.0406  0.0881
 2397DOPG   D2B50626  18.170  11.220  18.122 -0.0813 -0.0147  0.0944
 2397DOPG   C3B50627  18.064  11.116  17.662 -0.2387 -0.0051  0.1349
 2397DOPG   C4B50628  17.975  11.033  17.257  0.0640  0.1528 -0.1699
 2398DOPG   GL050629  19.183  14.826  19.208 -0.0843 -0.0474  0.2792
 2398DOPG   PO450630  19.490  15.069  19.417 -0.1194  0.2307  0.3020
 2398DOPG   GL150631  19.706  15.084  19.784  0.2713 -0.3549 -0.0845
 2398DOPG   GL250632  19.562  15.285  20.037  0.0702 -0.0326  0.0872
 2398DOPG   C1A50633  20.015  14.783  19.892  0.2553 -0.2289 -0.6424
 2398DOPG   D2A50634  20.380  14.775  20.182 -0.2436 -0.0300  0.1356
 2398DOPG   C3A50635  20.285  14.632  20.628 -0.2260 -0.0404 -0.1375
 2398DOPG   C4A50636  19.990  14.716  20.982 -0.1340 -0.1484  0.2753
 2398DOPG   C1B50637  19.688  14.783  20.293  0.0300 -0.0869 -0.1738
 2398DOPG   D2B50638  19.759  14.402  20.472 -0.3262 -0.0244  0.0776
 2398DOPG   C3B50639  19.728  13.977  20.337  0.1017  0.4205 -0.2796
 2398DOPG   C4B50640  19.817  13.638  20.415 -0.0641 -0.2519  0.2031
 2399DOPG   GL050641  14.498  20.159  18.057  0.1235 -0.1908 -0.1427
 2399DOPG   PO450642  14.626  19.760  17.864 -0.1328 -0.0458  0.1558
 2399DOPG   GL150643  14.377  19.428  17.997 -0.1583  0.1164  0.0473
 2399DOPG   GL250644  14.083  19.357  17.908  0.1160 -0.0075  0.1943
 2399DOPG   C1A50645  14.292  18.929  17.977  0.0211 -0.0509 -0.1253
 2399DOPG   D2A50646  14.625  18.544  18.063  0.0495 -0.0300 -0.3391
 2399DOPG   C3A50647  14.799  18.196  17.847  0.1363  0.0812  0.0943
 2399DOPG   C4A50648  14.865  17.808  17.568  0.3582  0.0479 -0.3221
 2399DOPG   C1B50649  14.053  19.012  17.539 -0.1781  0.0732  0.3513
 2399DOPG   D2B50650  14.182  18.589  17.484  0.3197  0.0480 -0.0465
 2399DOPG   C3B50651  13.929  18.288  17.371 -0.2223 -0.0793  0.0965
 2399DOPG   C4B50652  14.078  17.986  17.118 -0.4490  0.0180  0.1571
 2400DOPG   GL050653  12.264  14.122  20.064 -0.1559  0.0895 -0.2483
 2400DOPG   PO450654  12.068  14.376  20.435  0.0438 -0.0827  0.0310
 2400DOPG   GL150655  11.894  14.035  20.424 -0.1965  0.1629 -0.1094
 2400DOPG   GL250656  11.940  13.747  20.172  0.1356 -0.1069 -0.0021
 2400DOPG   C1A50657  11.398  13.843  20.530  0.4797  0.0361  0.1039
 2400DOPG   D2A50658  10.994  13.789  20.703 -0.0143  0.1922 -0.1532
 2400DOPG   C3A50659  10.494  13.568  20.727  0.0511  0.2032 -0.0037
 2400DOPG   C4A50660  10.133  13.328  20.910 -0.2034 -0.0092  0.0656
 2400DOPG   C1B50661  11.641  13.413  20.346 -0.0343 -0.2487 -0.3851
 2400DOPG   D2B50662  11.350  13.250  20.647  0.3304  0.0588 -0.2507
 2400DOPG   C3B50663  10.940  13.047  20.702  0.0737  0.0636  0.0815
 2400DOPG   C4B50664  10.535  13.033  20.880  0.2553 -0.0529  0.4965
 2401DOPG   GL050665  23.404  19.189  18.395  0.2066  0.1137 -0.4081
 2401DOPG   PO450666  23.440  18.914  18.795 -0.1123 -0.0963 -0.0505
 2401DOPG   GL150667  23.661  18.859  19.172 -0.3560  0.0433  0.0148
 2401DOPG   GL250668  23.502  19.061  19.403 -0.1506  0.4034  0.2554
 2401DOPG   C1A50669  23.816  18.826  19.719 -0.1651  0.0363  0.0131
 2401DOPG   D2A50670  23.995  18.652  20.115 -0.3446  0.0078 -0.0187
 2401DOPG   C3A50671  23.920  18.509  20.524 -0.0892  0.0756 -0.3435
 2401DOPG   C4A50672  23.560  18.659  20.689  0.0769 -0.1106  0.1330
 2401DOPG   C1B50673  23.634  19.388  19.525  0.2565  0.0821  0.0061
 2401DOPG   D2B50674  23.883  19.786  19.732 -0.1474  0.0722 -0.0532
 2401DOPG   C3B50675  24.296  19.782  19.913 -0.0183 -0.2382 -0.2275
 2401DOPG   C4B50676  24.571  19.551  20.153  0.2278 -0.2073 -0.1528
 2402DOPG   GL050677  16.128  11.844  18.849  0.2261  0.6338  0.2591
 2402DOPG   PO450678  15.706  11.665  18.763 -0.2415  0.3711 -0.2116
 2402DOPG   GL150679  15.443  11.803  18.907  0.4321  0.0395  0.1446
 2402DOPG   GL250680  15.073  11.616  18.886  0.2532 -0.3566 -0.0717
 2402DOPG   C1A50681  15.256  11.909  19.279  0.1218  0.0830 -0.0420
 2402DOPG   D2A50682  15.029  11.613  19.495 -0.0316  0.3040  0.1598
 2402DOPG   C3A50683  15.051  11.574  19.872  0.1521 -0.0338  0.2285
 2402DOPG   C4A50684  15.410  11.662  20.310 -0.0496  0.0167 -0.1054
 2402DOPG   C1B50685  15.329  11.298  19.086  0.0439 -0.2916  0.1362
 2402DOPG   D2B50686  15.574  11.357  19.410  0.1327  0.1170 -0.0764
 2402DOPG   C3B50687  15.385  11.244  19.811  0.2192  0.3078  0.1305
 2402DOPG   C4B50688  15.184  11.203  20.251 -0.0074 -0.0156  0.0125
 2403DOPG   GL050689  14.902  14.636  19.987 -0.0052 -0.0392 -0.1970
 2403DOPG   PO450690  15.142  14.821  20.171 -0.0233  0.0041 -0.1667
 2403DOPG   GL150691  15.294  14.434  20.463 -0.0012  0.2493  0.1017
 2403DOPG   GL250692  15.642  14.455  20.448 -0.0827 -0.1497 -0.0740
 2403DOPG   C1A50693  15.461  14.003  20.480  0.1152 -0.0737  0.0410
 2403DOPG   D2A50694  15.708  13.765  20.854 -0.1303  0.2479 -0.1625
 2403DOPG   C3A50695  15.632  13.836  21.335  0.1251  0.3115  0.1283
 2403DOPG   C4A50696  15.478  13.765  21.695  0.1446  0.1493  0.1457
 2403DOPG   C1B50697  15.782  14.645  20.025  0.0948 -0.0423 -0.0713
 2403DOPG   D2B50698  16.063  14.774  19.726  0.1710  0.1518 -0.1820
 2403DOPG   C3B50699  16.053  14.547  19.311  0.1105 -0.2238  0.2552
 2403DOPG   C4B50700  15.888  14.168  18.974 -0.3260 -0.0272  0.1060
 2404DOPG   GL050701  18.177  16.774  19.781 -0.2175  0.1031 -0.1284
 2404DOPG   PO450702  18.141  17.177  20.134 -0.2858  0.2625  0.2500
 2404DOPG   GL150703  18.157  17.523  20.395 -0.4975  0.2075 -0.1146
 2404DOPG   GL250704  17.833  17.406  20.420  0.0645 -0.0245  0.0124
 2404DOPG   C1A50705  18.239  17.916  20.548  0.1808  0.2382 -0.1581
 2404DOPG   D2A50706  18.171  18.442  20.517 -0.3042  0.1481 -0.5271
 2404DOPG   C3A50707  18.514  18.689  20.552 -0.1110  0.1363  0.0163
 2404DOPG   C4A50708  18.880  18.794  20.627  0.2312  0.1502 -0.1917
 2404DOPG   C1B50709  17.645  17.358  20.812 -0.2406 -0.0359 -0.1685
 2404DOPG   D2B50710  17.389  16.975  21.178  0.0206 -0.1488 -0.2474
 2404DOPG   C3B50711  17.691  16.750  21.354 -0.0466  0.3133 -0.0002
 2404DOPG   C4B50712  18.020  16.669  21.600 -0.0588  0.0100 -0.0254
 2405DOPG   GL050713  18.905  16.155  19.373 -0.0860 -0.1631 -0.1810
 2405DOPG   PO450714  19.145  16.389  19.730 -0.0033  0.1711  0.0586
 2405DOPG   GL150715  19.487  16.740  19.747  0.2026 -0.1302 -0.0028
 2405DOPG   GL250716  19.698  16.551  19.460 -0.1040  0.0913 -0.0673
 2405DOPG   C1A50717  19.587  17.141  20.038 -0.0407  0.1877  0.1894
 2405DOPG   D2A50718  19.609  17.192  20.429 -0.3680  0.3805 -0.0722
 2405DOPG   C3A50719  19.745  17.579  20.567 -0.0718  0.0382  0.1751
 2405DOPG   C4A50720  19.940  17.819  20.777 -0.0928  0.1318 -0.0235
 2405DOPG   C1B50721  19.686  16.889  19.180 -0.0324  0.1410  0.2791
 2405DOPG   D2B50722  19.886  17.161  19.080 -0.2895  0.2906 -0.3074
 2405DOPG   C3B50723  19.870  17.513  19.350 -0.0804 -0.4206  0.2555
 2405DOPG   C4B50724  19.847  17.934  19.550 -0.1105  0.1468 -0.3387
 2406DOPG   GL050725  18.080  16.185  19.815 -0.0295  0.0121 -0.1408
 2406DOPG   PO450726  17.756  15.950  19.595  0.0197  0.0785 -0.2272
 2406DOPG   GL150727  17.894  15.465  19.430  0.1131  0.0564 -0.1472
 2406DOPG   GL250728  17.804  15.259  19.714  0.2138  0.0646 -0.1256
 2406DOPG   C1A50729  17.725  15.210  19.245 -0.2268 -0.1228  0.2897
 2406DOPG   D2A50730  17.492  15.231  18.928 -0.2924 -0.3916 -0.2139
 2406DOPG   C3A50731  17.104  15.408  18.871 -0.0703  0.0482 -0.0353
 2406DOPG   C4A50732  17.035  15.672  19.190  0.1702 -0.2251 -0.3548
 2406DOPG   C1B50733  17.665  15.019  20.088 -0.1311 -0.2780  0.0859
 2406DOPG   D2B50734  17.873  14.960  20.400  0.2405  0.3239 -0.2791
 2406DOPG   C3B50735  17.955  14.485  20.528 -0.1411  0.3304  0.1774
 2406DOPG   C4B50736  18.195  14.230  20.603 -0.0989  0.2866  0.0222
 2407DOPG   GL050737  14.411  15.659  20.392  0.0314  0.0442  0.0079
 2407DOPG   PO450738  13.992  15.580  20.448 -0.2748  0.0474 -0.0258
 2407DOPG   GL150739  14.068  15.739  20.825  0.0771 -0.0843  0.2992
 2407DOPG   GL250740  14.312  15.939  20.956 -0.3242  0.1077 -0.2049
 2407DOPG   C1A50741  13.825  15.670  21.212  0.0957 -0.1172  0.0600
 2407DOPG   D2A50742  13.616  15.605  21.500 -0.1970  0.2556  0.1200
 2407DOPG   C3A50743  13.280  15.396  21.646 -0.1716 -0.0699  0.0028
 2407DOPG   C4A50744  12.901  15.568  21.897  0.0150  0.0801  0.2200
 2407DOPG   C1B50745  14.177  15.862  21.455  0.0606 -0.1940  0.2242
 2407DOPG   D2B50746  14.231  15.639  21.806  0.0470 -0.0434  0.3188
 2407DOPG   C3B50747  14.319  15.220  21.920  0.0307  0.1575  0.0087
 2407DOPG   C4B50748  14.322  14.797  21.657 -0.0669 -0.1640  0.1900
 2408DOPG   GL050749  10.182  11.718  18.447 -0.2448 -0.1858 -0.0294
 2408DOPG   PO450750  10.008  11.928  18.755  0.1681 -0.1624 -0.2428
 2408DOPG   GL150751   9.964  12.079  19.198  0.2470  0.0272  0.0737
 2408DOPG   GL250752  10.210  11.981  19.461 -0.2602  0.0595 -0.2464
 2408DOPG   C1A50753   9.730  12.359  19.529  0.1106 -0.1837 -0.0879
 2408DOPG   D2A50754   9.480  12.311  19.780 -0.1985  0.2546  0.2905
 2408DOPG   C3A50755   9.037  12.392  20.056  0.0320 -0.1048  0.2596
 2408DOPG   C4A50756   8.651  12.330  20.315 -0.1685 -0.1356  0.0821
 2408DOPG   C1B50757  10.047  12.078  19.873 -0.1320  0.1677 -0.1245
 2408DOPG   D2B50758   9.894  12.107  20.277  0.0338  0.1699  0.1599
 2408DOPG   C3B50759  10.184  12.444  20.431 -0.0319  0.1266  0.1165
 2408DOPG   C4B50760  10.615  12.540  20.681  0.0169  0.1430 -0.0427
 2409DOPG   GL050761  11.493  21.298  17.834  0.3877 -0.1023  0.1466
 2409DOPG   PO450762  11.520  21.694  17.783 -0.2534 -0.1044 -0.2319
 2409DOPG   GL150763  11.440  21.906  18.169 -0.1406  0.0351 -0.5301
 2409DOPG   GL250764  11.128  21.836  18.110 -0.3651 -0.1011  0.0338
 2409DOPG   C1A50765  11.598  22.299  18.274 -0.0939 -0.0354 -0.2277
 2409DOPG   D2A50766  11.812  22.400  18.620 -0.1517 -0.0537 -0.3188
 2409DOPG   C3A50767  12.229  22.442  18.682 -0.1139  0.0267  0.4190
 2409DOPG   C4A50768  12.601  22.542  18.911  0.1338 -0.1155 -0.0603
 2409DOPG   C1B50769  11.173  22.124  18.475  0.2121 -0.0276  0.0557
 2409DOPG   D2B50770  11.007  22.514  18.626  0.3207  0.1924  0.3483
 2409DOPG   C3B50771  11.139  22.637  19.090  0.2447  0.0346  0.0707
 2409DOPG   C4B50772  11.285  22.940  19.476  0.0878  0.0600  0.0586
 2410DOPG   GL050773  18.400  15.042  19.835 -0.1521 -0.1115 -0.1397
 2410DOPG   PO450774  18.548  15.360  20.147  0.1776  0.1827  0.1702
 2410DOPG   GL150775  18.676  15.517  20.554  0.3439 -0.0332 -0.4331
 2410DOPG   GL250776  18.732  15.877  20.639  0.1048  0.0869  0.1315
 2410DOPG   C1A50777  18.980  15.360  20.926 -0.1092  0.0011 -0.1972
 2410DOPG   D2A50778  19.132  15.367  21.269  0.0941  0.2774 -0.2214
 2410DOPG   C3A50779  19.391  15.172  21.730  0.1162 -0.2090  0.0216
 2410DOPG   C4A50780  19.661  14.784  21.811 -0.2883 -0.0350  0.0396
 2410DOPG   C1B50781  18.900  15.848  20.981  0.3551  0.0492 -0.2143
 2410DOPG   D2B50782  19.302  15.950  21.155  0.3333  0.0469 -0.1913
 2410DOPG   C3B50783  19.314  15.998  21.571 -0.0565 -0.2679  0.0385
 2410DOPG   C4B50784  19.169  16.281  21.873  0.1949 -0.0208  0.1452
 2411DOPG   GL050785   6.248  20.158  16.571 -0.0660 -0.1914 -0.1330
 2411DOPG   PO450786   6.421  20.007  16.889 -0.0068 -0.0394  0.3251
 2411DOPG   GL150787   6.489  19.680  17.301 -0.2108 -0.1886  0.1932
 2411DOPG   GL250788   6.648  19.850  17.695 -0.1053  0.0186  0.1029
 2411DOPG   C1A50789   6.449  19.345  17.545  0.0094  0.0998 -0.2097
 2411DOPG   D2A50790   6.349  19.351  17.985 -0.0783  0.1936 -0.1243
 2411DOPG   C3A50791   5.943  19.171  18.071 -0.1210  0.1478  0.2799
 2411DOPG   C4A50792   5.821  18.779  17.863 -0.0179 -0.2623 -0.0973
 2411DOPG   C1B50793   6.989  19.776  17.856 -0.0658 -0.2708  0.0181
 2411DOPG   D2B50794   7.415  19.782  18.185  0.1614  0.1291  0.4015
 2411DOPG   C3B50795   7.397  19.773  18.646  0.2960  0.0713  0.4202
 2411DOPG   C4B50796   7.245  19.990  18.880 -0.1713  0.0703 -0.2652
 2412DOPG   GL050797  19.978  14.971  19.306 -0.2101  0.3371 -0.0686
 2412DOPG   PO450798  20.066  15.290  19.480 -0.2117 -0.2053 -0.1750
 2412DOPG   GL150799  20.298  15.301  19.895 -0.3771 -0.0441 -0.0100
 2412DOPG   GL250800  20.077  15.212  20.139 -0.1371 -0.3898 -0.1624
 2412DOPG   C1A50801  20.570  15.335  20.271  0.0365  0.0139 -0.4611
 2412DOPG   D2A50802  20.472  15.101  20.577  0.2568  0.0318  0.3511
 2412DOPG   C3A50803  20.574  14.930  20.981 -0.1303 -0.0317  0.0928
 2412DOPG   C4A50804  20.574  15.017  21.369  0.0929  0.0689 -0.0504
 2412DOPG   C1B50805  19.935  15.037  20.583 -0.2162 -0.0467 -0.0150
 2412DOPG   D2B50806  19.515  14.713  20.772  0.0936  0.0525 -0.0397
 2412DOPG   C3B50807  19.363  14.231  20.797 -0.0906 -0.2153  0.4477
 2412DOPG   C4B50808  19.461  13.835  20.780 -0.0795 -0.1514 -0.2285
 2413DOPG   GL050809  10.727  15.961  19.054 -0.1291 -0.3057 -0.0608
 2413DOPG   PO450810  10.395  16.077  18.891 -0.0630 -0.0192  0.2054
 2413DOPG   GL150811  10.366  16.114  19.403 -0.0592 -0.0582 -0.2910
 2413DOPG   GL250812  10.727  16.219  19.565  0.0587 -0.0630 -0.0363
 2413DOPG   C1A50813  10.265  16.378  19.762  0.3653 -0.1429  0.2756
 2413DOPG   D2A50814   9.976  16.370  19.995  0.0403  0.1351 -0.0098
 2413DOPG   C3A50815   9.954  16.671  20.273 -0.2166 -0.0587  0.1515
 2413DOPG   C4A50816   9.689  16.798  20.581  0.2274  0.0501  0.0877
 2413DOPG   C1B50817  10.672  16.303  19.976 -0.1905 -0.1294 -0.1076
 2413DOPG   D2B50818  10.410  16.513  20.245 -0.0634 -0.2196  0.0278
 2413DOPG   C3B50819  10.331  16.831  20.537 -0.1141  0.1875 -0.3032
 2413DOPG   C4B50820  10.161  17.058  20.858  0.0776  0.4189  0.1496
 2414DOPG   GL050821   5.697  23.451  20.349 -0.1920  0.4182  0.3119
 2414DOPG   PO450822   5.978  22.985  20.206  0.1227 -0.0838  0.2454
 2414DOPG   GL150823   6.213  22.686  19.983 -0.4224  0.3870 -0.6381
 2414DOPG   GL250824   6.061  22.477  20.109  0.2419  0.2732  0.3915
 2414DOPG   C1A50825   6.570  22.588  19.707 -0.2530 -0.0687  0.1940
 2414DOPG   D2A50826   6.650  22.542  19.221  0.3137 -0.0051  0.5209
 2414DOPG   C3A50827   6.568  22.206  18.984  0.0288 -0.0420 -0.0624
 2414DOPG   C4A50828   6.878  21.846  18.889  0.1966 -0.3321  0.4119
 2414DOPG   C1B50829   6.501  22.205  20.015 -0.1852 -0.0172 -0.1440
 2414DOPG   D2B50830   6.564  21.947  19.655  0.3909  0.0009 -0.3305
 2414DOPG   C3B50831   6.871  22.099  19.391  0.2096 -0.3436  0.4086
 2414DOPG   C4B50832   7.277  22.145  19.363  0.1607 -0.1077  0.3171
 2415DOPG   GL050833  16.971  13.050  17.067  0.3735 -0.0065 -0.1421
 2415DOPG   PO450834  16.691  13.364  17.017  0.2156 -0.0205 -0.3934
 2415DOPG   GL150835  16.462  13.516  17.254  0.2084 -0.1498 -0.0055
 2415DOPG   GL250836  16.607  13.569  17.646 -0.0760 -0.4362  0.1921
 2415DOPG   C1A50837  16.267  13.933  17.338  0.0430  0.0767  0.0381
 2415DOPG   D2A50838  15.893  14.223  17.518  0.0718  0.0163 -0.1246
 2415DOPG   C3A50839  15.980  14.601  17.486 -0.2274 -0.0741 -0.0542
 2415DOPG   C4A50840  15.822  14.849  17.311 -0.0498 -0.3113  0.0359
 2415DOPG   C1B50841  16.567  13.848  17.868 -0.2175  0.1676  0.2093
 2415DOPG   D2B50842  16.846  14.027  18.160 -0.0382  0.2971  0.2978
 2415DOPG   C3B50843  16.771  14.314  18.390  0.1080  0.0754 -0.0060
 2415DOPG   C4B50844  16.724  14.508  18.791 -0.1965  0.2894  0.1239
 2416DOPG   GL050845  18.332  19.768  18.070  0.2389  0.0312 -0.2682
 2416DOPG   PO450846  18.586  19.907  18.329  0.0728  0.0432  0.1141
 2416DOPG   GL150847  18.603  20.042  18.806 -0.0897 -0.2959 -0.0085
 2416DOPG   GL250848  18.867  19.895  18.853  0.1487 -0.3475  0.1588
 2416DOPG   C1A50849  18.663  20.226  19.221 -0.1111 -0.0651 -0.0626
 2416DOPG   D2A50850  18.898  20.398  19.547 -0.2475 -0.1490 -0.3037
 2416DOPG   C3A50851  19.307  20.458  19.680  0.0493  0.5389 -0.0918
 2416DOPG   C4A50852  19.626  20.711  19.457 -0.0187 -0.1986 -0.2049
 2416DOPG   C1B50853  19.161  20.193  18.838  0.0184  0.2022 -0.0368
 2416DOPG   D2B50854  19.266  20.537  19.170  0.0592 -0.3151 -0.0313
 2416DOPG   C3B50855  19.298  20.896  19.034  0.2229 -0.1369  0.0000
 2416DOPG   C4B50856  18.927  21.192  18.879 -0.0106  0.0492  0.1408
 2417DOPG   GL050857  13.107  21.248  17.955  0.2806 -0.3568 -0.0455
 2417DOPG   PO450858  12.842  21.498  17.881 -0.4274  0.2438 -0.0871
 2417DOPG   GL150859  12.874  21.713  18.266  0.1552  0.0739 -0.0385
 2417DOPG   GL250860  12.916  22.006  18.097 -0.1192  0.4832  0.0062
 2417DOPG   C1A50861  13.005  21.916  18.627 -0.5216 -0.0948  0.0928
 2417DOPG   D2A50862  13.034  22.317  18.782 -0.0892  0.2158 -0.1684
 2417DOPG   C3A50863  12.803  22.205  19.250  0.0533  0.1577 -0.1328
 2417DOPG   C4A50864  12.673  22.498  19.578  0.1021 -0.1518 -0.3050
 2417DOPG   C1B50865  13.045  22.444  18.236  0.2366  0.1575 -0.0227
 2417DOPG   D2B50866  13.252  22.823  18.370  0.0879  0.0180 -0.2090
 2417DOPG   C3B50867  13.222  23.049  18.708 -0.0076 -0.2401 -0.0635
 2417DOPG   C4B50868  13.156  23.247  19.061  0.2024 -0.0424  0.1485
 2418DOPG   GL050869   9.678  17.262  18.377 -0.0128 -0.4747  0.1550
 2418DOPG   PO450870   9.951  17.528  18.138 -0.0197 -0.1783  0.0758
 2418DOPG   GL150871  10.331  17.391  18.243 -0.0677 -0.1888 -0.3214
 2418DOPG   GL250872  10.652  17.098  18.182  0.0044 -0.0707  0.0158
 2418DOPG   C1A50873  10.739  17.631  18.412 -0.0614 -0.0139 -0.1168
 2418DOPG   D2A50874  10.987  18.031  18.359  0.2636  0.1721  0.2155
 2418DOPG   C3A50875  11.349  18.278  18.573  0.3277  0.2901  0.3066
 2418DOPG   C4A50876  11.829  18.188  18.636 -0.1915  0.0805 -0.0982
 2418DOPG   C1B50877  10.826  17.004  18.582 -0.2237 -0.0341 -0.2150
 2418DOPG   D2B50878  11.249  16.948  18.894 -0.0988  0.3919 -0.0759
 2418DOPG   C3B50879  11.580  16.793  19.049 -0.0247  0.1230 -0.3004
 2418DOPG   C4B50880  11.910  16.716  18.711  0.0571  0.0213 -0.2001
 2419DOPG   GL050881  15.052  11.198  18.186  0.0492  0.2124 -0.1113
 2419DOPG   PO450882  14.901  10.864  18.012 -0.1204 -0.1877  0.2005
 2419DOPG   GL150883  15.159  10.553  18.151 -0.0558 -0.0269 -0.0316
 2419DOPG   GL250884  15.437  10.705  18.289 -0.3687  0.3854  0.0806
 2419DOPG   C1A50885  15.341  10.143  18.061  0.1608  0.1611 -0.2681
 2419DOPG   D2A50886  15.655   9.959  17.995  0.0078  0.0548  0.2063
 2419DOPG   C3A50887  16.141  10.038  18.082  0.3516  0.0194 -0.0274
 2419DOPG   C4A50888  16.420  10.205  17.955  0.4294 -0.0583  0.1335
 2419DOPG   C1B50889  15.221  10.345  18.588  0.2403  0.0381 -0.1984
 2419DOPG   D2B50890  15.036  10.023  18.511 -0.0059  0.5276  0.0697
 2419DOPG   C3B50891  14.565   9.888  18.568 -0.0366  0.3016  0.0643
 2419DOPG   C4B50892  14.213   9.546  18.697 -0.2153 -0.1286 -0.0906
 2420DOPG   GL050893  12.117  10.421  19.173  0.1137 -0.0894  0.1086
 2420DOPG   PO450894  11.828  10.538  19.534  0.3249  0.0023  0.0855
 2420DOPG   GL150895  11.655  10.229  19.742 -0.0070  0.1698  0.1243
 2420DOPG   GL250896  11.324  10.306  19.870  0.2654  0.1389  0.0637
 2420DOPG   C1A50897  11.888   9.985  19.988  0.2834 -0.1302  0.1270
 2420DOPG   D2A50898  11.862   9.831  20.400 -0.0957  0.0922 -0.1700
 2420DOPG   C3A50899  11.573   9.722  20.607 -0.0179 -0.0610 -0.1248
 2420DOPG   C4A50900  11.352   9.751  20.985  0.2644  0.0868 -0.0572
 2420DOPG   C1B50901  11.424   9.978  20.143 -0.3007  0.0028  0.0971
 2420DOPG   D2B50902  11.348   9.482  20.198 -0.0371 -0.1052  0.1615
 2420DOPG   C3B50903  11.104   9.468  20.596 -0.1712 -0.1552  0.5349
 2420DOPG   C4B50904  10.782   9.601  20.827  0.0382 -0.2412  0.1310
 2421DOPG   GL050905  16.582  20.882  16.848 -0.1805 -0.1367  0.0489
 2421DOPG   PO450906  16.934  20.888  17.088  0.0385  0.1640 -0.1116
 2421DOPG   GL150907  16.825  21.303  16.975  0.0934  0.0086  0.0357
 2421DOPG   GL250908  16.730  21.531  17.242 -0.0920 -0.2651  0.1211
 2421DOPG   C1A50909  16.850  21.701  16.753 -0.2220  0.2570  0.0826
 2421DOPG   D2A50910  16.925  22.137  16.721  0.4499 -0.1044 -0.0173
 2421DOPG   C3A50911  17.305  22.382  16.515 -0.3165  0.0558  0.0576
 2421DOPG   C4A50912  17.743  22.347  16.547 -0.0385  0.0545 -0.0777
 2421DOPG   C1B50913  16.665  21.927  17.260  0.2071 -0.0086  0.1882
 2421DOPG   D2B50914  16.379  22.272  17.027  0.0966 -0.1123  0.1020
 2421DOPG   C3B50915  16.412  22.637  16.849  0.1866 -0.1998  0.0397
 2421DOPG   C4B50916  16.158  22.970  16.579 -0.1886 -0.0697 -0.5160
 2422DOPG   GL050917  16.482  18.167  19.682 -0.0269  0.3745 -0.0625
 2422DOPG   PO450918  16.053  18.291  19.584 -0.1373 -0.1438 -0.0224
 2422DOPG   GL150919  16.258  18.430  20.021  0.0474 -0.3351 -0.3226
 2422DOPG   GL250920  16.274  18.692  20.107 -0.1223  0.0363  0.0988
 2422DOPG   C1A50921  16.066  18.497  20.482 -0.0545  0.0391  0.1709
 2422DOPG   D2A50922  15.936  18.439  20.855  0.3671 -0.2410  0.2178
 2422DOPG   C3A50923  16.179  18.335  21.236  0.0193 -0.1376  0.0736
 2422DOPG   C4A50924  16.096  18.493  21.680 -0.0306  0.0561 -0.1736
 2422DOPG   C1B50925  16.097  18.948  20.390  0.2605 -0.1336  0.2069
 2422DOPG   D2B50926  15.844  19.004  20.815 -0.2946  0.5003  0.1227
 2422DOPG   C3B50927  15.600  18.736  21.093 -0.3441 -0.4444  0.1384
 2422DOPG   C4B50928  15.215  18.657  21.305  0.0401 -0.2435 -0.0037
 2423DOPG   GL050929   9.313  13.113  17.475  0.3071  0.0211  0.1599
 2423DOPG   PO450930   9.489  13.080  17.842 -0.1999  0.2632  0.2254
 2423DOPG   GL150931   9.884  13.206  17.963  0.0333 -0.1228  0.4503
 2423DOPG   GL250932  10.096  13.503  18.195 -0.0242 -0.0737 -0.2945
 2423DOPG   C1A50933  10.399  13.220  18.021 -0.0622 -0.0111  0.0918
 2423DOPG   D2A50934  10.752  13.031  18.168 -0.0522 -0.1467 -0.0038
 2423DOPG   C3A50935  11.024  12.950  18.436 -0.0718  0.0558 -0.1734
 2423DOPG   C4A50936  11.281  12.882  18.794  0.0424 -0.0514  0.3817
 2423DOPG   C1B50937  10.006  13.255  18.536 -0.1658  0.1345 -0.1616
 2423DOPG   D2B50938   9.978  12.924  18.849  0.0270 -0.0669 -0.1463
 2423DOPG   C3B50939   9.548  13.062  19.144  0.1275 -0.1922  0.1702
 2423DOPG   C4B50940   9.186  13.168  19.400  0.0869  0.0279 -0.1405
 2424DOPG   GL050941  11.420  10.943  19.256 -0.0054 -0.0754  0.0083
 2424DOPG   PO450942  11.297  10.640  19.504 -0.3541 -0.0067  0.0460
 2424DOPG   GL150943  10.929  10.616  19.712  0.0657 -0.2506  0.0076
 2424DOPG   GL250944  10.950  10.812  20.032 -0.0551  0.0696 -0.0480
 2424DOPG   C1A50945  10.635  10.375  20.033 -0.1483  0.0556 -0.3600
 2424DOPG   D2A50946  10.519  10.209  20.389  0.2242 -0.0339 -0.0622
 2424DOPG   C3A50947  10.202  10.486  20.460  0.2630  0.0908  0.0181
 2424DOPG   C4A50948   9.840  10.382  20.662  0.0463  0.1534  0.0212
 2424DOPG   C1B50949  11.374  10.718  20.227  0.0491  0.0492  0.0883
 2424DOPG   D2B50950  11.718  10.370  20.224  0.0666 -0.2667  0.2477
 2424DOPG   C3B50951  12.150  10.317  20.299 -0.1327  0.2462 -0.0112
 2424DOPG   C4B50952  12.554  10.378  20.336  0.5043 -0.1363  0.4761
 2425DOPG   GL050953   7.087  20.281  17.609  0.0369  0.2338  0.3815
 2425DOPG   PO450954   7.514  20.272  17.584  0.1709 -0.0193  0.0551
 2425DOPG   GL150955   7.384  20.284  18.076  0.2265 -0.0262 -0.1145
 2425DOPG   GL250956   7.003  20.354  18.080  0.3157  0.0006  0.2373
 2425DOPG   C1A50957   7.610  20.274  18.455 -0.0226 -0.0894 -0.0334
 2425DOPG   D2A50958   7.897  20.353  18.841  0.3437 -0.2659 -0.0970
 2425DOPG   C3A50959   8.065  20.384  19.278  0.1963  0.2562  0.1893
 2425DOPG   C4A50960   8.462  20.571  19.511  0.2630 -0.0358  0.1833
 2425DOPG   C1B50961   7.015  20.075  18.440 -0.2214 -0.1795 -0.2131
 2425DOPG   D2B50962   6.761  19.803  18.802  0.1133  0.3340  0.1868
 2425DOPG   C3B50963   6.591  19.486  19.058  0.1073 -0.0596  0.0858
 2425DOPG   C4B50964   6.599  19.447  19.512 -0.2155  0.3017  0.1748
 2426DOPG   GL050965  20.140  19.996  17.373  0.0137 -0.1934 -0.1895
 2426DOPG   PO450966  20.194  20.436  17.187 -0.0681  0.1210 -0.1099
 2426DOPG   GL150967  20.221  20.925  17.183  0.3176  0.2701  0.1221
 2426DOPG   GL250968  20.157  21.162  17.485  0.1629 -0.0882 -0.1382
 2426DOPG   C1A50969  20.158  21.278  16.939 -0.1667  0.2338  0.0975
 2426DOPG   D2A50970  19.836  21.530  16.823  0.0288 -0.0081  0.2610
 2426DOPG   C3A50971  19.863  21.922  16.908 -0.0732  0.2708  0.0066
 2426DOPG   C4A50972  20.172  22.231  16.763 -0.1650 -0.3396 -0.0280
 2426DOPG   C1B50973  20.130  21.443  17.814 -0.2024 -0.2182 -0.0994
 2426DOPG   D2B50974  20.432  21.556  18.062  0.1254 -0.0082  0.0289
 2426DOPG   C3B50975  20.927  21.658  17.948  0.1503  0.1924  0.0797
 2426DOPG   C4B50976  21.241  22.061  18.017 -0.0485  0.1070  0.3200
 2427DOPG   GL050977  14.241  16.698  20.515 -0.0262  0.2429  0.0496
 2427DOPG   PO450978  13.835  16.529  20.462 -0.3618  0.1071  0.2120
 2427DOPG   GL150979  13.594  16.745  20.813 -0.0248 -0.1733  0.1595
 2427DOPG   GL250980  13.495  16.579  21.089  0.1020 -0.1931 -0.1271
 2427DOPG   C1A50981  13.481  17.184  21.001 -0.0242  0.1956 -0.3082
 2427DOPG   D2A50982  13.395  17.374  21.371 -0.1430  0.0236  0.0054
 2427DOPG   C3A50983  12.983  17.243  21.608 -0.0113 -0.1183 -0.0905
 2427DOPG   C4A50984  12.962  17.095  21.933 -0.0418 -0.1836  0.1370
 2427DOPG   C1B50985  13.334  16.856  21.381 -0.0702  0.0819 -0.1361
 2427DOPG   D2B50986  13.436  16.921  21.774  0.0193 -0.1047 -0.1198
 2427DOPG   C3B50987  13.283  16.723  22.212 -0.0797 -0.5073 -0.1040
 2427DOPG   C4B50988  12.977  16.502  22.370  0.2143 -0.0885 -0.0831
 2428DOPG   GL050989  13.027  15.088  21.048  0.2888 -0.1960  0.2633
 2428DOPG   PO450990  12.885  15.374  20.649 -0.1487  0.1141 -0.1419
 2428DOPG   GL150991  12.663  15.590  20.951 -0.2326  0.0875  0.0257
 2428DOPG   GL250992  12.285  15.583  21.022 -0.0390  0.0968 -0.0137
 2428DOPG   C1A50993  12.586  15.971  21.200  0.0572 -0.0941  0.2565
 2428DOPG   D2A50994  12.803  16.054  21.553 -0.1936 -0.2837  0.0898
 2428DOPG   C3A50995  13.227  15.887  21.643 -0.2288  0.2114 -0.1606
 2428DOPG   C4A50996  13.531  15.728  21.970  0.2155  0.2665  0.2552
 2428DOPG   C1B50997  12.478  15.275  21.263  0.0681  0.1441  0.1355
 2428DOPG   D2B50998  12.624  14.819  21.294 -0.0224 -0.0089 -0.2527
 2428DOPG   C3B50999  13.040  14.716  21.389  0.3448 -0.1712 -0.0384
 2428DOPG   C4B51000  13.311  14.940  21.426 -0.0328 -0.0761 -0.0181
 2429DOPG   GL051001  23.490  17.776  18.184 -0.1873 -0.1737 -0.4309
 2429DOPG   PO451002  23.698  17.593  18.498 -0.1576  0.4143  0.2075
 2429DOPG   GL151003  23.911  17.548  18.821 -0.1263  0.4883 -0.0483
 2429DOPG   GL251004  24.288  17.571  18.819 -0.1875 -0.2889  0.2118
 2429DOPG   C1A51005  23.995  17.147  19.109  0.0376 -0.2976 -0.0972
 2429DOPG   D2A51006  24.145  16.871  19.471 -0.1166  0.0367  0.3073
 2429DOPG   C3A51007  24.498  16.808  19.725  0.0377 -0.1436 -0.0949
 2429DOPG   C4A51008  24.883  16.944  19.970  0.1881 -0.1717 -0.0488
 2429DOPG   C1B51009  24.446  17.587  19.269  0.1384  0.3050  0.3390
 2429DOPG   D2B51010  24.180  17.430  19.549 -0.1420 -0.1893  0.2545
 2429DOPG   C3B51011  23.741  17.598  19.317  0.3534  0.3465  0.2224
 2429DOPG   C4B51012  23.266  17.414  19.309  0.2618  0.2745  0.0149
 2430DOPG   GL051013  17.818  17.802  19.299  0.2381  0.0291 -0.2131
 2430DOPG   PO451014  18.134  17.721  19.540 -0.2609 -0.1618 -0.0580
 2430DOPG   GL151015  18.432  17.697  19.954 -0.2019  0.4172 -0.0857
 2430DOPG   GL251016  18.730  17.577  20.063  0.0374  0.0669 -0.1734
 2430DOPG   C1A51017  18.599  18.039  20.118 -0.3796 -0.1869  0.0328
 2430DOPG   D2A51018  18.776  18.283  20.474  0.1883  0.1259 -0.0049
 2430DOPG   C3A51019  18.543  18.248  20.845  0.0666 -0.2658 -0.3530
 2430DOPG   C4A51020  18.217  18.660  20.916  0.1176  0.1738 -0.1865
 2430DOPG   C1B51021  18.686  17.702  20.466 -0.3324 -0.0835 -0.1153
 2430DOPG   D2B51022  18.991  17.970  20.747 -0.0798 -0.2560  0.0849
 2430DOPG   C3B51023  19.406  18.003  20.536  0.1534  0.0140  0.0962
 2430DOPG   C4B51024  19.598  18.303  20.716 -0.0640 -0.3465  0.0545
 2431DOPG   GL051025  15.754  19.988  19.511 -0.1923 -0.0194 -0.2307
 2431DOPG   PO451026  15.376  20.142  19.277  0.0397  0.2792 -0.4496
 2431DOPG   GL151027  15.525  20.473  19.464 -0.0803 -0.0141  0.0083
 2431DOPG   GL251028  15.811  20.642  19.348  0.4593 -0.0127  0.2543
 2431DOPG   C1A51029  15.523  21.015  19.386  0.0125 -0.1186 -0.0295
 2431DOPG   D2A51030  15.288  21.417  19.356  0.0135 -0.0568  0.0183
 2431DOPG   C3A51031  15.349  21.803  19.799 -0.4410  0.1431 -0.0620
 2431DOPG   C4A51032  15.555  22.284  19.909  0.0119 -0.2195 -0.1758
 2431DOPG   C1B51033  16.136  20.946  19.289  0.3838  0.0924  0.1299
 2431DOPG   D2B51034  15.972  21.271  19.140  0.1537 -0.2260 -0.1053
 2431DOPG   C3B51035  15.897  21.649  19.460 -0.3573  0.3433  0.0747
 2431DOPG   C4B51036  15.731  22.007  19.418 -0.3985  0.0302  0.0848
 2432DOPG   GL051037  13.902  17.334  19.823 -0.0870 -0.1131  0.1459
 2432DOPG   PO451038  13.625  17.574  20.178 -0.1855 -0.2780  0.2607
 2432DOPG   GL151039  13.353  17.918  20.392  0.0846 -0.0432  0.1086
 2432DOPG   GL251040  13.035  17.831  20.354 -0.2730  0.1696 -0.0758
 2432DOPG   C1A51041  13.290  17.988  20.859  0.1632  0.2501  0.1847
 2432DOPG   D2A51042  12.967  18.274  21.081  0.0604 -0.3719 -0.1851
 2432DOPG   C3A51043  13.120  18.239  21.528 -0.3501  0.0587  0.1299
 2432DOPG   C4A51044  13.451  18.554  21.784  0.3599  0.1185  0.0380
 2432DOPG   C1B51045  12.686  17.742  20.638  0.3193  0.2020  0.1514
 2432DOPG   D2B51046  12.454  17.811  21.095  0.1761  0.0123 -0.1659
 2432DOPG   C3B51047  12.480  18.219  21.125 -0.0802 -0.4190 -0.2666
 2432DOPG   C4B51048  12.512  18.729  21.234  0.1212  0.4364 -0.0763
 2433DOPG   GL051049  10.010  11.564  18.008 -0.0424  0.1853  0.1820
 2433DOPG   PO451050   9.727  11.276  17.894  0.0854 -0.0716 -0.1784
 2433DOPG   GL151051   9.592  11.176  18.289 -0.3324  0.0673  0.1249
 2433DOPG   GL251052   9.920  11.117  18.381 -0.3036 -0.2785  0.1831
 2433DOPG   C1A51053   9.216  11.054  18.532 -0.0192  0.1108 -0.1654
 2433DOPG   D2A51054   8.931  10.911  18.822 -0.0557  0.0124  0.1653
 2433DOPG   C3A51055   8.495  11.174  18.956  0.0246  0.3610 -0.0098
 2433DOPG   C4A51056   8.151  10.713  19.130 -0.2130  0.1418 -0.0942
 2433DOPG   C1B51057   9.715  10.819  18.690  0.0811 -0.2771 -0.0764
 2433DOPG   D2B51058   9.414  10.552  18.738 -0.0901  0.0937  0.1618
 2433DOPG   C3B51059   8.979  10.537  18.517 -0.2875 -0.1483  0.1177
 2433DOPG   C4B51060   8.655  10.359  18.307  0.0183  0.3558  0.3548
 2434DOPG   GL051061  21.323  16.292  18.023 -0.1972 -0.0583 -0.1560
 2434DOPG   PO451062  21.093  16.266  18.394  0.1573 -0.0389  0.0907
 2434DOPG   GL151063  20.814  16.502  18.692  0.0969 -0.0279 -0.2544
 2434DOPG   GL251064  20.953  16.524  19.053  0.3514 -0.4163 -0.2576
 2434DOPG   C1A51065  20.583  16.878  18.672 -0.0756 -0.3798 -0.3930
 2434DOPG   D2A51066  20.122  17.047  18.664 -0.1272  0.2682  0.3307
 2434DOPG   C3A51067  20.094  17.397  18.443 -0.1103 -0.2147 -0.0726
 2434DOPG   C4A51068  19.909  17.733  18.279 -0.0827  0.2260 -0.1969
 2434DOPG   C1B51069  20.600  16.816  19.196 -0.3007  0.1766  0.2265
 2434DOPG   D2B51070  20.245  16.642  19.167 -0.2393 -0.0483 -0.0141
 2434DOPG   C3B51071  20.229  16.644  19.683  0.2829  0.3634  0.2357
 2434DOPG   C4B51072  19.976  16.701  19.963 -0.2676 -0.1693  0.3305
 2435DOPG   GL051073  23.119  19.375  17.998  0.1682  0.1705  0.1954
 2435DOPG   PO451074  23.012  19.484  18.383  0.0338 -0.0244 -0.1688
 2435DOPG   GL151075  22.892  19.809  18.666  0.0113  0.0246 -0.0468
 2435DOPG   GL251076  22.551  20.036  18.531 -0.2088 -0.1755 -0.1318
 2435DOPG   C1A51077  22.852  20.062  18.959  0.3010 -0.3133 -0.0204
 2435DOPG   D2A51078  22.769  20.400  19.116 -0.0128 -0.0535  0.1560
 2435DOPG   C3A51079  22.800  20.815  18.777  0.0876 -0.0832  0.1040
 2435DOPG   C4A51080  22.680  21.206  18.940  0.0449 -0.1325  0.0925
 2435DOPG   C1B51081  22.522  20.463  18.706  0.1483 -0.0811  0.1017
 2435DOPG   D2B51082  22.302  20.538  19.008  0.1799 -0.2126  0.5530
 2435DOPG   C3B51083  22.578  20.833  19.250  0.0341 -0.1785 -0.0623
 2435DOPG   C4B51084  22.774  21.223  19.508 -0.0499 -0.4791  0.1000
 2436DOPG   GL051085  17.393  19.648  19.173  0.0316  0.2251 -0.1709
 2436DOPG   PO451086  17.513  19.578  19.638  0.0745  0.1377  0.0173
 2436DOPG   GL151087  17.833  19.478  20.025 -0.1507  0.2309 -0.0071
 2436DOPG   GL251088  17.651  19.802  20.109  0.1810 -0.2697 -0.1289
 2436DOPG   C1A51089  17.862  19.408  20.450 -0.1298 -0.0013 -0.4037
 2436DOPG   D2A51090  17.834  19.093  20.685  0.1582 -0.0387 -0.0255
 2436DOPG   C3A51091  17.318  19.092  20.810 -0.2223  0.0462 -0.2932
 2436DOPG   C4A51092  17.189  19.485  21.028  0.1445 -0.0467 -0.2692
 2436DOPG   C1B51093  17.865  19.906  20.492 -0.0947 -0.1369 -0.0348
 2436DOPG   D2B51094  18.175  19.804  20.412  0.0784 -0.1683 -0.3914
 2436DOPG   C3B51095  18.266  19.565  20.714 -0.2965  0.1458 -0.3219
 2436DOPG   C4B51096  18.568  19.505  21.115 -0.2190  0.1942 -0.1703
 2437DOPG   GL051097  12.693  20.981  16.641  0.1587 -0.1876  0.0168
 2437DOPG   PO451098  12.877  21.059  16.323 -0.1477 -0.1235 -0.0247
 2437DOPG   GL151099  12.702  21.374  16.080  0.2074 -0.3099 -0.0999
 2437DOPG   GL251100  12.704  21.698  16.236  0.0879 -0.1078  0.2947
 2437DOPG   C1A51101  12.517  21.673  15.747 -0.0761 -0.1392 -0.0949
 2437DOPG   D2A51102  12.277  22.014  15.720  0.3566 -0.1314  0.1375
 2437DOPG   C3A51103  12.345  22.284  15.363 -0.1789  0.2579 -0.0120
 2437DOPG   C4A51104  12.437  22.605  15.022 -0.2811  0.1085  0.2300
 2437DOPG   C1B51105  12.717  22.105  15.916  0.0582  0.2745 -0.0559
 2437DOPG   D2B51106  12.737  22.452  15.751  0.2465  0.0388  0.0964
 2437DOPG   C3B51107  12.504  22.806  15.692  0.1930 -0.2916  0.1498
 2437DOPG   C4B51108  12.291  22.994  15.297 -0.3756 -0.1368 -0.1871
 2438DOPG   GL051109  19.986  19.368  16.474 -0.0810 -0.2796 -0.0019
 2438DOPG   PO451110  20.131  18.958  16.609  0.1574  0.1209 -0.0333
 2438DOPG   GL151111  20.048  18.577  16.718  0.2305 -0.3928  0.2548
 2438DOPG   GL251112  19.656  18.608  16.796  0.1102  0.3478 -0.0481
 2438DOPG   C1A51113  19.815  18.173  16.556 -0.3829  0.1467  0.2474
 2438DOPG   D2A51114  19.730  17.799  16.484 -0.1386 -0.1346  0.0976
 2438DOPG   C3A51115  19.836  17.350  16.565  0.1339 -0.2596 -0.1691
 2438DOPG   C4A51116  19.771  16.858  16.461  0.0853 -0.2892 -0.1753
 2438DOPG   C1B51117  19.632  18.177  16.989  0.1749  0.0722  0.0392
 2438DOPG   D2B51118  19.935  17.914  17.239  0.2779  0.0085 -0.0059
 2438DOPG   C3B51119  19.831  17.491  17.075 -0.2485 -0.0418  0.2383
 2438DOPG   C4B51120  19.463  17.270  16.875 -0.0845 -0.0052 -0.0271
 2439DOPG   GL051121  17.154  16.257  20.166 -0.1187  0.0306  0.0479
 2439DOPG   PO451122  17.029  16.239  20.609  0.2796 -0.0498 -0.0727
 2439DOPG   GL151123  17.104  15.908  20.756  0.0288 -0.0551  0.2707
 2439DOPG   GL251124  17.128  16.009  21.108  0.0524 -0.0087 -0.3680
 2439DOPG   C1A51125  17.203  15.536  21.036  0.0815  0.3197 -0.3049
 2439DOPG   D2A51126  17.120  15.084  20.963  0.0897 -0.0062 -0.0126
 2439DOPG   C3A51127  17.074  14.838  21.326 -0.2253  0.2796  0.1493
 2439DOPG   C4A51128  17.012  14.443  21.631 -0.3162  0.1356 -0.0225
 2439DOPG   C1B51129  17.448  15.800  21.354 -0.1159  0.0363 -0.2164
 2439DOPG   D2B51130  17.470  15.510  21.527  0.1221 -0.3919  0.0437
 2439DOPG   C3B51131  17.202  15.411  21.972  0.0133  0.1190 -0.0499
 2439DOPG   C4B51132  17.094  15.466  22.432 -0.0976 -0.1487  0.2564
 2440DOPG   GL051133   9.926  17.940  18.442 -0.0129  0.1142  0.2440
 2440DOPG   PO451134   9.997  18.075  18.771  0.0446  0.2248 -0.3612
 2440DOPG   GL151135   9.608  17.931  19.043 -0.1386  0.0781 -0.1410
 2440DOPG   GL251136   9.722  17.928  19.312  0.3018 -0.4929 -0.0661
 2440DOPG   C1A51137   9.248  17.872  19.310  0.3379 -0.0367  0.2510
 2440DOPG   D2A51138   9.012  17.569  19.472  0.1278 -0.0944 -0.0426
 2440DOPG   C3A51139   8.868  17.806  19.919 -0.1066  0.0604  0.0256
 2440DOPG   C4A51140   8.642  18.206  20.103 -0.0258 -0.1350 -0.0193
 2440DOPG   C1B51141   9.515  17.725  19.638 -0.3643 -0.1095  0.0558
 2440DOPG   D2B51142   9.319  17.617  20.102  0.0428 -0.1495  0.0842
 2440DOPG   C3B51143   9.543  17.781  20.463  0.0284 -0.1089 -0.1046
 2440DOPG   C4B51144   9.955  17.683  20.622  0.0014 -0.0796 -0.3285
 2441DOPG   GL051145  11.668  14.271  19.425  0.0331 -0.0870  0.1967
 2441DOPG   PO451146  11.331  14.411  19.430  0.0558  0.1482  0.1142
 2441DOPG   GL151147  11.042  14.077  19.596 -0.0472 -0.0717  0.3054
 2441DOPG   GL251148  10.781  14.087  19.419  0.2982  0.0116  0.1550
 2441DOPG   C1A51149  10.975  13.648  19.641  0.0324  0.0869  0.0340
 2441DOPG   D2A51150  11.285  13.294  19.461 -0.3271  0.4477 -0.2852
 2441DOPG   C3A51151  11.204  12.899  19.482  0.5336 -0.3461  0.1237
 2441DOPG   C4A51152  10.980  12.650  19.795  0.2748  0.1985  0.2124
 2441DOPG   C1B51153  10.543  14.041  19.781  0.2662 -0.0145 -0.2592
 2441DOPG   D2B51154  10.187  13.887  20.028 -0.0834 -0.0844 -0.0576
 2441DOPG   C3B51155  10.116  13.472  20.349 -0.0277 -0.1700 -0.1388
 2441DOPG   C4B51156  10.168  12.968  20.473 -0.3398 -0.1965 -0.0068
 2442DOPG   GL051157  22.131  21.144  17.628  0.0072  0.2518  0.2821
 2442DOPG   PO451158  21.982  20.827  17.894 -0.0927 -0.0045  0.2578
 2442DOPG   GL151159  21.858  21.079  18.290  0.1068 -0.1138 -0.2058
 2442DOPG   GL251160  22.208  21.168  18.450 -0.0832  0.1951  0.2945
 2442DOPG   C1A51161  21.657  21.456  18.476 -0.0842  0.2017 -0.0582
 2442DOPG   D2A51162  21.429  21.613  18.837 -0.0482  0.0599 -0.4498
 2442DOPG   C3A51163  21.003  21.517  18.834 -0.2127  0.1594 -0.1504
 2442DOPG   C4A51164  20.680  21.325  18.907 -0.1704 -0.1549  0.0882
 2442DOPG   C1B51165  22.271  20.984  18.780  0.0303  0.0219  0.2518
 2442DOPG   D2B51166  22.119  20.984  19.165  0.0097 -0.3740  0.0430
 2442DOPG   C3B51167  22.157  21.314  19.454 -0.1204 -0.6240  0.0246
 2442DOPG   C4B51168  22.435  21.535  19.848  0.1793  0.1649  0.1046
 2443DOPG   GL051169  16.783  17.979  20.111  0.0411  0.0083  0.0575
 2443DOPG   PO451170  16.768  18.332  20.230 -0.0849  0.1404 -0.0530
 2443DOPG   GL151171  16.791  18.390  20.676 -0.0002  0.1566  0.0877
 2443DOPG   GL251172  16.456  18.314  20.708  0.0000 -0.1461  0.2018
 2443DOPG   C1A51173  16.739  18.292  21.169 -0.0830  0.1822 -0.1231
 2443DOPG   D2A51174  16.651  18.608  21.377  0.2995  0.3269 -0.1171
 2443DOPG   C3A51175  16.545  18.504  21.815  0.0546  0.0414  0.1387
 2443DOPG   C4A51176  16.692  18.228  22.051  0.2062  0.1621  0.0037
 2443DOPG   C1B51177  16.382  18.688  20.921 -0.0617 -0.2284 -0.0929
 2443DOPG   D2B51178  16.413  19.132  21.078  0.1115  0.0479 -0.0176
 2443DOPG   C3B51179  16.257  19.332  20.780  0.3051 -0.0466  0.2018
 2443DOPG   C4B51180  16.441  19.536  20.441  0.2161  0.0309  0.2536
 2444DOPG   GL051181  12.921  17.657  19.088 -0.2190  0.3985 -0.0002
 2444DOPG   PO451182  12.963  17.572  19.615  0.1785 -0.2477  0.1870
 2444DOPG   GL151183  13.086  17.391  20.112  0.1183  0.1705 -0.2481
 2444DOPG   GL251184  13.370  17.275  20.474 -0.2965 -0.0511  0.3615
 2444DOPG   C1A51185  12.851  17.323  20.467  0.0950 -0.0323  0.1477
 2444DOPG   D2A51186  13.189  17.546  20.825  0.1785 -0.3317 -0.1736
 2444DOPG   C3A51187  13.063  17.783  21.207 -0.0054 -0.1417  0.2887
 2444DOPG   C4A51188  12.785  17.774  21.454 -0.0282 -0.4243  0.3338
 2444DOPG   C1B51189  13.128  16.997  20.730  0.1135 -0.0731 -0.3277
 2444DOPG   D2B51190  12.658  16.902  20.762 -0.6014  0.1300 -0.3573
 2444DOPG   C3B51191  12.242  16.882  20.908 -0.0454 -0.2477  0.2975
 2444DOPG   C4B51192  11.806  16.924  21.151  0.0725 -0.0980  0.2516
 2445DOPG   GL051193   9.157  12.691  18.117 -0.3823  0.1320  0.2962
 2445DOPG   PO451194   9.400  12.243  18.035 -0.1113 -0.2353  0.0497
 2445DOPG   GL151195   9.092  12.135  18.167 -0.1434  0.0997 -0.1706
 2445DOPG   GL251196   8.822  12.349  18.250 -0.2089 -0.1371 -0.0474
 2445DOPG   C1A51197   8.796  11.738  18.203 -0.0601 -0.0905  0.0249
 2445DOPG   D2A51198   8.982  11.341  18.226 -0.1345  0.0418  0.0210
 2445DOPG   C3A51199   8.931  10.947  18.111 -0.1101 -0.1924 -0.1493
 2445DOPG   C4A51200   9.353  10.676  18.160 -0.0237 -0.4349  0.1831
 2445DOPG   C1B51201   8.561  12.263  18.504 -0.2734  0.3430  0.1775
 2445DOPG   D2B51202   8.282  12.299  18.911  0.2925  0.1066  0.1137
 2445DOPG   C3B51203   7.788  12.396  18.770  0.2086  0.0025 -0.1330
 2445DOPG   C4B51204   7.569  12.196  18.577  0.1206 -0.0107 -0.3186
 2446DOPG   GL051205  12.070  21.313  18.775  0.0344  0.2970  0.1119
 2446DOPG   PO451206  11.747  21.020  18.542 -0.0030  0.0370  0.2906
 2446DOPG   GL151207  11.507  21.113  18.875 -0.1946  0.3026  0.1154
 2446DOPG   GL251208  11.754  21.057  19.065  0.3274 -0.2011  0.0519
 2446DOPG   C1A51209  11.197  21.383  18.954  0.2931  0.0451 -0.3052
 2446DOPG   D2A51210  10.794  21.622  19.008 -0.0843 -0.1456  0.0622
 2446DOPG   C3A51211  10.475  21.632  19.359  0.2722 -0.3490  0.0166
 2446DOPG   C4A51212  10.434  21.401  19.671 -0.1032  0.0418 -0.1057
 2446DOPG   C1B51213  12.049  21.356  19.281 -0.0439 -0.3925 -0.0165
 2446DOPG   D2B51214  12.071  21.886  19.368 -0.2326 -0.1332 -0.1903
 2446DOPG   C3B51215  11.805  22.021  19.630  0.0578 -0.3044  0.2172
 2446DOPG   C4B51216  11.361  22.173  19.897  0.0713 -0.0405 -0.0434
 2447DOPG   GL051217  19.140  14.948  19.917 -0.0382 -0.1378  0.0357
 2447DOPG   PO451218  19.219  14.630  19.698 -0.1529 -0.0221  0.2456
 2447DOPG   GL151219  19.050  14.312  19.940 -0.3216 -0.2803  0.2810
 2447DOPG   GL251220  18.963  13.941  19.718  0.0354 -0.0105 -0.3205
 2447DOPG   C1A51221  18.784  14.167  20.375  0.0087  0.0041 -0.0500
 2447DOPG   D2A51222  18.524  13.945  20.842  0.2285  0.2649  0.1512
 2447DOPG   C3A51223  18.169  14.158  21.064  0.0060 -0.0650 -0.0590
 2447DOPG   C4A51224  18.038  14.581  21.172  0.0330 -0.2379 -0.0635
 2447DOPG   C1B51225  19.053  13.681  19.971 -0.1372  0.3558 -0.3424
 2447DOPG   D2B51226  19.358  13.473  20.280 -0.1283 -0.0940  0.2827
 2447DOPG   C3B51227  19.092  13.187  20.533 -0.0543  0.2649  0.0273
 2447DOPG   C4B51228  18.868  12.695  20.610  0.0298 -0.1198  0.0864
 2448DOPG   GL051229  17.262  18.189  20.395  0.0875  0.0259  0.0035
 2448DOPG   PO451230  17.726  18.417  20.291  0.1866 -0.2661  0.0380
 2448DOPG   GL151231  17.585  18.598  20.673  0.2331 -0.0873  0.2355
 2448DOPG   GL251232  17.220  18.624  20.551 -0.0434 -0.1214 -0.1598
 2448DOPG   C1A51233  17.778  18.542  21.075  0.2779  0.1603 -0.6376
 2448DOPG   D2A51234  17.671  18.163  21.367 -0.0672  0.1923  0.2432
 2448DOPG   C3A51235  17.457  18.266  21.728 -0.0679 -0.0145  0.0025
 2448DOPG   C4A51236  17.178  18.227  21.932 -0.0874  0.0181  0.1861
 2448DOPG   C1B51237  16.934  18.781  20.865  0.2638 -0.2522 -0.2202
 2448DOPG   D2B51238  17.040  18.969  21.241 -0.1191  0.0436 -0.1195
 2448DOPG   C3B51239  17.069  18.631  21.680 -0.0135  0.3524  0.0206
 2448DOPG   C4B51240  17.177  18.787  22.134 -0.0097 -0.1853 -0.0481
 2449DOPG   GL051241  16.107  16.373  20.579 -0.0306  0.0541 -0.2072
 2449DOPG   PO451242  16.530  16.306  20.680 -0.1108 -0.0876  0.0277
 2449DOPG   GL151243  16.587  16.397  21.080 -0.2002  0.2125 -0.0688
 2449DOPG   GL251244  16.665  16.158  21.268 -0.0803  0.0984 -0.0556
 2449DOPG   C1A51245  16.488  16.576  21.471 -0.2324  0.0388  0.2590
 2449DOPG   D2A51246  16.331  16.502  21.894 -0.5888  0.3375 -0.3807
 2449DOPG   C3A51247  16.154  16.932  22.139 -0.0200 -0.0062  0.0474
 2449DOPG   C4A51248  16.224  17.257  22.478  0.0951 -0.0277  0.1469
 2449DOPG   C1B51249  16.716  16.082  21.735  0.1124  0.1240  0.3313
 2449DOPG   D2B51250  16.873  15.820  22.094  0.3585  0.3593 -0.0479
 2449DOPG   C3B51251  16.670  15.414  22.101 -0.0737 -0.1818 -0.4625
 2449DOPG   C4B51252  16.292  15.125  22.336  0.0325  0.1937  0.2434
 2450DOPG   GL051253  16.411  15.751  19.906  0.0468  0.1846  0.2835
 2450DOPG   PO451254  16.869  15.856  19.936  0.2929  0.0119 -0.0184
 2450DOPG   GL151255  17.127  15.674  20.280  0.0173 -0.0632 -0.1374
 2450DOPG   GL251256  17.473  15.454  20.287 -0.2649 -0.0903  0.0065
 2450DOPG   C1A51257  17.109  15.372  20.587 -0.3400  0.1900  0.3647
 2450DOPG   D2A51258  16.753  15.052  20.582  0.1082 -0.2123  0.0665
 2450DOPG   C3A51259  16.758  14.587  20.434 -0.0978 -0.2607  0.1310
 2450DOPG   C4A51260  16.989  14.485  20.101  0.0588  0.3374 -0.1671
 2450DOPG   C1B51261  17.584  15.329  20.730  0.1122 -0.3601  0.1884
 2450DOPG   D2B51262  17.637  15.250  21.167 -0.0753 -0.2620 -0.1740
 2450DOPG   C3B51263  17.688  14.985  21.491  0.0404 -0.0781  0.1045
 2450DOPG   C4B51264  17.894  14.743  21.698 -0.2238  0.1811 -0.0066
 2451DOPG   GL051265  11.716  20.096  19.029 -0.1295  0.0146 -0.1312
 2451DOPG   PO451266  11.667  19.691  18.905 -0.1285 -0.2635  0.0856
 2451DOPG   GL151267  11.453  19.750  19.299 -0.0496  0.0759 -0.0383
 2451DOPG   GL251268  11.718  19.646  19.507  0.4383  0.1750 -0.0913
 2451DOPG   C1A51269  11.249  19.907  19.599 -0.0538  0.1346 -0.1589
 2451DOPG   D2A51270  11.047  20.133  19.860 -0.3865 -0.0895 -0.2304
 2451DOPG   C3A51271  10.799  20.406  19.921  0.0983  0.0328  0.2375
 2451DOPG   C4A51272  10.438  20.717  19.949 -0.0421  0.2616 -0.0708
 2451DOPG   C1B51273  11.723  19.546  19.920 -0.2961 -0.2430  0.2423
 2451DOPG   D2B51274  11.646  19.526  20.383 -0.1120  0.0126 -0.1717
 2451DOPG   C3B51275  11.332  19.424  20.725 -0.1572  0.4857 -0.0880
 2451DOPG   C4B51276  11.225  19.177  21.094  0.0791  0.2624  0.0188
 2452DOPG   GL051277  18.109  21.100  17.977  0.1269 -0.2279  0.0951
 2452DOPG   PO451278  17.903  21.404  18.120 -0.0238  0.0449  0.1221
 2452DOPG   GL151279  17.834  21.809  18.235  0.2637  0.4014  0.0773
 2452DOPG   GL251280  17.929  21.870  17.877 -0.2738 -0.0508  0.2400
 2452DOPG   C1A51281  17.782  22.232  18.457  0.0445  0.0608 -0.1751
 2452DOPG   D2A51282  17.674  22.534  18.802  0.2093 -0.2315 -0.5004
 2452DOPG   C3A51283  17.851  22.511  19.129  0.1054 -0.2580  0.1074
 2452DOPG   C4A51284  17.901  22.737  19.530 -0.0753 -0.3993  0.0005
 2452DOPG   C1B51285  18.142  22.184  18.031  0.2529  0.2280 -0.0700
 2452DOPG   D2B51286  18.246  22.598  18.019 -0.1328  0.1422  0.1035
 2452DOPG   C3B51287  17.913  22.676  18.277 -0.2947 -0.1228  0.0630
 2452DOPG   C4B51288  17.573  22.698  18.311  0.1878  0.1998  0.1021
 2453DOPG   GL051289  10.596  11.689  17.382  0.1272  0.0766 -0.1831
 2453DOPG   PO451290  10.972  11.629  17.580 -0.1382  0.0526  0.1698
 2453DOPG   GL151291  11.347  11.829  17.757 -0.0150 -0.1718  0.1146
 2453DOPG   GL251292  11.611  11.768  17.547 -0.2590 -0.2200  0.3935
 2453DOPG   C1A51293  11.606  12.313  17.743 -0.0536 -0.0858 -0.0643
 2453DOPG   D2A51294  11.925  12.439  17.990 -0.1672  0.0078  0.1993
 2453DOPG   C3A51295  12.184  12.822  18.196 -0.2824 -0.1753  0.1508
 2453DOPG   C4A51296  12.295  13.179  18.232 -0.1147  0.1090  0.1261
 2453DOPG   C1B51297  11.651  12.068  17.306  0.1442 -0.1510  0.1132
 2453DOPG   D2B51298  11.793  12.279  16.919  0.3656  0.1677  0.0046
 2453DOPG   C3B51299  12.036  12.593  16.875  0.0325 -0.0378  0.0771
 2453DOPG   C4B51300  12.003  13.004  16.581 -0.0511 -0.1268  0.1834
 2454DOPG   GL051301  20.690  20.613  18.074  0.0689 -0.2614 -0.3556
 2454DOPG   PO451302  20.521  20.236  17.922 -0.3115 -0.2381 -0.1707
 2454DOPG   GL151303  20.340  20.268  18.285 -0.0715 -0.0799  0.1302
 2454DOPG   GL251304  20.299  20.522  18.439  0.2935  0.3278  0.2664
 2454DOPG   C1A51305  20.230  20.173  18.838  0.2005 -0.0368  0.1012
 2454DOPG   D2A51306  20.398  20.186  19.278 -0.3139  0.2147 -0.0972
 2454DOPG   C3A51307  20.586  19.868  19.558 -0.0423 -0.0739 -0.2555
 2454DOPG   C4A51308  20.711  19.443  19.489 -0.4055 -0.3676 -0.0670
 2454DOPG   C1B51309  20.544  20.544  18.834  0.1237  0.1044 -0.1395
 2454DOPG   D2B51310  20.816  20.843  18.979  0.1818 -0.0978  0.4733
 2454DOPG   C3B51311  20.990  20.758  19.344  0.2251  0.1012 -0.0761
 2454DOPG   C4B51312  21.248  20.880  19.707  0.2614 -0.3645  0.2119
 2455DOPG   GL051313  20.626  15.013  18.804  0.0145 -0.0382  0.3339
 2455DOPG   PO451314  20.539  14.808  18.504  0.2538 -0.0046 -0.3000
 2455DOPG   GL151315  20.625  14.603  18.216 -0.0418 -0.3062  0.3630
 2455DOPG   GL251316  20.639  14.748  17.816 -0.0296  0.0887 -0.1255
 2455DOPG   C1A51317  20.708  14.211  18.282 -0.0503 -0.0327 -0.0750
 2455DOPG   D2A51318  20.792  13.698  18.375 -0.0618 -0.2556 -0.0002
 2455DOPG   C3A51319  20.948  13.343  18.359  0.0110  0.0864  0.1561
 2455DOPG   C4A51320  20.784  13.097  18.137 -0.2602  0.4022  0.1253
 2455DOPG   C1B51321  20.912  14.379  17.605  0.0029  0.2632  0.0495
 2455DOPG   D2B51322  21.112  14.068  17.322  0.2468 -0.1302  0.1306
 2455DOPG   C3B51323  21.458  14.174  17.055  0.0708  0.2590 -0.1268
 2455DOPG   C4B51324  21.699  14.200  16.665  0.0644 -0.0319 -0.4413
 2456DOPG   GL051325  13.131  11.198  18.531  0.2064 -0.1135  0.3507
 2456DOPG   PO451326  12.802  11.020  18.929 -0.3036 -0.0046  0.3422
 2456DOPG   GL151327  12.756  11.262  19.244 -0.1608  0.0566  0.0939
 2456DOPG   GL251328  12.950  11.111  19.397  0.2196  0.1156 -0.0426
 2456DOPG   C1A51329  12.943  11.614  19.397  0.1331 -0.0272 -0.0777
 2456DOPG   D2A51330  13.218  11.669  19.930  0.1486 -0.0931 -0.2903
 2456DOPG   C3A51331  13.208  11.737  20.342 -0.0996  0.1833  0.0491
 2456DOPG   C4A51332  12.748  11.679  20.722  0.1376 -0.0980  0.1600
 2456DOPG   C1B51333  13.254  10.846  19.651 -0.0456 -0.3519 -0.1363
 2456DOPG   D2B51334  13.309  10.393  19.802  0.2456 -0.1723  0.0944
 2456DOPG   C3B51335  13.333  10.147  20.159  0.0586 -0.1762  0.0447
 2456DOPG   C4B51336  13.623   9.890  20.381 -0.2993 -0.0584  0.0142
 2457DOPG   GL051337  17.738  18.916  18.622  0.0186 -0.0965 -0.1326
 2457DOPG   PO451338  18.024  19.211  18.845  0.2709  0.0067  0.1272
 2457DOPG   GL151339  18.403  18.929  18.683  0.3569  0.0882 -0.3051
 2457DOPG   GL251340  18.225  18.687  18.520  0.1222  0.0038  0.0419
 2457DOPG   C1A51341  18.782  18.727  18.545  0.0454  0.0606  0.1096
 2457DOPG   D2A51342  19.080  18.481  18.818 -0.2946 -0.0828  0.1793
 2457DOPG   C3A51343  19.371  18.192  18.980  0.1137  0.1384 -0.1066
 2457DOPG   C4A51344  19.630  17.942  19.108 -0.0080 -0.0584  0.0472
 2457DOPG   C1B51345  18.090  18.196  18.385  0.2408 -0.2647  0.0123
 2457DOPG   D2B51346  18.181  18.012  18.045  0.2865 -0.1281  0.0835
 2457DOPG   C3B51347  18.697  17.915  18.102  0.1956  0.4087  0.0511
 2457DOPG   C4B51348  19.060  17.607  18.196 -0.1447 -0.0727 -0.0903
 2458DOPG   GL051349  24.173  19.752  17.786 -0.1116 -0.0277 -0.1585
 2458DOPG   PO451350  24.520  19.910  18.050  0.0294 -0.2238  0.0123
 2458DOPG   GL151351  24.789  20.207  18.327  0.2036  0.0355  0.1450
 2458DOPG   GL251352  24.600  20.446  18.178 -0.0202  0.0780 -0.0464
 2458DOPG   C1A51353  24.876  20.732  18.477 -0.1054 -0.0791  0.1934
 2458DOPG   D2A51354  25.002  21.173  18.247  0.0170 -0.0552  0.0265
 2458DOPG   C3A51355  24.808  21.274  17.900 -0.1619  0.1120 -0.0584
 2458DOPG   C4A51356  24.337  21.405  17.858  0.2282 -0.1398  0.1303
 2458DOPG   C1B51357  24.122  20.642  18.121 -0.0579 -0.2184  0.0484
 2458DOPG   D2B51358  23.807  21.010  18.281  0.0808  0.0628 -0.3153
 2458DOPG   C3B51359  24.017  21.356  18.447  0.1154 -0.0604 -0.1594
 2458DOPG   C4B51360  24.265  21.779  18.278 -0.0239  0.1158  0.0799
 2459DOPG   GL051361  20.458  20.741  17.570  0.4829 -0.0178 -0.1749
 2459DOPG   PO451362  20.680  21.071  17.646 -0.0106 -0.1276 -0.1780
 2459DOPG   GL151363  20.807  21.143  17.996  0.2343 -0.1232  0.3083
 2459DOPG   GL251364  20.418  21.065  18.161  0.3331  0.0153 -0.0610
 2459DOPG   C1A51365  21.163  21.275  18.202 -0.3184  0.0464 -0.2075
 2459DOPG   D2A51366  21.420  21.562  18.078  0.0498 -0.0311  0.0389
 2459DOPG   C3A51367  21.653  21.843  18.191 -0.1641 -0.2619  0.1612
 2459DOPG   C4A51368  21.860  21.879  18.657  0.0723  0.0056  0.3301
 2459DOPG   C1B51369  20.325  21.003  18.543 -0.1199 -0.0095  0.0491
 2459DOPG   D2B51370  20.275  20.988  18.965 -0.0007  0.3283  0.1313
 2459DOPG   C3B51371  20.198  21.460  19.017  0.2490  0.1464 -0.3317
 2459DOPG   C4B51372  20.244  21.848  19.239 -0.0136  0.1616  0.0763
 2460DOPG   GL051373   6.628  20.580  17.215 -0.1515  0.4308  0.0448
 2460DOPG   PO451374   6.798  21.085  17.325  0.0737 -0.2562  0.0341
 2460DOPG   GL151375   7.052  21.198  17.751 -0.0401 -0.1462  0.0303
 2460DOPG   GL251376   7.173  21.426  17.885 -0.0802  0.2704 -0.0738
 2460DOPG   C1A51377   7.027  20.944  18.085 -0.1855 -0.0762  0.2565
 2460DOPG   D2A51378   7.300  20.743  18.297  0.0449 -0.3757 -0.0481
 2460DOPG   C3A51379   7.728  20.720  18.250  0.4614 -0.2518 -0.1929
 2460DOPG   C4A51380   8.099  20.627  18.461 -0.0387  0.1140 -0.0142
 2460DOPG   C1B51381   7.274  21.675  18.169 -0.2568 -0.4416  0.0299
 2460DOPG   D2B51382   7.273  21.911  18.527 -0.4850 -0.1348  0.0259
 2460DOPG   C3B51383   7.544  21.748  18.830  0.0002  0.0945  0.3074
 2460DOPG   C4B51384   7.840  21.829  19.032  0.1076  0.4308  0.1989
 2461DOPG   GL051385  11.196  11.029  18.285  0.0291 -0.0346 -0.2440
 2461DOPG   PO451386  11.448  11.329  18.417  0.1613 -0.0355 -0.2285
 2461DOPG   GL151387  11.642  11.327  18.960  0.2107  0.1119  0.2348
 2461DOPG   GL251388  11.863  11.505  18.936  0.0462  0.0294 -0.1846
 2461DOPG   C1A51389  11.515  11.507  19.396 -0.2959 -0.1067  0.1119
 2461DOPG   D2A51390  11.262  11.638  19.710 -0.1718  0.2264  0.0340
 2461DOPG   C3A51391  11.014  12.112  19.833  0.3560 -0.0869 -0.2134
 2461DOPG   C4A51392  10.542  12.162  19.827 -0.0410 -0.1929 -0.2632
 2461DOPG   C1B51393  11.992  11.725  19.347  0.2666  0.1726 -0.1727
 2461DOPG   D2B51394  12.221  12.039  19.432 -0.3193 -0.0930  0.2262
 2461DOPG   C3B51395  12.121  12.494  19.612  0.1594  0.0262 -0.2487
 2461DOPG   C4B51396  12.093  12.932  19.452 -0.1722  0.4702  0.0183
 2462DOPG   GL051397  16.334  18.044  20.320  0.0358  0.3113 -0.2485
 2462DOPG   PO451398  16.143  17.687  20.492  0.0892 -0.1574 -0.1797
 2462DOPG   GL151399  16.060  17.910  20.837 -0.1664  0.2340  0.1049
 2462DOPG   GL251400  16.321  17.779  20.961  0.0930 -0.0480  0.1417
 2462DOPG   C1A51401  15.928  17.869  21.311  0.2827 -0.0325  0.1132
 2462DOPG   D2A51402  15.966  17.589  21.693 -0.0354 -0.2160  0.0623
 2462DOPG   C3A51403  16.070  17.104  21.680 -0.3675 -0.1418 -0.3520
 2462DOPG   C4A51404  16.437  17.009  21.650 -0.1931 -0.0760  0.0599
 2462DOPG   C1B51405  16.430  17.898  21.302 -0.0346  0.1075  0.1833
 2462DOPG   D2B51406  16.301  17.986  21.788  0.0762  0.0015 -0.1921
 2462DOPG   C3B51407  16.287  17.663  22.043 -0.0244 -0.4060 -0.2897
 2462DOPG   C4B51408  16.469  17.329  22.043 -0.1745 -0.1239  0.3600
 2463DOPG   GL051409  19.486  15.150  18.512 -0.2509 -0.2213  0.1928
 2463DOPG   PO451410  19.837  14.964  18.323  0.1778  0.3450  0.2660
 2463DOPG   GL151411  20.101  14.611  18.158 -0.0504  0.3895  0.1539
 2463DOPG   GL251412  20.122  14.684  17.831 -0.1371  0.3890  0.3238
 2463DOPG   C1A51413  20.209  14.210  18.225 -0.1817  0.1929 -0.0848
 2463DOPG   D2A51414  20.304  13.776  18.124  0.1367 -0.3415 -0.1610
 2463DOPG   C3A51415  20.132  13.740  17.674 -0.0009  0.0584  0.1071
 2463DOPG   C4A51416  19.809  13.647  17.426 -0.4846  0.4733 -0.2191
 2463DOPG   C1B51417  20.138  14.527  17.417 -0.2555 -0.1575  0.0752
 2463DOPG   D2B51418  20.387  14.478  17.135 -0.0259  0.0934  0.0423
 2463DOPG   C3B51419  20.408  14.338  16.666  0.0437  0.3198  0.0776
 2463DOPG   C4B51420  20.541  14.205  16.236 -0.0279  0.2476 -0.3241
 2464DOPG   GL051421  12.673  19.128  19.711 -0.2918  0.3777  0.2778
 2464DOPG   PO451422  13.009  19.390  19.557  0.1508  0.1720 -0.0726
 2464DOPG   GL151423  12.665  19.576  19.626 -0.3896 -0.1302  0.0826
 2464DOPG   GL251424  12.595  19.637  19.247 -0.0200  0.0904 -0.2038
 2464DOPG   C1A51425  12.384  19.899  19.926  0.3064  0.1177  0.3145
 2464DOPG   D2A51426  12.043  19.947  20.131 -0.1066  0.2025  0.1008
 2464DOPG   C3A51427  12.047  20.005  20.524 -0.1005  0.2863  0.1223
 2464DOPG   C4A51428  12.206  19.869  20.924  0.1085  0.4352 -0.0660
 2464DOPG   C1B51429  12.181  19.396  19.633  0.2188 -0.0943 -0.1073
 2464DOPG   D2B51430  12.213  19.094  19.890 -0.0612 -0.1170  0.3133
 2464DOPG   C3B51431  12.199  18.978  20.366 -0.0973  0.1161 -0.2449
 2464DOPG   C4B51432  12.363  18.588  20.360 -0.0062 -0.2429 -0.0441
 2465DOPG   GL051433   8.049  20.309  17.542  0.3889  0.0636 -0.0183
 2465DOPG   PO451434   7.879  20.187  17.905 -0.1163  0.1982 -0.0084
 2465DOPG   GL151435   8.015  19.993  18.235 -0.1843  0.1810 -0.0320
 2465DOPG   GL251436   8.300  20.112  18.419 -0.0734  0.1069  0.2298
 2465DOPG   C1A51437   7.848  19.892  18.593 -0.1677  0.1119 -0.4115
 2465DOPG   D2A51438   7.736  19.887  19.073 -0.0136  0.2749 -0.0959
 2465DOPG   C3A51439   7.550  20.050  19.320  0.0480  0.3490 -0.2207
 2465DOPG   C4A51440   7.617  20.447  19.530 -0.1047  0.0390 -0.0716
 2465DOPG   C1B51441   8.449  20.187  18.853  0.1726 -0.2394  0.1312
 2465DOPG   D2B51442   8.612  20.379  19.064 -0.1745  0.2024 -0.0483
 2465DOPG   C3B51443   8.912  20.219  19.255  0.0993  0.0294  0.2774
 2465DOPG   C4B51444   9.300  19.915  19.271 -0.3805 -0.0694 -0.1674
 2466DOPG   GL051445  18.899  16.522  20.333 -0.0955  0.0939 -0.0683
 2466DOPG   PO451446  18.600  16.376  20.585 -0.3589 -0.1174  0.0465
 2466DOPG   GL151447  18.931  16.429  20.936  0.0483  0.0693  0.0872
 2466DOPG   GL251448  19.166  16.326  20.835  0.2751  0.1260 -0.1098
 2466DOPG   C1A51449  19.403  16.509  21.189  0.2234 -0.0018  0.0029
 2466DOPG   D2A51450  19.627  16.718  21.367 -0.0267  0.1702 -0.0667
 2466DOPG   C3A51451  19.463  17.166  21.390 -0.0969  0.0710 -0.0879
 2466DOPG   C4A51452  19.657  17.422  21.079 -0.2474  0.0012  0.1232
 2466DOPG   C1B51453  19.270  16.694  20.613 -0.1001  0.1078 -0.2227
 2466DOPG   D2B51454  19.381  17.066  20.829 -0.0790  0.0990 -0.2610
 2466DOPG   C3B51455  19.286  17.485  20.694 -0.1880  0.0658 -0.0714
 2466DOPG   C4B51456  19.201  17.581  20.347  0.0821  0.3750  0.0066
 2467DOPG   GL051457   9.448  17.709  18.501  0.1608 -0.1492  0.2735
 2467DOPG   PO451458   9.814  17.581  18.757 -0.0967 -0.0495  0.0211
 2467DOPG   GL151459  10.064  17.650  19.039  0.1899 -0.0986 -0.0512
 2467DOPG   GL251460  10.352  17.378  19.186  0.1017 -0.3922  0.1284
 2467DOPG   C1A51461  10.282  17.939  19.294 -0.0005  0.1642 -0.2112
 2467DOPG   D2A51462  10.472  18.026  19.590 -0.2085  0.0033  0.0708
 2467DOPG   C3A51463  10.471  18.156  20.057 -0.0200 -0.0165  0.1491
 2467DOPG   C4A51464  10.492  17.810  20.447  0.0699 -0.2851  0.1382
 2467DOPG   C1B51465  10.550  17.543  19.474  0.1314 -0.2510 -0.0873
 2467DOPG   D2B51466  10.587  17.676  19.935  0.0542  0.1847  0.0350
 2467DOPG   C3B51467  10.258  17.570  20.055  0.0440  0.2511  0.0472
 2467DOPG   C4B51468   9.806  17.485  20.039  0.2165  0.3250  0.0392
 2468DOPG   GL051469  15.793  20.355  18.974  0.0502 -0.4139  0.0984
 2468DOPG   PO451470  16.232  20.464  18.812  0.0553 -0.4943  0.2421
 2468DOPG   GL151471  16.468  20.567  19.072  0.1996 -0.0561  0.1326
 2468DOPG   GL251472  16.348  20.484  19.424  0.1835  0.1632 -0.1168
 2468DOPG   C1A51473  16.602  20.918  19.407  0.0001 -0.1886 -0.2238
 2468DOPG   D2A51474  16.803  21.310  19.590 -0.2446  0.0443 -0.1866
 2468DOPG   C3A51475  16.548  21.687  19.783  0.2040 -0.1672  0.0349
 2468DOPG   C4A51476  16.828  22.059  19.852 -0.1658 -0.0880  0.1203
 2468DOPG   C1B51477  16.192  20.717  19.710  0.1721  0.2577  0.0139
 2468DOPG   D2B51478  15.996  20.881  19.976 -0.1137  0.0793 -0.1419
 2468DOPG   C3B51479  15.971  21.180  20.225  0.3569 -0.1706  0.2784
 2468DOPG   C4B51480  15.739  21.404  20.381  0.0650  0.5691  0.2622
 2469DOPG   GL051481  14.067  16.982  19.260 -0.1329 -0.2077  0.4183
 2469DOPG   PO451482  14.206  16.555  19.113  0.0699 -0.0089 -0.1398
 2469DOPG   GL151483  14.453  16.302  18.849 -0.0553  0.0272 -0.0473
 2469DOPG   GL251484  14.720  16.436  18.661  0.1767 -0.0364 -0.0609
 2469DOPG   C1A51485  14.686  15.936  18.536 -0.0998  0.1041 -0.1967
 2469DOPG   D2A51486  14.683  15.617  18.243  0.0139  0.2354  0.4125
 2469DOPG   C3A51487  14.493  15.607  17.840 -0.0271 -0.1015  0.0276
 2469DOPG   C4A51488  14.203  15.781  17.561 -0.0732 -0.0064  0.0621
 2469DOPG   C1B51489  14.583  16.324  18.199 -0.0446  0.1835 -0.0050
 2469DOPG   D2B51490  14.363  16.604  17.989 -0.3829  0.0473  0.0973
 2469DOPG   C3B51491  14.498  16.783  17.664 -0.0124 -0.2212  0.1392
 2469DOPG   C4B51492  14.242  17.012  17.349  0.1053  0.0172  0.3036
 2470DOPG   GL051493  17.035  16.617  19.304  0.0725 -0.1466  0.3612
 2470DOPG   PO451494  17.353  16.505  19.447  0.1509 -0.0280 -0.2382
 2470DOPG   GL151495  17.543  16.564  19.054 -0.0966 -0.2820  0.0135
 2470DOPG   GL251496  17.340  16.604  18.796 -0.0834  0.1511 -0.1547
 2470DOPG   C1A51497  17.752  16.905  18.782 -0.4036  0.0965  0.0373
 2470DOPG   D2A51498  17.824  16.930  18.328  0.1097 -0.2460  0.0322
 2470DOPG   C3A51499  17.738  17.236  18.017 -0.6476  0.2217 -0.3799
 2470DOPG   C4A51500  17.691  17.335  17.522  0.0803 -0.1100  0.2159
 2470DOPG   C1B51501  17.553  16.512  18.517  0.1125 -0.2024 -0.0424
 2470DOPG   D2B51502  17.557  16.585  18.016  0.0074  0.0970 -0.0650
 2470DOPG   C3B51503  17.391  16.827  17.579 -0.0030  0.1026 -0.0196
 2470DOPG   C4B51504  17.125  17.179  17.466 -0.0344 -0.3674 -0.3308
 2471DOPG   GL051505  17.419  15.559  19.463  0.0122 -0.1435  0.0987
 2471DOPG   PO451506  17.285  15.350  19.796  0.3052 -0.1132  0.2572
 2471DOPG   GL151507  17.203  15.016  20.065 -0.0258  0.1581  0.0196
 2471DOPG   GL251508  16.969  15.176  20.110 -0.3285  0.1208 -0.0481
 2471DOPG   C1A51509  17.327  14.957  20.535  0.0529  0.1003 -0.1691
 2471DOPG   D2A51510  17.695  14.854  20.842  0.1392  0.0758  0.5838
 2471DOPG   C3A51511  17.533  14.637  21.062 -0.0622  0.1894 -0.0967
 2471DOPG   C4A51512  17.582  14.412  21.525  0.0000 -0.1501 -0.0564
 2471DOPG   C1B51513  16.749  14.935  19.866  0.1318  0.0525  0.0922
 2471DOPG   D2B51514  16.528  14.640  19.588 -0.1185  0.3968  0.1976
 2471DOPG   C3B51515  16.458  14.949  19.361 -0.4258 -0.0158 -0.2089
 2471DOPG   C4B51516  16.151  15.230  19.196 -0.0214  0.0167 -0.2686
 2472DOPG   GL051517  10.605  21.453  17.602  0.0594  0.0674 -0.0581
 2472DOPG   PO451518  10.497  21.782  17.825 -0.2057  0.2613 -0.1168
 2472DOPG   GL151519  10.644  22.124  17.892 -0.0159 -0.1012 -0.0475
 2472DOPG   GL251520  10.323  22.244  18.095 -0.1346 -0.1033 -0.0108
 2472DOPG   C1A51521  10.887  22.360  18.137 -0.1007 -0.0104  0.0538
 2472DOPG   D2A51522  11.219  22.658  18.181  0.2317 -0.1234 -0.1187
 2472DOPG   C3A51523  11.448  22.737  18.610 -0.2012 -0.0200  0.0842
 2472DOPG   C4A51524  11.666  22.676  19.106  0.1491  0.2423 -0.2577
 2472DOPG   C1B51525   9.977  22.276  18.499  0.1897  0.1470 -0.0442
 2472DOPG   D2B51526   9.763  22.379  18.734  0.0834  0.2591 -0.0561
 2472DOPG   C3B51527   9.402  22.194  18.749  0.0943 -0.0480  0.1309
 2472DOPG   C4B51528   9.092  22.116  18.406  0.1804  0.2262 -0.0268
 2473DOPG   GL051529  11.313  20.730  18.502  0.3451 -0.2555 -0.2447
 2473DOPG   PO451530  10.883  20.873  18.443 -0.1652 -0.0990 -0.1599
 2473DOPG   GL151531  10.871  21.232  18.543  0.1491 -0.1343 -0.0516
 2473DOPG   GL251532  10.589  21.228  18.754  0.0792  0.0175  0.3262
 2473DOPG   C1A51533  11.174  21.630  18.546 -0.1856  0.0165  0.1927
 2473DOPG   D2A51534  11.517  21.850  18.690  0.2184 -0.1724  0.2705
 2473DOPG   C3A51535  11.716  21.583  18.978 -0.0551  0.0949  0.1716
 2473DOPG   C4A51536  11.556  21.382  19.372 -0.0928 -0.0812 -0.2023
 2473DOPG   C1B51537  10.315  21.602  18.930  0.3347  0.1976  0.2828
 2473DOPG   D2B51538  10.233  22.096  18.909 -0.1372  0.3184 -0.2399
 2473DOPG   C3B51539  10.503  22.303  18.632  0.0324 -0.1359  0.0825
 2473DOPG   C4B51540  10.606  22.673  18.341 -0.1935  0.4351  0.1387
 2474DOPG   GL051541  11.885  20.622  19.234 -0.0996  0.0598  0.0019
 2474DOPG   PO451542  11.650  20.571  18.843  0.0533 -0.2244  0.0117
 2474DOPG   GL151543  11.353  20.442  19.075 -0.0098  0.0632 -0.1548
 2474DOPG   GL251544  11.112  20.091  19.053 -0.3012 -0.0494  0.1657
 2474DOPG   C1A51545  11.148  20.428  19.435 -0.2362  0.3450 -0.1893
 2474DOPG   D2A51546  11.148  20.727  19.771  0.3294 -0.1260  0.0384
 2474DOPG   C3A51547  10.808  21.088  19.863  0.3292 -0.0808  0.1590
 2474DOPG   C4A51548  10.555  21.307  20.128  0.0751  0.1163  0.0572
 2474DOPG   C1B51549  11.011  19.700  19.091 -0.1006 -0.2618 -0.1068
 2474DOPG   D2B51550  10.886  19.401  18.872 -0.1270  0.0770 -0.0023
 2474DOPG   C3B51551  10.845  19.006  19.002  0.1444  0.1865 -0.1026
 2474DOPG   C4B51552  10.832  18.656  19.158 -0.2398  0.0357 -0.1011
 2475DOPG   GL051553  14.673  11.741  17.359 -0.1373 -0.2623  0.0243
 2475DOPG   PO451554  14.442  11.817  16.893 -0.0679  0.2981 -0.0867
 2475DOPG   GL151555  14.183  11.963  17.132 -0.0004 -0.2433  0.0603
 2475DOPG   GL251556  14.139  11.877  17.401  0.1274  0.2322 -0.0369
 2475DOPG   C1A51557  13.969  12.451  17.212 -0.1917 -0.0009  0.1221
 2475DOPG   D2A51558  13.817  12.866  17.006  0.0948 -0.0555  0.0913
 2475DOPG   C3A51559  13.893  13.212  17.337 -0.3923  0.0807  0.0456
 2475DOPG   C4A51560  14.160  13.211  17.784  0.0233 -0.2249 -0.0164
 2475DOPG   C1B51561  13.831  12.096  17.556 -0.0278 -0.0824 -0.1366
 2475DOPG   D2B51562  13.648  12.311  17.763  0.1995 -0.4456 -0.0123
 2475DOPG   C3B51563  13.324  12.584  17.807  0.3404  0.1161  0.0220
 2475DOPG   C4B51564  13.216  12.949  18.015  0.0212  0.0822 -0.2159
 2476DOPG   GL051565  21.337  19.789  18.058 -0.1344 -0.1200  0.0645
 2476DOPG   PO451566  21.053  20.148  18.123 -0.0775  0.3885 -0.0567
 2476DOPG   GL151567  21.058  20.568  18.356 -0.2939  0.1326 -0.2122
 2476DOPG   GL251568  20.913  20.372  18.508 -0.1948  0.2709 -0.0063
 2476DOPG   C1A51569  20.828  20.982  18.521  0.1890  0.0921  0.2142
 2476DOPG   D2A51570  20.735  21.449  18.441  0.3081  0.0029 -0.0152
 2476DOPG   C3A51571  21.079  21.778  18.431 -0.4450 -0.1736  0.0380
 2476DOPG   C4A51572  21.375  22.095  18.542 -0.0869  0.2455 -0.3008
 2476DOPG   C1B51573  20.755  20.031  18.695  0.1238  0.0953 -0.2791
 2476DOPG   D2B51574  20.800  19.896  19.114 -0.1214  0.1218 -0.1768
 2476DOPG   C3B51575  21.012  20.149  19.471  0.0259 -0.1057 -0.0642
 2476DOPG   C4B51576  21.252  20.401  19.470  0.1045 -0.0539  0.0712
 2477DOPG   GL051577   4.447  19.401  17.682 -0.1642  0.2343  0.0567
 2477DOPG   PO451578   4.664  19.791  17.860  0.1922  0.5200  0.3895
 2477DOPG   GL151579   5.093  19.702  17.962  0.1387 -0.0800  0.2955
 2477DOPG   GL251580   5.360  19.836  17.793  0.0567  0.1100 -0.1217
 2477DOPG   C1A51581   5.348  19.729  18.406  0.0526 -0.0544  0.1045
 2477DOPG   D2A51582   5.406  19.585  18.817 -0.1570 -0.0461  0.0740
 2477DOPG   C3A51583   5.246  19.343  19.024 -0.2640  0.0701 -0.2146
 2477DOPG   C4A51584   5.289  19.081  19.445 -0.1938  0.3635 -0.3185
 2477DOPG   C1B51585   5.671  19.857  18.045  0.2587  0.1357 -0.2154
 2477DOPG   D2B51586   6.086  19.815  18.090 -0.0804 -0.3489  0.4496
 2477DOPG   C3B51587   6.225  19.577  18.444 -0.3995 -0.0253  0.1336
 2477DOPG   C4B51588   6.042  19.537  18.846 -0.0107 -0.3349 -0.0157
 2478DOPG   GL051589  10.240  20.357  18.023 -0.1699 -0.1480  0.0087
 2478DOPG   PO451590  10.552  20.357  18.273  0.3103 -0.0378 -0.0779
 2478DOPG   GL151591  10.427  20.316  18.774  0.1450  0.1485 -0.1444
 2478DOPG   GL251592  10.373  20.671  18.916  0.0509  0.3063  0.1664
 2478DOPG   C1A51593  10.537  20.173  19.151 -0.2068  0.0250  0.0408
 2478DOPG   D2A51594  10.797  19.943  19.496 -0.3065 -0.1021  0.0635
 2478DOPG   C3A51595  10.929  19.591  19.859  0.2598 -0.0043 -0.1581
 2478DOPG   C4A51596  10.778  19.165  20.035  0.0774  0.1864 -0.3220
 2478DOPG   C1B51597  10.138  20.488  19.266  0.1576 -0.0969  0.0196
 2478DOPG   D2B51598   9.998  20.591  19.695 -0.1664 -0.2780 -0.0784
 2478DOPG   C3B51599   9.668  20.781  19.590 -0.1717 -0.1952  0.0640
 2478DOPG   C4B51600   9.183  20.596  19.628  0.0781  0.2007  0.0300
 2479DOPG   GL051601  11.735  15.522  20.275  0.2429  0.0195  0.2326
 2479DOPG   PO451602  11.614  15.083  20.221  0.4512 -0.0077 -0.2787
 2479DOPG   GL151603  11.444  14.807  20.609  0.1512  0.3652 -0.3302
 2479DOPG   GL251604  11.620  15.025  20.878 -0.0657 -0.0432  0.3845
 2479DOPG   C1A51605  11.310  14.734  21.089 -0.0312 -0.3929 -0.2704
 2479DOPG   D2A51606  11.182  14.627  21.455  0.0316 -0.1815 -0.0517
 2479DOPG   C3A51607  11.435  14.496  21.883 -0.3880 -0.0997 -0.0091
 2479DOPG   C4A51608  11.907  14.570  22.093 -0.0051 -0.4566 -0.0486
 2479DOPG   C1B51609  12.070  15.069  21.047  0.0923  0.1435  0.4141
 2479DOPG   D2B51610  12.024  15.335  21.376 -0.0379 -0.2437  0.3496
 2479DOPG   C3B51611  12.041  15.776  21.343  0.0703 -0.0629 -0.2750
 2479DOPG   C4B51612  12.230  16.079  21.512 -0.1271 -0.0876 -0.1616
 2480DOPG   GL051613  14.374  15.449  19.501  0.1130 -0.1304  0.0082
 2480DOPG   PO451614  14.672  15.111  19.703  0.2867  0.1781 -0.2340
 2480DOPG   GL151615  14.834  14.817  19.389  0.3053 -0.0799 -0.1150
 2480DOPG   GL251616  14.977  14.601  19.477  0.0691 -0.0311  0.0081
 2480DOPG   C1A51617  14.635  14.917  19.030 -0.3071  0.0664 -0.2337
 2480DOPG   D2A51618  14.595  14.670  18.723  0.3272 -0.3887  0.1206
 2480DOPG   C3A51619  15.002  14.512  18.418 -0.0686  0.0541 -0.0772
 2480DOPG   C4A51620  15.287  14.707  18.198  0.0020  0.1512 -0.1468
 2480DOPG   C1B51621  14.749  14.347  19.167  0.3050 -0.0232  0.1680
 2480DOPG   D2B51622  14.575  13.939  19.032  0.0067  0.3657  0.0509
 2480DOPG   C3B51623  14.621  13.616  18.783 -0.0360  0.0969 -0.2319
 2480DOPG   C4B51624  14.847  13.266  18.706 -0.1437 -0.1362  0.3754
 2481DOPG   GL051625  15.111  15.502  20.971  0.0186  0.0519  0.1327
 2481DOPG   PO451626  14.755  15.317  20.687 -0.0756 -0.0403 -0.0737
 2481DOPG   GL151627  14.447  15.408  20.925 -0.0401  0.2713  0.2408
 2481DOPG   GL251628  14.582  15.596  21.134 -0.0474  0.0350 -0.0039
 2481DOPG   C1A51629  14.175  15.187  21.290  0.2569 -0.4138  0.3083
 2481DOPG   D2A51630  13.926  15.042  21.648 -0.3035  0.5046 -0.2120
 2481DOPG   C3A51631  13.827  15.316  21.916  0.1654  0.0938 -0.0474
 2481DOPG   C4A51632  13.394  15.238  22.133 -0.1158 -0.0096 -0.4412
 2481DOPG   C1B51633  14.610  15.469  21.586 -0.4016 -0.1077  0.1821
 2481DOPG   D2B51634  14.833  15.229  21.807 -0.0229 -0.1167 -0.1614
 2481DOPG   C3B51635  14.721  15.020  22.156  0.1525  0.0187  0.0570
 2481DOPG   C4B51636  14.835  14.815  22.467 -0.1083  0.3149  0.0287
 2482DOPG   GL051637   9.667  18.740  18.222  0.3850 -0.0988  0.0437
 2482DOPG   PO451638   9.321  18.741  18.484 -0.1900 -0.1644 -0.2333
 2482DOPG   GL151639   9.585  18.784  18.793 -0.1652 -0.0440 -0.1577
 2482DOPG   GL251640   9.673  18.458  18.953  0.2661  0.0961  0.1772
 2482DOPG   C1A51641   9.838  18.908  19.189 -0.1462  0.1199 -0.1144
 2482DOPG   D2A51642   9.661  19.023  19.568 -0.1414  0.1396 -0.3001
 2482DOPG   C3A51643   9.242  18.830  19.743 -0.2041 -0.2857 -0.1215
 2482DOPG   C4A51644   8.944  18.536  19.913  0.1906 -0.0476  0.1244
 2482DOPG   C1B51645   9.846  18.428  19.308 -0.0327 -0.0953 -0.0984
 2482DOPG   D2B51646  10.041  18.276  19.708 -0.1226 -0.1344 -0.3989
 2482DOPG   C3B51647   9.975  17.905  19.735 -0.3271  0.0654 -0.1596
 2482DOPG   C4B51648  10.016  17.539  19.540  0.1331  0.3778  0.1389
 2483DOPG   GL051649   9.276  16.423  18.301 -0.2375  0.0815  0.0716
 2483DOPG   PO451650   9.206  15.959  18.155 -0.0341 -0.4640 -0.1313
 2483DOPG   GL151651   8.950  16.006  18.500 -0.0635  0.0953 -0.0556
 2483DOPG   GL251652   8.747  16.136  18.433  0.0817  0.0470  0.0909
 2483DOPG   C1A51653   8.786  16.191  18.980  0.1510  0.2127  0.0570
 2483DOPG   D2A51654   8.621  16.153  19.365 -0.0467 -0.0297 -0.2350
 2483DOPG   C3A51655   8.282  16.262  19.409 -0.1055 -0.2409  0.0102
 2483DOPG   C4A51656   8.026  16.695  19.281  0.1246  0.1085 -0.2123
 2483DOPG   C1B51657   8.468  16.343  18.678  0.0115  0.1125  0.1988
 2483DOPG   D2B51658   8.138  16.382  18.935 -0.0375  0.2300 -0.0315
 2483DOPG   C3B51659   7.735  16.211  18.750  0.0293  0.0870  0.0043
 2483DOPG   C4B51660   7.421  16.387  18.470 -0.0392 -0.0765 -0.0222
 2484DOPG   GL051661  22.806  19.754  17.164  0.4099 -0.2334  0.2350
 2484DOPG   PO451662  23.169  19.999  17.227  0.1255  0.1014 -0.0157
 2484DOPG   GL151663  23.271  20.350  16.995 -0.0722 -0.2487  0.1145
 2484DOPG   GL251664  23.342  20.586  17.143  0.0794 -0.2121 -0.0645
 2484DOPG   C1A51665  23.362  20.471  16.607 -0.2171 -0.0566  0.1138
 2484DOPG   D2A51666  23.516  20.679  16.252 -0.0205 -0.3052  0.0876
 2484DOPG   C3A51667  23.231  20.949  15.951 -0.7138  0.0810  0.1459
 2484DOPG   C4A51668  23.268  21.423  15.896  0.1037  0.0655 -0.0258
 2484DOPG   C1B51669  23.791  20.499  16.940  0.0620 -0.0620  0.0060
 2484DOPG   D2B51670  24.188  20.591  17.014 -0.4514 -0.2139  0.1518
 2484DOPG   C3B51671  24.309  20.844  16.788  0.0884 -0.0519  0.0097
 2484DOPG   C4B51672  24.598  21.166  16.599 -0.1510 -0.0765 -0.0784
 2485DOPG   GL051673   7.627  24.748  17.200 -0.1595  0.1520  0.0586
 2485DOPG   PO451674   7.851  24.914  16.791 -0.1618  0.0706  0.2292
 2485DOPG   GL151675   7.610  24.541  16.769 -0.0698  0.1649  0.2483
 2485DOPG   GL251676   7.306  24.532  16.765  0.4918 -0.1984 -0.0319
 2485DOPG   C1A51677   7.432  24.022  16.666  0.2106  0.1914  0.0818
 2485DOPG   D2A51678   7.697  23.688  16.763  0.0392 -0.1189 -0.1013
 2485DOPG   C3A51679   8.057  23.727  16.839 -0.1127 -0.1946  0.1307
 2485DOPG   C4A51680   8.235  23.804  17.209  0.1903  0.2421  0.2963
 2485DOPG   C1B51681   7.423  24.246  17.141 -0.1233 -0.2296  0.2320
 2485DOPG   D2B51682   7.627  23.836  17.230  0.1204  0.1976  0.2844
 2485DOPG   C3B51683   7.842  23.631  17.532 -0.2511 -0.0787 -0.0295
 2485DOPG   C4B51684   7.883  23.471  17.937  0.1547  0.3553  0.1129
 2486DOPG   GL051685  15.202  21.174  17.533 -0.1002 -0.2029 -0.0058
 2486DOPG   PO451686  14.801  21.138  17.553 -0.0387 -0.0892  0.1097
 2486DOPG   GL151687  14.805  21.591  17.514  0.0182  0.0564 -0.2599
 2486DOPG   GL251688  15.097  21.688  17.464  0.2593  0.2579 -0.1867
 2486DOPG   C1A51689  14.791  21.849  17.857  0.0674  0.0723  0.1420
 2486DOPG   D2A51690  14.797  22.074  18.230 -0.4438  0.4447 -0.0009
 2486DOPG   C3A51691  15.037  22.092  18.637 -0.1663 -0.0019  0.0617
 2486DOPG   C4A51692  15.409  22.282  18.711 -0.0429  0.0007  0.0248
 2486DOPG   C1B51693  15.256  21.982  17.642  0.1930 -0.4012 -0.1569
 2486DOPG   D2B51694  15.092  22.292  17.852 -0.1927  0.1312  0.1116
 2486DOPG   C3B51695  15.366  22.520  17.938  0.0947 -0.1588 -0.0038
 2486DOPG   C4B51696  15.663  22.419  18.219  0.0771  0.2770 -0.1382
 2487DOPG   GL051697  17.141  17.531  14.756 -0.0194  0.1937 -0.1437
 2487DOPG   PO451698  17.535  17.440  14.852  0.1884  0.0355  0.1326
 2487DOPG   GL151699  17.584  17.706  15.122  0.4263 -0.2582  0.3341
 2487DOPG   GL251700  17.878  17.616  15.251 -0.0719  0.2602  0.1699
 2487DOPG   C1A51701  17.553  17.860  15.541  0.2751 -0.1106 -0.2295
 2487DOPG   D2A51702  17.835  17.815  15.874  0.1402  0.0694  0.0925
 2487DOPG   C3A51703  17.923  18.017  16.246 -0.1356  0.2429 -0.1291
 2487DOPG   C4A51704  18.265  18.235  16.356  0.2583  0.1478  0.1453
 2487DOPG   C1B51705  17.642  17.400  15.616  0.0270  0.3577  0.1120
 2487DOPG   D2B51706  17.683  17.157  15.915  0.1695  0.0075 -0.5715
 2487DOPG   C3B51707  17.411  17.081  16.257  0.0114  0.0722  0.0415
 2487DOPG   C4B51708  17.364  17.289  16.555  0.0367  0.1275 -0.1630
 2488DOPG   GL051709  17.821  18.628  19.519 -0.0441 -0.1528  0.0612
 2488DOPG   PO451710  17.617  18.810  19.098 -0.1048  0.2193 -0.1410
 2488DOPG   GL151711  18.084  18.650  19.008  0.0432 -0.1824  0.0947
 2488DOPG   GL251712  18.240  18.867  19.181 -0.2174  0.2594  0.2059
 2488DOPG   C1A51713  18.535  18.537  18.992 -0.3328  0.0247 -0.0212
 2488DOPG   D2A51714  18.937  18.372  19.287  0.3613 -0.2688 -0.1063
 2488DOPG   C3A51715  19.273  18.616  19.224  0.3417 -0.0416 -0.1897
 2488DOPG   C4A51716  19.544  18.785  19.346 -0.2035  0.0838  0.1390
 2488DOPG   C1B51717  18.690  18.972  19.184  0.0598 -0.0203  0.0087
 2488DOPG   D2B51718  19.099  19.002  18.918  0.2096  0.0590  0.0628
 2488DOPG   C3B51719  19.380  19.234  19.140 -0.2099 -0.0982 -0.3021
 2488DOPG   C4B51720  19.528  19.605  19.045 -0.0007 -0.2370  0.1165
 2489DOPG   GL051721  22.687  15.772  18.866 -0.1820 -0.0206 -0.2350
 2489DOPG   PO451722  22.581  15.958  19.236 -0.1392  0.0115 -0.6466
 2489DOPG   GL151723  22.455  15.568  19.405  0.0100 -0.1224  0.0864
 2489DOPG   GL251724  22.332  15.751  19.594 -0.1676  0.1517  0.0311
 2489DOPG   C1A51725  22.788  15.311  19.622  0.1101 -0.3041 -0.0055
 2489DOPG   D2A51726  22.898  15.298  20.031  0.1940  0.0764 -0.2418
 2489DOPG   C3A51727  22.829  14.962  20.367 -0.2366 -0.0143 -0.1418
 2489DOPG   C4A51728  22.782  14.497  20.325 -0.1597 -0.0226  0.0664
 2489DOPG   C1B51729  22.108  15.904  19.966  0.1044 -0.1373  0.0465
 2489DOPG   D2B51730  21.938  16.121  20.385  0.0425  0.0023  0.1718
 2489DOPG   C3B51731  22.258  16.202  20.686  0.0084 -0.3459 -0.1918
 2489DOPG   C4B51732  22.480  16.282  21.155  0.0554 -0.2751  0.3513
 2490DOPG   GL051733  18.642  13.059  18.285 -0.0016 -0.3006 -0.1209
 2490DOPG   PO451734  18.836  13.388  17.976 -0.0500 -0.1346  0.2046
 2490DOPG   GL151735  19.090  13.369  18.221 -0.3479  0.0396  0.0175
 2490DOPG   GL251736  19.234  13.651  18.499  0.3436  0.3043  0.3409
 2490DOPG   C1A51737  19.576  13.260  18.227 -0.2517 -0.1809 -0.1891
 2490DOPG   D2A51738  19.707  12.896  18.268 -0.0101 -0.0479 -0.1450
 2490DOPG   C3A51739  20.203  12.902  18.068  0.2086 -0.0135  0.0475
 2490DOPG   C4A51740  20.499  12.742  17.685 -0.2562 -0.2172 -0.1123
 2490DOPG   C1B51741  19.653  13.509  18.727  0.2027  0.3500 -0.1054
 2490DOPG   D2B51742  19.983  13.634  18.992 -0.0046  0.0522 -0.0928
 2490DOPG   C3B51743  20.326  13.375  18.954  0.5645 -0.2432  0.0577
 2490DOPG   C4B51744  20.477  13.287  18.515  0.2147 -0.2763  0.1289
 2491DOPG   GL051745  20.489  15.786  19.142 -0.2938  0.2044 -0.0103
 2491DOPG   PO451746  20.733  16.121  19.341  0.0162 -0.0896  0.3456
 2491DOPG   GL151747  20.669  16.457  19.512  0.0080 -0.3507 -0.0014
 2491DOPG   GL251748  20.548  16.359  19.826 -0.1266  0.3244  0.3956
 2491DOPG   C1A51749  20.615  16.908  19.785  0.3241  0.2074 -0.0565
 2491DOPG   D2A51750  20.670  17.154  20.178  0.0459 -0.2417 -0.0956
 2491DOPG   C3A51751  20.897  17.567  20.198 -0.1759 -0.2001  0.1378
 2491DOPG   C4A51752  20.991  17.973  20.211 -0.0795  0.0429 -0.1345
 2491DOPG   C1B51753  20.931  16.643  20.054  0.1793  0.0791 -0.0690
 2491DOPG   D2B51754  20.918  16.846  20.496  0.1364  0.0638  0.3601
 2491DOPG   C3B51755  21.022  17.270  20.583  0.1053 -0.0439 -0.0923
 2491DOPG   C4B51756  21.089  17.393  20.970 -0.2598  0.6186 -0.1243
 2492DOPG   GL051757  12.444  20.546  19.173  0.0272  0.1266  0.4711
 2492DOPG   PO451758  12.181  20.196  19.024  0.1400 -0.0792  0.0241
 2492DOPG   GL151759  11.981  20.134  19.483  0.0509 -0.0621 -0.2244
 2492DOPG   GL251760  11.658  20.224  19.481  0.1521 -0.3047  0.0898
 2492DOPG   C1A51761  11.983  20.361  19.848 -0.0867 -0.0318  0.0007
 2492DOPG   D2A51762  12.070  20.479  20.260  0.2278  0.2401 -0.1507
 2492DOPG   C3A51763  11.681  20.291  20.473  0.2404 -0.2935  0.1718
 2492DOPG   C4A51764  11.681  20.330  20.945  0.0660 -0.1332 -0.2804
 2492DOPG   C1B51765  11.567  20.132  19.938 -0.4158  0.1337  0.0296
 2492DOPG   D2B51766  11.300  19.822  20.222  0.0541 -0.1446 -0.0596
 2492DOPG   C3B51767  10.866  19.913  20.445 -0.0614 -0.0664  0.1197
 2492DOPG   C4B51768  10.751  20.271  20.650  0.1623 -0.0249  0.0926
 2493DOPG   GL051769  21.717  15.546  18.687 -0.0030 -0.1088 -0.1390
 2493DOPG   PO451770  22.080  15.338  18.520 -0.2339 -0.2526  0.1201
 2493DOPG   GL151771  22.184  14.908  18.595  0.1233  0.2853  0.1119
 2493DOPG   GL251772  22.337  14.775  18.894 -0.0894 -0.0177 -0.0135
 2493DOPG   C1A51773  21.935  14.604  18.480  0.1622 -0.2720  0.0780
 2493DOPG   D2A51774  21.613  14.349  18.222 -0.2676 -0.0252  0.3323
 2493DOPG   C3A51775  21.811  13.972  18.215 -0.0233 -0.1867  0.1864
 2493DOPG   C4A51776  21.806  13.553  18.315 -0.1249  0.2679 -0.0976
 2493DOPG   C1B51777  22.452  14.452  19.074  0.3283  0.3367  0.3847
 2493DOPG   D2B51778  22.416  14.037  18.928  0.3078  0.0046 -0.0865
 2493DOPG   C3B51779  22.235  13.805  19.230 -0.1035  0.1281  0.0147
 2493DOPG   C4B51780  21.876  13.739  19.447 -0.0413  0.1644 -0.0351
 2494DOPG   GL051781  10.662  10.598  18.788  0.2283 -0.1347  0.1228
 2494DOPG   PO451782  11.073  10.734  18.790  0.3876  0.0628 -0.0167
 2494DOPG   GL151783  10.965  10.419  19.118  0.1485  0.0015  0.4180
 2494DOPG   GL251784  10.682  10.394  19.307 -0.1032 -0.0631 -0.1009
 2494DOPG   C1A51785  10.991  10.077  19.528  0.3682 -0.0225 -0.1785
 2494DOPG   D2A51786  10.988   9.770  19.860  0.0307 -0.2309  0.0947
 2494DOPG   C3A51787  11.006   9.959  20.325 -0.0684  0.1021 -0.1921
 2494DOPG   C4A51788  10.947  10.083  20.729  0.0676  0.0009 -0.3246
 2494DOPG   C1B51789  10.327  10.190  19.510  0.0980  0.3875  0.1122
 2494DOPG   D2B51790   9.864  10.274  19.500 -0.0414 -0.1131  0.0076
 2494DOPG   C3B51791   9.627  10.524  19.809 -0.0548 -0.0374  0.1327
 2494DOPG   C4B51792   9.795  10.719  20.172 -0.0407 -0.0223  0.0816
 2495DOPG   GL051793  12.121  14.073  19.583 -0.1384 -0.1361 -0.2930
 2495DOPG   PO451794  11.934  13.780  19.658 -0.0221 -0.0724  0.2615
 2495DOPG   GL151795  11.836  13.319  19.687 -0.0805  0.2735  0.2014
 2495DOPG   GL251796  11.970  13.287  19.959  0.1457 -0.0182  0.0285
 2495DOPG   C1A51797  11.724  12.888  19.841 -0.1265 -0.1116 -0.0191
 2495DOPG   D2A51798  11.328  12.880  20.075  0.1144 -0.3619 -0.0250
 2495DOPG   C3A51799  10.998  12.729  20.345 -0.2336 -0.2527 -0.0144
 2495DOPG   C4A51800  10.869  12.345  20.220 -0.2345 -0.1233 -0.0408
 2495DOPG   C1B51801  12.314  13.040  19.876  0.0926 -0.0823  0.0408
 2495DOPG   D2B51802  12.557  12.919  20.219  0.1729 -0.0006  0.2543
 2495DOPG   C3B51803  12.373  12.828  20.749 -0.2731 -0.0219  0.0198
 2495DOPG   C4B51804  12.361  12.647  21.196 -0.0162  0.2831 -0.0798
 2496DOPG   GL051805  16.537  19.590  19.197  0.0564  0.0163 -0.1178
 2496DOPG   PO451806  16.329  19.908  19.509 -0.0860  0.0647 -0.0835
 2496DOPG   GL151807  16.694  20.138  19.736  0.1028  0.4161  0.0627
 2496DOPG   GL251808  16.933  20.376  19.520 -0.1548 -0.4380 -0.0468
 2496DOPG   C1A51809  16.700  20.356  20.183 -0.1110  0.3409 -0.2062
 2496DOPG   D2A51810  16.523  20.682  20.349  0.4766 -0.0362 -0.1239
 2496DOPG   C3A51811  16.527  21.001  20.626 -0.2442  0.1481  0.2846
 2496DOPG   C4A51812  16.239  21.253  20.646  0.3217 -0.2102  0.1513
 2496DOPG   C1B51813  16.781  20.704  19.836 -0.0715  0.2253  0.4322
 2496DOPG   D2B51814  16.516  21.134  20.054  0.2770 -0.0745  0.0749
 2496DOPG   C3B51815  16.933  21.532  20.053  0.0379  0.0047 -0.2398
 2496DOPG   C4B51816  17.387  21.549  20.074  0.2141  0.0868  0.0386
 2497DOPG   GL051817   9.671  11.744  17.711 -0.5430 -0.2008 -0.0827
 2497DOPG   PO451818   9.275  11.905  17.585 -0.0778  0.0244  0.0904
 2497DOPG   GL151819   9.019  11.598  17.771 -0.0687  0.2578 -0.1855
 2497DOPG   GL251820   9.274  11.307  17.831  0.0952  0.3472 -0.0562
 2497DOPG   C1A51821   8.582  11.388  17.887 -0.0705  0.2796  0.2984
 2497DOPG   D2A51822   8.391  10.888  17.957 -0.2000 -0.1827  0.0853
 2497DOPG   C3A51823   7.908  10.701  17.910  0.2115  0.1462  0.2244
 2497DOPG   C4A51824   7.675  10.267  17.999 -0.2591  0.2080 -0.1759
 2497DOPG   C1B51825   8.932  11.071  17.603  0.0204 -0.0866  0.0156
 2497DOPG   D2B51826   8.533  11.116  17.467 -0.3202  0.0377  0.2384
 2497DOPG   C3B51827   8.433  10.908  17.143  0.1891  0.0839 -0.0858
 2497DOPG   C4B51828   8.475  10.440  16.997  0.0259  0.3130 -0.2676
 2498DOPG   GL051829  22.208  15.710  18.920  0.1083  0.2582 -0.1837
 2498DOPG   PO451830  21.860  15.551  19.211  0.1148 -0.0245 -0.0825
 2498DOPG   GL151831  21.772  15.623  19.577  0.1502  0.2147  0.0954
 2498DOPG   GL251832  21.480  15.447  19.658 -0.3738  0.1417  0.2275
 2498DOPG   C1A51833  21.817  15.297  19.964 -0.1823  0.0829  0.0791
 2498DOPG   D2A51834  21.945  15.088  20.373 -0.2868  0.0345 -0.0010
 2498DOPG   C3A51835  22.313  15.083  20.579  0.0323  0.1104 -0.0213
 2498DOPG   C4A51836  22.303  15.415  21.007  0.0037  0.1428  0.1566
 2498DOPG   C1B51837  21.346  15.161  20.074  0.2471 -0.1312 -0.1400
 2498DOPG   D2B51838  21.053  15.176  20.488  0.0642 -0.0519  0.0882
 2498DOPG   C3B51839  20.837  14.803  20.580  0.1812  0.0178  0.1295
 2498DOPG   C4B51840  20.676  14.431  20.774  0.1283  0.0002  0.0702
 2499DOPG   GL051841  10.498  15.583  19.333  0.0032 -0.0735  0.0655
 2499DOPG   PO451842  10.350  15.195  19.294 -0.0739  0.0384  0.0358
 2499DOPG   GL151843  10.169  15.336  19.688 -0.0406  0.1824 -0.2072
 2499DOPG   GL251844  10.079  15.664  19.566  0.0928 -0.3205  0.0593
 2499DOPG   C1A51845  10.474  15.460  20.089 -0.1789 -0.0119  0.3269
 2499DOPG   D2A51846  10.423  15.340  20.532 -0.1080  0.0395  0.0529
 2499DOPG   C3A51847  10.617  15.063  20.775 -0.2078  0.1369  0.0824
 2499DOPG   C4A51848  10.926  14.708  20.587 -0.1484 -0.1910  0.1556
 2499DOPG   C1B51849  10.429  15.847  19.761  0.2952 -0.0184 -0.0915
 2499DOPG   D2B51850  10.328  15.972  20.264  0.1251 -0.0347 -0.0539
 2499DOPG   C3B51851   9.972  16.024  20.414  0.0637  0.0614 -0.2464
 2499DOPG   C4B51852   9.738  16.261  20.668 -0.2317  0.1594 -0.0200
 2500DOPG   GL051853   8.483  25.223  16.079  0.2063 -0.0070 -0.0532
 2500DOPG   PO451854   8.357  25.097  15.738  0.1321  0.0709  0.3068
 2500DOPG   GL151855   8.647  24.757  15.698 -0.3079  0.0022 -0.0787
 2500DOPG   GL251856   8.666  24.666  15.396 -0.1850  0.0298 -0.0490
 2500DOPG   C1A51857   8.648  24.370  15.989 -0.1190  0.2124  0.1840
 2500DOPG   D2A51858   8.526  24.045  16.331 -0.0333 -0.1442 -0.1400
 2500DOPG   C3A51859   8.304  23.611  16.392  0.2225 -0.0067 -0.0585
 2500DOPG   C4A51860   8.351  23.360  16.757 -0.0138 -0.0109  0.2168
 2500DOPG   C1B51861   8.910  24.301  15.581  0.0378 -0.0685  0.1081
 2500DOPG   D2B51862   8.871  23.825  15.630 -0.1424  0.2325  0.0713
 2500DOPG   C3B51863   8.898  23.740  16.049  0.0777 -0.4493  0.0858
 2500DOPG   C4B51864   9.107  23.396  16.135 -0.1394 -0.2785  0.1382
 2501DOPG   GL051865  12.915  16.343  20.353 -0.1171 -0.0465 -0.1438
 2501DOPG   PO451866  12.645  16.521  20.080 -0.0868  0.3445  0.1595
 2501DOPG   GL151867  12.379  16.688  20.388 -0.0241 -0.0685  0.2801
 2501DOPG   GL251868  12.356  17.065  20.363  0.0873 -0.2672  0.0049
 2501DOPG   C1A51869  11.963  16.758  20.454  0.1651  0.3127 -0.0007
 2501DOPG   D2A51870  11.893  17.186  20.566 -0.0620 -0.1727 -0.0245
 2501DOPG   C3A51871  11.560  17.148  20.731 -0.0818  0.2549 -0.0737
 2501DOPG   C4A51872  11.219  17.041  21.064 -0.2562  0.0134  0.1864
 2501DOPG   C1B51873  12.396  17.320  20.703 -0.0099  0.0285 -0.1559
 2501DOPG   D2B51874  12.042  17.376  21.036 -0.2650 -0.0590  0.2616
 2501DOPG   C3B51875  12.399  17.451  21.415 -0.1733 -0.0389  0.2091
 2501DOPG   C4B51876  12.493  17.111  21.735  0.0714 -0.3959  0.0025
 2502DOPG   GL051877  14.332  18.553  18.987 -0.2077  0.1862 -0.0187
 2502DOPG   PO451878  14.012  18.365  18.830  0.2183  0.0340  0.4547
 2502DOPG   GL151879  14.041  18.115  18.530  0.0305 -0.2571 -0.2898
 2502DOPG   GL251880  14.065  17.929  18.281 -0.2975 -0.0286 -0.0357
 2502DOPG   C1A51881  13.562  18.087  18.409 -0.2361  0.0944  0.0460
 2502DOPG   D2A51882  13.282  17.981  18.153 -0.2361 -0.0621 -0.0801
 2502DOPG   C3A51883  12.830  18.081  18.434  0.2011 -0.0560  0.0304
 2502DOPG   C4A51884  12.666  17.968  18.887  0.3628  0.2197  0.4627
 2502DOPG   C1B51885  13.766  17.763  18.066  0.0514  0.3891 -0.1432
 2502DOPG   D2B51886  13.487  17.704  17.735  0.1094 -0.0857 -0.2999
 2502DOPG   C3B51887  13.420  17.486  17.345 -0.0955 -0.0304  0.2319
 2502DOPG   C4B51888  13.072  17.497  17.250 -0.1147 -0.2836  0.0585
 2503DOPG   GL051889   8.265  21.319  17.376  0.1336  0.0782 -0.1015
 2503DOPG   PO451890   8.030  21.589  17.140 -0.1334 -0.0383  0.0351
 2503DOPG   GL151891   8.039  21.794  17.500  0.2027 -0.0292  0.1197
 2503DOPG   GL251892   8.235  21.628  17.737  0.1438  0.0131 -0.1993
 2503DOPG   C1A51893   8.041  21.999  17.941  0.1418 -0.1347 -0.0212
 2503DOPG   D2A51894   7.916  22.412  18.062  0.2276 -0.1209 -0.1276
 2503DOPG   C3A51895   7.991  22.399  18.555 -0.0969 -0.2659  0.2382
 2503DOPG   C4A51896   8.000  22.513  18.965  0.3235 -0.0454  0.1631
 2503DOPG   C1B51897   8.529  21.816  17.893 -0.0129 -0.0551 -0.0804
 2503DOPG   D2B51898   8.565  22.144  18.223 -0.2756 -0.1243 -0.1942
 2503DOPG   C3B51899   8.445  22.556  18.077  0.0223 -0.0994 -0.0352
 2503DOPG   C4B51900   8.635  22.956  18.047  0.2271 -0.2357  0.2240
 2504DOPG   GL051901  14.565  20.978  17.092  0.0057 -0.0438 -0.0252
 2504DOPG   PO451902  15.038  21.000  16.950  0.0567  0.2539 -0.2603
 2504DOPG   GL151903  14.896  21.403  16.935 -0.0023 -0.0133 -0.0122
 2504DOPG   GL251904  14.782  21.392  16.714 -0.2381  0.1872  0.0011
 2504DOPG   C1A51905  14.774  21.897  17.002 -0.1400 -0.0843 -0.1289
 2504DOPG   D2A51906  14.824  22.252  16.883 -0.2027 -0.0681 -0.1560
 2504DOPG   C3A51907  15.081  22.445  17.206 -0.0988  0.1485  0.1406
 2504DOPG   C4A51908  14.858  22.651  17.377 -0.0022  0.3689 -0.0032
 2504DOPG   C1B51909  14.659  21.770  16.556  0.2033 -0.0267  0.3471
 2504DOPG   D2B51910  14.357  22.120  16.733  0.0916 -0.2038  0.1709
 2504DOPG   C3B51911  14.350  22.440  17.039  0.1247 -0.1415 -0.0780
 2504DOPG   C4B51912  14.402  22.860  17.220  0.0854  0.1094 -0.0268
 2505DOPG   GL051913  15.907  19.183  18.879  0.0836 -0.1809  0.3728
 2505DOPG   PO451914  16.198  19.530  18.770 -0.1645  0.1496 -0.1335
 2505DOPG   GL151915  16.198  19.546  18.433 -0.3586 -0.4948  0.3772
 2505DOPG   GL251916  16.452  19.438  18.254  0.1045  0.1396 -0.3286
 2505DOPG   C1A51917  16.092  19.606  17.920  0.0782 -0.0581  0.0929
 2505DOPG   D2A51918  16.056  19.620  17.534 -0.0385 -0.0105 -0.0343
 2505DOPG   C3A51919  16.018  19.232  17.232  0.0354 -0.2319  0.3564
 2505DOPG   C4A51920  16.215  18.877  16.948 -0.1372 -0.0189 -0.0206
 2505DOPG   C1B51921  16.144  19.117  18.245 -0.1042  0.2938  0.2547
 2505DOPG   D2B51922  15.743  19.122  18.287 -0.1532 -0.1549  0.0043
 2505DOPG   C3B51923  15.680  19.474  18.162  0.0518  0.2518 -0.1291
 2505DOPG   C4B51924  15.513  19.748  17.966  0.0518 -0.1818 -0.2556
 2506DOPG   GL051925  10.078  21.789  16.828  0.1724  0.0875  0.0800
 2506DOPG   PO451926   9.765  21.836  17.185 -0.0023  0.0620 -0.1235
 2506DOPG   GL151927   9.670  22.209  16.945 -0.1795 -0.0842 -0.2598
 2506DOPG   GL251928   9.949  22.551  17.092  0.0139  0.0432 -0.1522
 2506DOPG   C1A51929   9.444  22.583  16.849 -0.6488  0.2837 -0.0306
 2506DOPG   D2A51930   9.652  22.958  16.871  0.4091  0.2218  0.3520
 2506DOPG   C3A51931   9.826  23.316  16.801  0.0912  0.0053 -0.0807
 2506DOPG   C4A51932   9.846  23.682  16.832 -0.1458  0.1801 -0.2079
 2506DOPG   C1B51933  10.037  22.992  17.233  0.0059  0.1670  0.1516
 2506DOPG   D2B51934  10.090  23.384  17.269  0.2489 -0.0201 -0.3242
 2506DOPG   C3B51935  10.307  23.363  16.927  0.1630  0.4608 -0.1262
 2506DOPG   C4B51936  10.200  23.221  16.455  0.3459  0.0578  0.3714
 2507DOPG   GL051937  13.501  13.823  20.309 -0.0673 -0.0186 -0.1471
 2507DOPG   PO451938  13.547  13.375  20.598  0.2137 -0.1772 -0.3134
 2507DOPG   GL151939  13.742  12.937  20.466  0.1163  0.1676  0.0216
 2507DOPG   GL251940  13.657  12.588  20.348  0.2307 -0.0107  0.1851
 2507DOPG   C1A51941  14.065  12.839  20.234 -0.1259 -0.0764  0.3043
 2507DOPG   D2A51942  14.501  12.958  20.080 -0.0661  0.2157  0.0049
 2507DOPG   C3A51943  14.757  13.388  20.135  0.0125 -0.1029 -0.2161
 2507DOPG   C4A51944  15.056  13.637  20.389 -0.2447 -0.3234  0.0147
 2507DOPG   C1B51945  13.477  12.568  20.721 -0.0812  0.2504  0.1890
 2507DOPG   D2B51946  13.277  12.611  21.110  0.0703  0.0581 -0.0609
 2507DOPG   C3B51947  13.313  12.878  21.510 -0.0801 -0.1011 -0.0136
 2507DOPG   C4B51948  13.325  13.254  21.798 -0.2926  0.0924 -0.0026
 2508DOPG   GL051949  17.234  18.775  18.716 -0.1690 -0.3499 -0.0728
 2508DOPG   PO451950  16.863  18.788  18.534  0.3232 -0.2860 -0.1558
 2508DOPG   GL151951  16.935  18.484  18.197 -0.2063  0.0894  0.0577
 2508DOPG   GL251952  17.241  18.400  18.220  0.4378 -0.0431 -0.2148
 2508DOPG   C1A51953  16.649  18.233  17.960 -0.2202  0.0702 -0.0945
 2508DOPG   D2A51954  16.642  17.963  17.546  0.0804  0.0350 -0.3492
 2508DOPG   C3A51955  16.875  17.615  17.503  0.3785 -0.2282 -0.4268
 2508DOPG   C4A51956  17.124  17.616  17.105 -0.0383 -0.0829 -0.2182
 2508DOPG   C1B51957  17.619  18.175  18.079 -0.0053  0.4630  0.3950
 2508DOPG   D2B51958  17.617  17.719  18.017 -0.1522 -0.0419  0.2010
 2508DOPG   C3B51959  17.262  17.460  17.904  0.1099 -0.0139 -0.0468
 2508DOPG   C4B51960  17.149  17.113  18.040  0.6113 -0.1087 -0.2028
 2509DOPG   GL051961  17.784  17.703  19.867  0.1021  0.2734 -0.1763
 2509DOPG   PO451962  17.537  17.833  20.145  0.1774  0.0257  0.2050
 2509DOPG   GL151963  17.531  17.822  20.639 -0.0972  0.1042  0.0062
 2509DOPG   GL251964  17.745  18.118  20.651  0.0376 -0.2778 -0.0686
 2509DOPG   C1A51965  17.722  17.790  21.063  0.1061 -0.4198 -0.0221
 2509DOPG   D2A51966  18.109  17.595  21.033  0.0578  0.3432  0.1831
 2509DOPG   C3A51967  18.532  17.745  20.970 -0.1429 -0.0093 -0.1848
 2509DOPG   C4A51968  18.857  17.532  21.042 -0.0756 -0.0366 -0.0720
 2509DOPG   C1B51969  18.040  18.167  21.012 -0.2512 -0.1104  0.1076
 2509DOPG   D2B51970  18.303  18.076  21.327  0.0820  0.0933  0.0450
 2509DOPG   C3B51971  18.477  18.437  21.455 -0.4828 -0.2848 -0.1882
 2509DOPG   C4B51972  18.580  18.806  21.706  0.0832  0.0817  0.2076
 2510DOPG   GL051973  15.372  17.120  20.176  0.1295 -0.1701  0.2599
 2510DOPG   PO451974  15.303  17.073  20.589 -0.1780  0.3731 -0.1295
 2510DOPG   GL151975  15.453  17.329  20.998 -0.1589 -0.0198 -0.1559
 2510DOPG   GL251976  15.183  17.394  21.245  0.0242  0.1167  0.0792
 2510DOPG   C1A51977  15.769  17.374  21.311 -0.3633  0.1577  0.2974
 2510DOPG   D2A51978  16.262  17.367  21.233  0.0714  0.3336  0.1351
 2510DOPG   C3A51979  16.454  17.496  21.594  0.0522  0.2984 -0.0288
 2510DOPG   C4A51980  16.948  17.339  21.721  0.3928  0.3158 -0.4181
 2510DOPG   C1B51981  14.953  17.204  21.603 -0.0312  0.1052 -0.1536
 2510DOPG   D2B51982  14.632  17.029  21.903 -0.0231  0.0627 -0.2416
 2510DOPG   C3B51983  14.783  17.174  22.368 -0.0278  0.1341  0.2484
 2510DOPG   C4B51984  15.021  17.394  22.654  0.3106  0.1264 -0.0145
 2511DOPG   GL051985  15.901  18.816  19.324  0.2214 -0.0598 -0.0088
 2511DOPG   PO451986  15.689  19.135  19.354  0.1521 -0.0142 -0.3021
 2511DOPG   GL151987  15.736  19.429  19.691 -0.1470 -0.1694 -0.2999
 2511DOPG   GL251988  15.480  19.293  19.900 -0.2059 -0.0219 -0.0982
 2511DOPG   C1A51989  16.034  19.525  20.087  0.0712  0.0380  0.0172
 2511DOPG   D2A51990  16.443  19.872  19.994 -0.0210  0.3177  0.1013
 2511DOPG   C3A51991  16.219  20.284  20.137 -0.0474 -0.1801 -0.0179
 2511DOPG   C4A51992  15.868  20.327  20.448  0.2676  0.0212  0.0504
 2511DOPG   C1B51993  15.366  19.683  20.215  0.0561 -0.0164 -0.0753
 2511DOPG   D2B51994  15.343  19.646  20.677 -0.2732  0.0140 -0.0399
 2511DOPG   C3B51995  15.421  20.051  20.883  0.3020  0.2167  0.0053
 2511DOPG   C4B51996  15.052  20.408  21.051  0.1281 -0.3262  0.2885
 2512DOPG   GL051997  17.796  14.203  19.062 -0.3316 -0.0709 -0.1101
 2512DOPG   PO451998  18.095  13.871  19.289 -0.0915  0.0768 -0.2089
 2512DOPG   GL151999  17.973  13.871  19.711 -0.1288 -0.0016 -0.0237
 2512DOPG   GL252000  18.128  13.981  19.974  0.2138  0.2151 -0.1776
 2512DOPG   C1A52001  18.137  13.491  19.970  0.1050 -0.4250 -0.3682
 2512DOPG   D2A52002  18.065  13.050  19.955 -0.0435 -0.0693  0.0797
 2512DOPG   C3A52003  18.455  12.791  19.921 -0.2560 -0.2249 -0.1431
 2512DOPG   C4A52004  18.842  12.810  20.107 -0.3745  0.0623 -0.3772
 2512DOPG   C1B52005  17.803  14.007  20.340  0.0120  0.1304  0.2105
 2512DOPG   D2B52006  17.751  13.889  20.706  0.2495 -0.2164  0.0628
 2512DOPG   C3B52007  17.658  14.164  21.046  0.2069  0.2229 -0.1163
 2512DOPG   C4B52008  17.744  13.821  21.406 -0.1074  0.0469  0.1080
 2513DOPG   GL052009  20.521  18.479  17.404 -0.3249 -0.0094 -0.0129
 2513DOPG   PO452010  20.979  18.467  17.636 -0.0923 -0.2833  0.2358
 2513DOPG   GL152011  20.938  18.478  18.150 -0.0304 -0.1335  0.1569
 2513DOPG   GL252012  21.243  18.395  18.374 -0.2980 -0.3310 -0.0220
 2513DOPG   C1A52013  20.693  18.414  18.415 -0.0278  0.1268 -0.4347
 2513DOPG   D2A52014  20.442  18.317  18.773 -0.1084 -0.0803 -0.1307
 2513DOPG   C3A52015  20.507  18.710  19.026 -0.2396  0.0550  0.0287
 2513DOPG   C4A52016  20.469  19.109  19.074 -0.0786 -0.0682  0.2796
 2513DOPG   C1B52017  21.324  18.385  18.806  0.0773 -0.1277 -0.0796
 2513DOPG   D2B52018  21.323  18.235  19.284  0.1902  0.4146 -0.4099
 2513DOPG   C3B52019  21.112  18.056  19.516 -0.2086 -0.0040 -0.0637
 2513DOPG   C4B52020  20.777  17.936  19.665 -0.1596 -0.0283  0.0245
 2514DOPG   GL052021  13.180  15.325  19.416 -0.0341  0.1401  0.3617
 2514DOPG   PO452022  13.488  15.748  19.349 -0.1040  0.0740  0.0329
 2514DOPG   GL152023  13.306  15.656  19.015 -0.0946  0.2853 -0.0237
 2514DOPG   GL252024  13.464  15.848  18.796  0.1236  0.0269 -0.0166
 2514DOPG   C1A52025  13.118  15.518  18.665  0.0742  0.1703 -0.0502
 2514DOPG   D2A52026  12.850  15.431  18.361  0.1009  0.2621  0.2332
 2514DOPG   C3A52027  12.856  15.120  18.033  0.0669  0.3530  0.2171
 2514DOPG   C4A52028  12.828  14.701  17.666 -0.0249  0.2981 -0.1518
 2514DOPG   C1B52029  13.682  16.208  18.663  0.2087  0.1063  0.0896
 2514DOPG   D2B52030  13.517  16.636  18.588 -0.1652  0.2768 -0.1828
 2514DOPG   C3B52031  13.039  16.535  18.391 -0.3248  0.1698 -0.2526
 2514DOPG   C4B52032  12.751  16.273  18.201 -0.1027  0.4149 -0.0064
 2515DOPG   GL052033  16.978  12.242  18.790  0.0591 -0.1127 -0.1394
 2515DOPG   PO452034  17.273  12.260  19.062  0.2711 -0.0547 -0.4723
 2515DOPG   GL152035  16.921  12.111  19.338  0.0442  0.0587 -0.1273
 2515DOPG   GL252036  16.702  11.907  19.141  0.1614  0.1605  0.0193
 2515DOPG   C1A52037  16.890  11.949  19.685  0.1964  0.3212 -0.0329
 2515DOPG   D2A52038  16.668  11.635  19.756 -0.0503  0.0964 -0.3705
 2515DOPG   C3A52039  16.438  11.601  19.428  0.4118  0.0676  0.0679
 2515DOPG   C4A52040  16.484  11.425  19.032  0.2455 -0.1773 -0.1365
 2515DOPG   C1B52041  16.958  11.601  19.344 -0.0115 -0.3567 -0.1490
 2515DOPG   D2B52042  16.833  11.265  19.453 -0.1331 -0.0404 -0.1639
 2515DOPG   C3B52043  17.084  11.161  19.704 -0.1475  0.0675  0.0690
 2515DOPG   C4B52044  17.337  10.879  19.878  0.0876 -0.0099  0.0226
 2516DOPG   GL052045  20.189  16.202  19.388  0.2150  0.2942 -0.1638
 2516DOPG   PO452046  20.337  15.773  19.592 -0.1501 -0.1770  0.0523
 2516DOPG   GL152047  20.733  15.878  19.825  0.2120 -0.5408 -0.1292
 2516DOPG   GL252048  20.955  15.694  19.933 -0.3551  0.1446 -0.0848
 2516DOPG   C1A52049  20.913  16.126  20.153 -0.0350  0.0134  0.0290
 2516DOPG   D2A52050  20.749  16.298  20.522 -0.1249 -0.0607  0.3437
 2516DOPG   C3A52051  20.872  16.130  20.884 -0.1924 -0.1569  0.1489
 2516DOPG   C4A52052  20.787  16.032  21.292  0.1643 -0.2565  0.1672
 2516DOPG   C1B52053  21.062  15.664  20.292 -0.2276 -0.0107 -0.0181
 2516DOPG   D2B52054  21.079  15.595  20.709 -0.2755 -0.2548  0.2681
 2516DOPG   C3B52055  21.187  15.234  20.967 -0.3333  0.2525  0.1884
 2516DOPG   C4B52056  21.079  15.312  21.306 -0.0081  0.0203 -0.0302
 2517DOPG   GL052057  14.709  10.981  18.568  0.0218 -0.1027  0.0236
 2517DOPG   PO452058  14.629  10.562  18.407  0.0859  0.5333  0.1984
 2517DOPG   GL152059  14.671  10.431  18.842 -0.1078  0.1688  0.1654
 2517DOPG   GL252060  14.345  10.334  18.733  0.2447 -0.0303 -0.0132
 2517DOPG   C1A52061  14.709  10.210  19.232  0.4297  0.1619  0.0103
 2517DOPG   D2A52062  14.938  10.429  19.597 -0.0217 -0.0671 -0.0425
 2517DOPG   C3A52063  15.219  10.765  19.668  0.1268  0.2317  0.1062
 2517DOPG   C4A52064  15.736  10.894  19.664  0.1322 -0.0364 -0.0781
 2517DOPG   C1B52065  14.274   9.888  19.059 -0.0563 -0.0550  0.2394
 2517DOPG   D2B52066  14.233   9.517  19.200  0.0676  0.1505 -0.1155
 2517DOPG   C3B52067  14.199   9.325  19.595  0.2476 -0.4533  0.1000
 2517DOPG   C4B52068  14.100   9.309  20.026  0.2003  0.1132 -0.0128
 2518DOPG   GL052069   7.860  21.002  17.444  0.4369 -0.1245  0.3336
 2518DOPG   PO452070   7.710  21.394  17.515  0.0787  0.1602 -0.1137
 2518DOPG   GL152071   7.861  21.379  17.870  0.1609 -0.0062  0.1330
 2518DOPG   GL252072   7.636  21.188  17.994  0.1461  0.0049  0.3432
 2518DOPG   C1A52073   7.923  21.389  18.395  0.3308 -0.0966 -0.0796
 2518DOPG   D2A52074   7.852  21.309  18.753  0.1810 -0.0724  0.1278
 2518DOPG   C3A52075   8.120  21.452  19.073  0.5464 -0.0965 -0.0268
 2518DOPG   C4A52076   8.262  21.819  19.309  0.1996 -0.3490  0.0837
 2518DOPG   C1B52077   7.473  21.191  18.355  0.0210 -0.0445  0.1985
 2518DOPG   D2B52078   7.522  20.983  18.783  0.0291  0.2979  0.1248
 2518DOPG   C3B52079   7.636  21.262  19.163 -0.0511 -0.3112  0.3382
 2518DOPG   C4B52080   7.849  21.440  19.522 -0.0526  0.1453  0.1749
 2519DOPG   GL052081  13.271  21.441  18.377  0.0610 -0.1133 -0.2324
 2519DOPG   PO452082  13.184  20.968  18.380 -0.2465  0.1960 -0.0400
 2519DOPG   GL152083  13.054  21.179  18.735  0.1513 -0.0247 -0.0122
 2519DOPG   GL252084  12.868  21.424  18.817 -0.2260 -0.0889 -0.0290
 2519DOPG   C1A52085  13.146  21.246  19.192  0.2122  0.6049  0.2492
 2519DOPG   D2A52086  13.421  21.459  19.450  0.0522  0.1682 -0.0230
 2519DOPG   C3A52087  13.353  21.831  19.872 -0.0980 -0.1873 -0.1409
 2519DOPG   C4A52088  13.399  21.657  20.243 -0.0322 -0.2130 -0.2875
 2519DOPG   C1B52089  13.002  21.728  19.113 -0.1531 -0.3812  0.0245
 2519DOPG   D2B52090  13.261  21.884  19.398  0.0112  0.0190 -0.1283
 2519DOPG   C3B52091  13.386  22.281  19.221 -0.0482 -0.3025 -0.3346
 2519DOPG   C4B52092  13.781  22.587  19.471  0.0160  0.0819  0.0438
 2520DOPG   GL052093  12.213  14.928  19.195 -0.0851  0.6266  0.3273
 2520DOPG   PO452094  12.633  14.938  19.266  0.1037 -0.5548  0.1126
 2520DOPG   GL152095  12.586  14.667  18.925  0.4530 -0.3950 -0.2124
 2520DOPG   GL252096  12.810  14.390  19.030 -0.1103  0.1811 -0.2204
 2520DOPG   C1A52097  12.437  14.479  18.703  0.0065  0.1929  0.1033
 2520DOPG   D2A52098  12.508  14.243  18.457 -0.0604 -0.2748  0.1033
 2520DOPG   C3A52099  12.865  14.033  18.533  0.1218  0.0576 -0.1068
 2520DOPG   C4A52100  13.056  13.589  18.560 -0.1815 -0.2891  0.0892
 2520DOPG   C1B52101  12.955  14.494  18.712 -0.0303  0.5808 -0.1499
 2520DOPG   D2B52102  13.284  14.488  18.447  0.0606 -0.0254  0.3138
 2520DOPG   C3B52103  13.183  14.743  18.029 -0.0761 -0.0697 -0.3628
 2520DOPG   C4B52104  13.186  15.094  17.670  0.1168 -0.3189  0.0366
 2521DOPG   GL052105  12.899  14.682  20.133 -0.0995  0.2400  0.1753
 2521DOPG   PO452106  13.006  14.868  19.601  0.1712 -0.4272 -0.0572
 2521DOPG   GL152107  13.177  14.667  19.237 -0.0180 -0.0745 -0.1285
 2521DOPG   GL252108  13.137  14.991  19.039  0.0688 -0.3501 -0.2418
 2521DOPG   C1A52109  13.437  14.593  18.871  0.1782 -0.1426 -0.2547
 2521DOPG   D2A52110  13.676  14.778  18.697  0.1032  0.1494  0.1791
 2521DOPG   C3A52111  13.661  14.618  18.221  0.2037  0.0052  0.3733
 2521DOPG   C4A52112  13.862  14.491  17.805 -0.1930  0.0559 -0.0608
 2521DOPG   C1B52113  12.967  15.000  18.544  0.1042 -0.0007 -0.0951
 2521DOPG   D2B52114  13.281  15.111  18.298 -0.0669  0.0069  0.3096
 2521DOPG   C3B52115  13.387  15.565  18.210 -0.1816  0.0502  0.2867
 2521DOPG   C4B52116  13.701  15.854  18.320 -0.0100  0.0080 -0.2293
 2522DOPG   GL052117  18.788  14.982  19.569  0.1197  0.2222  0.0749
 2522DOPG   PO452118  18.724  14.682  19.904  0.0106 -0.2938  0.0066
 2522DOPG   GL152119  18.548  14.233  19.841 -0.0500  0.1453 -0.2605
 2522DOPG   GL252120  18.490  13.989  19.599 -0.2358  0.1110 -0.1355
 2522DOPG   C1A52121  18.557  13.721  20.031  0.1023 -0.0056 -0.1478
 2522DOPG   D2A52122  18.706  13.287  20.101  0.0259 -0.0001 -0.0839
 2522DOPG   C3A52123  18.402  13.117  20.375 -0.3545 -0.1519 -0.0955
 2522DOPG   C4A52124  18.398  12.867  20.711 -0.2152 -0.0934  0.0227
 2522DOPG   C1B52125  18.625  13.546  19.568 -0.2298 -0.1167  0.0318
 2522DOPG   D2B52126  18.652  13.121  19.531 -0.0724  0.1244 -0.0558
 2522DOPG   C3B52127  18.893  12.787  19.567 -0.3575  0.0853 -0.0713
 2522DOPG   C4B52128  18.909  12.379  19.391 -0.2556  0.1286 -0.3858
 2523DOPG   GL052129  21.112  19.927  17.622  0.1903  0.1532  0.5124
 2523DOPG   PO452130  20.651  19.784  17.579  0.2180  0.2502 -0.0321
 2523DOPG   GL152131  20.726  19.633  18.023  0.0051  0.3040  0.1733
 2523DOPG   GL252132  20.946  19.705  18.353 -0.0654 -0.1474 -0.2591
 2523DOPG   C1A52133  20.403  19.684  18.370  0.1330 -0.1926  0.0359
 2523DOPG   D2A52134  20.056  19.712  18.659 -0.0110 -0.0528  0.0382
 2523DOPG   C3A52135  19.964  19.782  19.150 -0.2989 -0.2811  0.0277
 2523DOPG   C4A52136  19.681  19.648  19.504  0.1596  0.0355 -0.0222
 2523DOPG   C1B52137  21.156  19.435  18.680  0.1113  0.0321 -0.0642
 2523DOPG   D2B52138  21.103  19.293  19.105  0.4597 -0.0867 -0.0271
 2523DOPG   C3B52139  21.180  19.636  19.415  0.3767 -0.1830  0.1337
 2523DOPG   C4B52140  21.505  19.886  19.501 -0.1581  0.1146  0.5084
 2524DOPG   GL052141   8.871  17.342  18.268  0.0261 -0.0707 -0.0157
 2524DOPG   PO452142   9.125  17.022  18.063 -0.0402 -0.1858  0.2054
 2524DOPG   GL152143   8.831  16.779  18.273 -0.0739 -0.0716  0.1971
 2524DOPG   GL252144   8.647  16.543  18.134 -0.1085  0.2806 -0.0454
 2524DOPG   C1A52145   8.930  16.667  18.728 -0.0823 -0.0166  0.1622
 2524DOPG   D2A52146   8.558  16.625  19.049  0.0121 -0.0102  0.2425
 2524DOPG   C3A52147   8.467  16.996  19.197  0.0846 -0.0641  0.2299
 2524DOPG   C4A52148   8.629  17.333  19.321 -0.0672  0.0616 -0.2213
 2524DOPG   C1B52149   8.256  16.638  18.305 -0.1777  0.0658 -0.1665
 2524DOPG   D2B52150   7.947  16.537  18.442  0.0185 -0.1114 -0.3496
 2524DOPG   C3B52151   7.690  16.779  18.761  0.3921  0.0137 -0.0385
 2524DOPG   C4B52152   7.566  17.147  18.899  0.0285 -0.0325 -0.0211
 2525DOPG   GL052153   9.659  12.252  17.520  0.0152 -0.1093 -0.2362
 2525DOPG   PO452154  10.145  12.397  17.324  0.1098 -0.2658 -0.2594
 2525DOPG   GL152155  10.246  12.858  17.518 -0.1916  0.0599  0.0947
 2525DOPG   GL252156  10.169  12.843  17.824 -0.1539 -0.2200 -0.1573
 2525DOPG   C1A52157  10.576  13.051  17.354 -0.1126  0.2907  0.0075
 2525DOPG   D2A52158  10.744  13.474  17.208  0.0571  0.1424 -0.0970
 2525DOPG   C3A52159  11.156  13.478  17.405  0.2205 -0.1377 -0.1059
 2525DOPG   C4A52160  11.393  13.238  17.389 -0.1286  0.4185  0.1928
 2525DOPG   C1B52161  10.155  12.808  18.278 -0.0797  0.2135 -0.2503
 2525DOPG   D2B52162  10.417  12.917  18.594 -0.1242 -0.2814  0.0421
 2525DOPG   C3B52163  10.506  13.389  18.599  0.0996 -0.0166 -0.1378
 2525DOPG   C4B52164  10.381  13.768  18.540  0.2863  0.0675  0.0878
 2526DOPG   GL052165  12.017  15.893  19.132  0.0391 -0.0085  0.1181
 2526DOPG   PO452166  12.410  15.903  19.404 -0.1303  0.0695 -0.5840
 2526DOPG   GL152167  12.558  15.955  18.955 -0.0505 -0.1642 -0.1668
 2526DOPG   GL252168  12.980  15.983  18.761  0.0518  0.4297  0.1385
 2526DOPG   C1A52169  12.565  15.885  18.462  0.1967 -0.2696 -0.1844
 2526DOPG   D2A52170  12.337  16.021  18.084  0.3333  0.0428  0.0694
 2526DOPG   C3A52171  12.622  15.988  17.769 -0.3659  0.1691  0.0362
 2526DOPG   C4A52172  12.594  15.860  17.402  0.0439  0.3197 -0.1390
 2526DOPG   C1B52173  13.128  15.960  18.372 -0.3526  0.2754 -0.1468
 2526DOPG   D2B52174  13.235  16.234  18.008 -0.0109 -0.0302 -0.0506
 2526DOPG   C3B52175  13.543  15.983  17.802  0.0262 -0.0740 -0.2234
 2526DOPG   C4B52176  13.668  15.617  17.785 -0.3299 -0.2542 -0.3222
 2527DOPG   GL052177  18.964  14.370  18.425  0.1129  0.0183 -0.0348
 2527DOPG   PO452178  18.924  13.958  18.316 -0.2180 -0.2349  0.0922
 2527DOPG   GL152179  19.301  13.876  18.039  0.0344 -0.4516  0.1277
 2527DOPG   GL252180  19.295  13.618  17.833  0.0648  0.1185 -0.0792
 2527DOPG   C1A52181  19.776  13.768  18.038  0.1523  0.2300  0.2366
 2527DOPG   D2A52182  20.072  13.350  17.958  0.0141  0.0295 -0.0385
 2527DOPG   C3A52183  20.145  13.271  17.612 -0.1106 -0.0798 -0.0791
 2527DOPG   C4A52184  20.366  13.538  17.275 -0.1075 -0.1925  0.2896
 2527DOPG   C1B52185  19.584  13.346  17.752  0.6322 -0.0298 -0.2115
 2527DOPG   D2B52186  19.656  13.041  17.727  0.2136 -0.1431  0.1508
 2527DOPG   C3B52187  19.981  12.801  17.591 -0.1383  0.1515 -0.0548
 2527DOPG   C4B52188  19.925  12.557  17.192 -0.0562  0.0239  0.2611
 2528DOPG   GL052189   5.863  21.879  18.949 -0.2706  0.3164  0.0227
 2528DOPG   PO452190   5.876  21.679  19.335 -0.1522  0.1203 -0.1401
 2528DOPG   GL152191   5.950  21.264  19.466 -0.0749 -0.0452 -0.2096
 2528DOPG   GL252192   6.176  21.318  19.556 -0.0485 -0.3744 -0.0969
 2528DOPG   C1A52193   5.959  20.785  19.436  0.0255  0.1311 -0.2645
 2528DOPG   D2A52194   6.270  20.494  19.355  0.0912 -0.0620  0.0262
 2528DOPG   C3A52195   6.160  20.160  19.381 -0.0092  0.1286  0.0684
 2528DOPG   C4A52196   5.847  20.014  19.138 -0.3666 -0.0139 -0.1990
 2528DOPG   C1B52197   6.443  20.929  19.695  0.1337  0.2850  0.2033
 2528DOPG   D2B52198   6.229  20.665  19.931 -0.3836  0.1171 -0.5785
 2528DOPG   C3B52199   6.583  20.489  20.247 -0.2851  0.0795 -0.0562
 2528DOPG   C4B52200   6.803  20.085  20.286  0.1831  0.1260 -0.4015
 2529DOPG   GL052201  18.395  20.700  17.705 -0.0018 -0.2286 -0.3466
 2529DOPG   PO452202  18.326  21.070  17.508  0.0182 -0.0186 -0.2867
 2529DOPG   GL152203  18.474  21.471  17.502 -0.0919 -0.4681  0.4699
 2529DOPG   GL252204  18.334  21.521  17.775  0.1645 -0.1682 -0.2741
 2529DOPG   C1A52205  18.530  22.005  17.626  0.1308  0.1472  0.0486
 2529DOPG   D2A52206  18.375  22.429  17.570 -0.2192 -0.1825 -0.1911
 2529DOPG   C3A52207  17.964  22.395  17.597  0.0476 -0.0416  0.1577
 2529DOPG   C4A52208  17.566  22.273  17.941 -0.0532  0.0793 -0.1059
 2529DOPG   C1B52209  18.469  21.874  18.175 -0.1463  0.0277  0.3456
 2529DOPG   D2B52210  18.297  22.061  18.544  0.2805  0.3013 -0.0352
 2529DOPG   C3B52211  18.304  22.536  18.593  0.3791  0.1802 -0.3876
 2529DOPG   C4B52212  18.081  22.833  18.732 -0.0691 -0.0057 -0.3779
 2530DOPG   GL052213  19.344  20.564  18.075 -0.1236 -0.1035  0.3278
 2530DOPG   PO452214  18.916  20.609  17.939 -0.0415 -0.1284 -0.1604
 2530DOPG   GL152215  18.725  21.043  18.009 -0.0952 -0.0294  0.0636
 2530DOPG   GL252216  18.779  21.303  17.860 -0.2707 -0.4438  0.0760
 2530DOPG   C1A52217  18.864  21.408  18.386 -0.0813  0.0633 -0.0100
 2530DOPG   D2A52218  19.248  21.436  18.539 -0.0461 -0.2228 -0.0242
 2530DOPG   C3A52219  19.579  21.714  18.451  0.1751 -0.0414 -0.3881
 2530DOPG   C4A52220  19.867  21.804  18.826 -0.3232 -0.0653 -0.3944
 2530DOPG   C1B52221  18.888  21.751  17.921  0.1644  0.1589 -0.1742
 2530DOPG   D2B52222  19.180  22.016  18.246  0.1651  0.3666  0.0495
 2530DOPG   C3B52223  19.220  22.012  18.628 -0.1163  0.3074  0.2050
 2530DOPG   C4B52224  19.568  22.142  18.857  0.1741  0.1638 -0.0461
 2531DOPG   GL052225  17.301  19.170  19.365  0.1729  0.0100 -0.0369
 2531DOPG   PO452226  17.108  19.196  19.824 -0.2715  0.2498 -0.0644
 2531DOPG   GL152227  16.969  19.579  19.985  0.3321  0.1192  0.4069
 2531DOPG   GL252228  17.164  19.809  19.906  0.0575 -0.1380  0.1342
 2531DOPG   C1A52229  16.899  19.748  20.350  0.0763  0.0477  0.0904
 2531DOPG   D2A52230  16.697  19.981  20.532  0.1171 -0.2783 -0.0696
 2531DOPG   C3A52231  16.318  20.314  20.618 -0.0612 -0.1418  0.0587
 2531DOPG   C4A52232  16.378  20.504  20.901 -0.2019  0.2890 -0.2160
 2531DOPG   C1B52233  17.103  20.062  20.061 -0.4081  0.0383 -0.0401
 2531DOPG   D2B52234  17.164  20.265  20.489 -0.1241  0.0281 -0.1180
 2531DOPG   C3B52235  17.042  20.688  20.268 -0.0383 -0.1363  0.3407
 2531DOPG   C4B52236  17.010  21.080  20.008 -0.4805  0.1154  0.0408
 2532DOPG   GL052237  12.826  19.219  19.083  0.0466  0.1522 -0.1891
 2532DOPG   PO452238  12.794  19.044  18.721  0.0243  0.1582 -0.1837
 2532DOPG   GL152239  12.363  18.907  18.790 -0.0411 -0.0370  0.1397
 2532DOPG   GL252240  12.291  18.507  18.844  0.0867 -0.1040 -0.1368
 2532DOPG   C1A52241  12.103  18.775  18.513 -0.1774 -0.1698 -0.0287
 2532DOPG   D2A52242  11.600  18.637  18.393  0.1989 -0.4244  0.4023
 2532DOPG   C3A52243  11.211  18.858  18.515 -0.0592 -0.1570 -0.0585
 2532DOPG   C4A52244  11.318  19.207  18.729  0.0594  0.3590 -0.2019
 2532DOPG   C1B52245  12.080  18.706  19.294  0.0376 -0.0870  0.2151
 2532DOPG   D2B52246  11.590  18.695  19.388 -0.0895 -0.0196  0.3258
 2532DOPG   C3B52247  11.319  18.855  19.756 -0.3284 -0.0989  0.0665
 2532DOPG   C4B52248  11.078  18.806  20.069  0.2867  0.0323 -0.0858
 2533DOPG   GL052249   9.957  15.868  18.579  0.3789 -0.1389  0.1283
 2533DOPG   PO452250   9.699  16.127  18.432 -0.3722  0.0423 -0.2170
 2533DOPG   GL152251   9.616  16.411  18.755  0.2271 -0.2977  0.0933
 2533DOPG   GL252252   9.326  16.285  18.928  0.0589 -0.0046  0.0181
 2533DOPG   C1A52253   9.570  16.670  19.176 -0.3148 -0.2338 -0.2454
 2533DOPG   D2A52254   9.370  16.700  19.600 -0.2234 -0.1639 -0.2244
 2533DOPG   C3A52255   9.399  17.092  19.918  0.1446 -0.1418 -0.0569
 2533DOPG   C4A52256   9.391  17.200  20.356  0.1719  0.1354 -0.1432
 2533DOPG   C1B52257   9.268  16.161  19.289 -0.0218  0.4540  0.2842
 2533DOPG   D2B52258   9.428  15.781  19.563  0.1287 -0.1464 -0.1682
 2533DOPG   C3B52259   9.813  15.872  19.892 -0.1013  0.0438 -0.0427
 2533DOPG   C4B52260   9.921  15.569  20.164 -0.2126 -0.0869  0.0598
 2534DOPG   GL052261  15.947  12.694  16.970  0.1220 -0.0240 -0.0638
 2534DOPG   PO452262  15.898  13.069  17.210  0.3274 -0.0247 -0.3339
 2534DOPG   GL152263  15.705  12.855  17.498  0.0348  0.0934 -0.0031
 2534DOPG   GL252264  15.670  13.097  17.677 -0.0210 -0.0661 -0.0811
 2534DOPG   C1A52265  15.377  12.672  17.746 -0.2181 -0.3075  0.0511
 2534DOPG   D2A52266  15.233  12.558  18.185  0.1285  0.0799 -0.2108
 2534DOPG   C3A52267  14.868  12.623  18.483 -0.2916 -0.5085 -0.3228
 2534DOPG   C4A52268  14.736  12.534  18.888  0.0777 -0.0775 -0.0851
 2534DOPG   C1B52269  15.742  13.354  18.041 -0.1094 -0.0643  0.0813
 2534DOPG   D2B52270  15.469  13.660  18.302 -0.2326  0.2064 -0.1152
 2534DOPG   C3B52271  15.274  13.557  18.692  0.1140  0.1792 -0.3244
 2534DOPG   C4B52272  15.472  13.177  18.982 -0.0469 -0.5540  0.2201
 2535DOPG   GL052273  13.066  10.694  19.218 -0.0967  0.0920 -0.3375
 2535DOPG   PO452274  13.072  10.251  19.365 -0.2679  0.1234  0.0282
 2535DOPG   GL152275  12.906  10.085  19.707 -0.2136  0.0108  0.0730
 2535DOPG   GL252276  12.894  10.202  19.971 -0.1336  0.0959 -0.0074
 2535DOPG   C1A52277  12.817   9.713  19.942 -0.0597 -0.1322  0.0312
 2535DOPG   D2A52278  12.836   9.261  19.925 -0.2319 -0.0550  0.2680
 2535DOPG   C3A52279  12.603   9.009  19.650 -0.0858 -0.1252 -0.1566
 2535DOPG   C4A52280  12.262   8.660  19.501 -0.5936 -0.3250 -0.1572
 2535DOPG   C1B52281  12.879   9.968  20.341 -0.0764  0.0683  0.0430
 2535DOPG   D2B52282  12.773  10.060  20.714 -0.1318 -0.1847 -0.0825
 2535DOPG   C3B52283  12.571  10.489  20.816 -0.3477  0.2290 -0.1155
 2535DOPG   C4B52284  12.320  10.895  20.659 -0.2989 -0.1020 -0.1068
 2536DOPG   GL052285   9.180  13.702  18.192 -0.1093 -0.0746  0.1550
 2536DOPG   PO452286   9.162  14.020  18.563  0.0594 -0.1076  0.0379
 2536DOPG   GL152287   8.937  13.851  18.934  0.0822  0.0267  0.0412
 2536DOPG   GL252288   8.688  14.082  19.116  0.2323 -0.0380  0.0540
 2536DOPG   C1A52289   8.849  13.576  19.254  0.1701  0.4838 -0.2105
 2536DOPG   D2A52290   8.691  13.225  19.506 -0.1454  0.3374 -0.1200
 2536DOPG   C3A52291   8.381  13.345  19.941 -0.3363  0.1802 -0.2634
 2536DOPG   C4A52292   8.094  13.250  20.314  0.3033  0.1411  0.0377
 2536DOPG   C1B52293   8.254  14.185  19.231  0.0265 -0.3384 -0.0555
 2536DOPG   D2B52294   7.889  14.300  19.065  0.0169  0.0141 -0.2824
 2536DOPG   C3B52295   7.638  14.451  19.424  0.1310 -0.0727  0.1884
 2536DOPG   C4B52296   7.625  14.745  19.820  0.2520  0.0212 -0.0896
 2537DOPG   GL052297  11.182  14.742  19.031 -0.4356 -0.0416  0.1385
 2537DOPG   PO452298  10.902  14.547  19.038 -0.1685  0.1613 -0.5040
 2537DOPG   GL152299  10.644  14.599  19.462  0.2000  0.2062  0.2626
 2537DOPG   GL252300  10.828  14.536  19.720  0.1711  0.0228  0.0290
 2537DOPG   C1A52301  10.394  14.718  19.824  0.3366 -0.0051  0.1287
 2537DOPG   D2A52302  10.127  14.955  20.046 -0.2159 -0.2988 -0.3468
 2537DOPG   C3A52303   9.745  14.717  20.174 -0.1490 -0.2082  0.0263
 2537DOPG   C4A52304   9.540  14.557  20.616  0.0694 -0.2420 -0.0288
 2537DOPG   C1B52305  10.723  14.431  20.099  0.5057  0.3145  0.1211
 2537DOPG   D2B52306  10.633  14.008  20.291  0.2024  0.3389  0.3328
 2537DOPG   C3B52307  10.580  13.591  20.026 -0.3187  0.3033  0.2993
 2537DOPG   C4B52308  10.335  13.232  19.891 -0.2278  0.1178  0.0743
 2538DOPG   GL052309   5.357  22.117  20.420  0.1574 -0.0964  0.0672
 2538DOPG   PO452310   5.511  21.821  20.400  0.3526 -0.0750 -0.2607
 2538DOPG   GL152311   5.890  21.512  20.422 -0.0206 -0.0211 -0.0475
 2538DOPG   GL252312   6.133  21.481  20.224 -0.0538  0.0059  0.0646
 2538DOPG   C1A52313   6.106  21.329  20.744  0.1203  0.3583 -0.1082
 2538DOPG   D2A52314   6.320  21.034  20.954 -0.0761 -0.0559  0.3188
 2538DOPG   C3A52315   6.707  21.041  21.107  0.5009 -0.1695 -0.2396
 2538DOPG   C4A52316   7.088  20.858  21.012 -0.2884  0.3752 -0.0370
 2538DOPG   C1B52317   6.516  21.457  20.442 -0.0928  0.1661 -0.4411
 2538DOPG   D2B52318   6.628  21.435  20.847  0.0726 -0.0676  0.1881
 2538DOPG   C3B52319   7.087  21.369  20.912  0.3384  0.1996  0.3147
 2538DOPG   C4B52320   7.399  21.310  21.215  0.2617  0.1126  0.2599
 2539DOPG   GL052321  16.671  14.381  15.662  0.0809 -0.2345  0.2634
 2539DOPG   PO452322  16.681  14.745  15.860  0.1454  0.0024  0.2238
 2539DOPG   GL152323  16.836  14.684  16.255  0.2340  0.1875  0.0172
 2539DOPG   GL252324  17.020  14.885  16.394  0.3951 -0.0222 -0.0330
 2539DOPG   C1A52325  16.685  14.752  16.747  0.2324  0.1413  0.0310
 2539DOPG   D2A52326  16.668  14.990  17.106  0.0171 -0.0927  0.2553
 2539DOPG   C3A52327  16.528  14.871  17.439  0.1980 -0.0881  0.0557
 2539DOPG   C4A52328  16.265  14.938  17.697  0.0747 -0.3320 -0.2270
 2539DOPG   C1B52329  16.895  15.313  16.574  0.3585 -0.1411  0.1611
 2539DOPG   D2B52330  16.649  15.425  16.961 -0.1633  0.3075  0.2533
 2539DOPG   C3B52331  16.510  15.794  17.233 -0.1794  0.3435 -0.0388
 2539DOPG   C4B52332  16.174  16.046  17.441  0.1071  0.1696  0.1183
 2540DOPG   GL052333  21.562  14.969  18.568 -0.0829 -0.0914  0.1248
 2540DOPG   PO452334  21.382  15.340  18.317 -0.1646 -0.0021  0.2070
 2540DOPG   GL152335  21.669  15.129  18.061 -0.0874  0.4034  0.4164
 2540DOPG   GL252336  21.405  14.817  18.040  0.2658  0.3354  0.1777
 2540DOPG   C1A52337  21.916  14.752  18.004  0.1607  0.2258 -0.0601
 2540DOPG   D2A52338  22.407  14.624  18.094  0.2607  0.0749 -0.1549
 2540DOPG   C3A52339  22.537  14.500  18.456  0.1670  0.0653 -0.0003
 2540DOPG   C4A52340  22.806  14.270  18.705  0.1158  0.1729  0.0119
 2540DOPG   C1B52341  21.101  14.519  18.023 -0.0753  0.0326 -0.0128
 2540DOPG   D2B52342  21.057  14.072  17.968 -0.0713  0.0742 -0.0794
 2540DOPG   C3B52343  21.115  13.620  17.642  0.1685  0.0211  0.1793
 2540DOPG   C4B52344  21.125  13.381  17.302 -0.1960 -0.0588 -0.0579
 2541DOPG   GL052345  17.636  16.365  20.003  0.1148 -0.1104  0.2394
 2541DOPG   PO452346  17.715  16.773  20.142  0.2614  0.3035 -0.2769
 2541DOPG   GL152347  17.889  16.877  20.429  0.0415  0.3382  0.2418
 2541DOPG   GL252348  18.210  16.805  20.465 -0.1812  0.0652 -0.1948
 2541DOPG   C1A52349  17.964  16.980  20.871  0.3089 -0.1215  0.0942
 2541DOPG   D2A52350  17.861  17.247  21.371  0.1959  0.0578  0.1141
 2541DOPG   C3A52351  18.280  17.450  21.482 -0.0325  0.2117 -0.2684
 2541DOPG   C4A52352  18.591  17.714  21.727 -0.2805 -0.1263  0.0574
 2541DOPG   C1B52353  18.469  17.152  20.691 -0.1770 -0.4897 -0.0720
 2541DOPG   D2B52354  18.395  17.040  21.136 -0.1161 -0.3003  0.2765
 2541DOPG   C3B52355  18.662  16.656  21.311 -0.0904 -0.0370  0.0428
 2541DOPG   C4B52356  18.985  16.310  21.369 -0.2446  0.1814 -0.0815
 2542DOPG   GL052357  12.126  10.732  17.508  0.1336  0.1635  0.1612
 2542DOPG   PO452358  12.340  10.339  17.739 -0.1092  0.2896  0.5589
 2542DOPG   GL152359  12.276   9.905  17.772  0.1127  0.2819 -0.3020
 2542DOPG   GL252360  11.989   9.948  17.931  0.2620  0.0743 -0.0297
 2542DOPG   C1A52361  12.534   9.652  17.500  0.1408  0.0129 -0.2985
 2542DOPG   D2A52362  12.591   9.253  17.428 -0.4852 -0.1614 -0.0558
 2542DOPG   C3A52363  12.609   8.942  17.573  0.2898  0.0217 -0.1242
 2542DOPG   C4A52364  12.612   8.694  17.920  0.2744 -0.0707 -0.1015
 2542DOPG   C1B52365  11.827   9.548  17.987  0.0197 -0.0206  0.2062
 2542DOPG   D2B52366  11.861   9.233  18.304 -0.1857  0.1936  0.3916
 2542DOPG   C3B52367  12.097   8.875  18.019 -0.0407 -0.2832 -0.0197
 2542DOPG   C4B52368  12.137   8.408  18.098 -0.0108  0.2191 -0.1058
 2543DOPG   GL052369   9.254  13.728  16.802  0.0264 -0.0610  0.1472
 2543DOPG   PO452370   9.456  13.328  16.951  0.0698 -0.0087  0.0209
 2543DOPG   GL152371   9.801  13.210  17.152  0.0095 -0.3043 -0.0510
 2543DOPG   GL252372   9.754  13.334  17.483 -0.1485  0.0113 -0.2012
 2543DOPG   C1A52373  10.132  13.446  16.943 -0.0975 -0.1253  0.0759
 2543DOPG   D2A52374  10.405  13.775  16.940 -0.3351  0.3005 -0.0789
 2543DOPG   C3A52375  10.804  13.922  17.049 -0.1384  0.0747 -0.1343
 2543DOPG   C4A52376  11.183  13.953  17.210  0.1711  0.0220 -0.1632
 2543DOPG   C1B52377  10.161  13.581  17.711 -0.0579  0.0295  0.3271
 2543DOPG   D2B52378  10.422  13.788  17.433 -0.0830 -0.0655  0.2836
 2543DOPG   C3B52379  10.804  13.951  17.529  0.1833  0.2335 -0.1844
 2543DOPG   C4B52380  11.118  13.740  17.807 -0.2245 -0.1573 -0.4206
 2544DOPG   GL052381  18.159  17.268  19.643  0.0683 -0.0639  0.0219
 2544DOPG   PO452382  18.569  17.161  19.648  0.1364 -0.0312  0.1266
 2544DOPG   GL152383  18.802  17.459  19.515 -0.2888 -0.1055 -0.0235
 2544DOPG   GL252384  18.582  17.595  19.353  0.2459  0.0854 -0.1129
 2544DOPG   C1A52385  18.931  17.932  19.670  0.1418 -0.0446 -0.3322
 2544DOPG   D2A52386  19.255  18.053  19.972  0.3670 -0.2482  0.2397
 2544DOPG   C3A52387  19.703  17.982  20.191 -0.0891 -0.0278  0.1336
 2544DOPG   C4A52388  19.984  18.149  20.366  0.0254 -0.0558 -0.1444
 2544DOPG   C1B52389  18.847  17.427  19.055  0.1712  0.0627 -0.1916
 2544DOPG   D2B52390  19.106  17.757  18.832 -0.1680 -0.3038  0.3226
 2544DOPG   C3B52391  19.055  18.010  18.507  0.3248 -0.0188 -0.0788
 2544DOPG   C4B52392  19.002  18.391  18.222  0.1280  0.0771  0.3446
 2545DOPG   GL052393  16.199  15.871  20.421 -0.3703  0.1412  0.1169
 2545DOPG   PO452394  16.094  15.557  20.247 -0.1945  0.0618 -0.0100
 2545DOPG   GL152395  16.124  15.034  20.352  0.2650 -0.3796  0.1336
 2545DOPG   GL252396  15.905  15.067  20.671  0.0565 -0.2401 -0.0164
 2545DOPG   C1A52397  16.205  14.590  20.459  0.1101 -0.1835  0.3844
 2545DOPG   D2A52398  16.434  14.225  20.583  0.0868  0.0048 -0.1124
 2545DOPG   C3A52399  16.943  14.199  20.713  0.3543 -0.3867 -0.1297
 2545DOPG   C4A52400  17.320  14.324  20.693 -0.3236  0.2508  0.1819
 2545DOPG   C1B52401  15.860  14.721  20.820  0.1218 -0.1202 -0.1118
 2545DOPG   D2B52402  15.905  14.422  21.257  0.3851 -0.0204  0.1518
 2545DOPG   C3B52403  16.052  14.038  21.198  0.2117 -0.4531  0.1853
 2545DOPG   C4B52404  16.308  13.800  20.994  0.1203  0.1371 -0.3303
 2546DOPG   GL052405  18.171  12.936  18.386 -0.2173  0.0374 -0.0983
 2546DOPG   PO452406  17.777  12.702  18.413  0.1268 -0.0862 -0.1697
 2546DOPG   GL152407  18.051  12.455  18.618  0.0093 -0.0098 -0.1110
 2546DOPG   GL252408  17.908  12.305  18.916  0.3872 -0.1223 -0.1443
 2546DOPG   C1A52409  18.402  12.158  18.857  0.1599 -0.0347 -0.1235
 2546DOPG   D2A52410  18.615  12.041  19.229  0.1360  0.1029 -0.0992
 2546DOPG   C3A52411  18.847  11.716  19.234  0.4510 -0.1296  0.0041
 2546DOPG   C4A52412  18.839  11.263  19.308  0.0324  0.1517  0.1219
 2546DOPG   C1B52413  17.911  12.042  19.174  0.1723  0.4499 -0.0857
 2546DOPG   D2B52414  17.493  11.895  19.369 -0.3034  0.0535  0.2462
 2546DOPG   C3B52415  17.322  11.649  19.630  0.2369  0.0685 -0.0250
 2546DOPG   C4B52416  17.152  11.672  20.055  0.3373  0.1667  0.2045
 2547DOPG   GL052417  17.325  17.014  19.424  0.2790  0.0077  0.0683
 2547DOPG   PO452418  17.522  17.422  19.375  0.2692  0.1800 -0.2127
 2547DOPG   GL152419  17.673  17.259  19.057  0.0590  0.0079 -0.0531
 2547DOPG   GL252420  18.010  17.389  19.105  0.1670  0.2406 -0.0252
 2547DOPG   C1A52421  17.818  17.347  18.679  0.0250 -0.0121 -0.1879
 2547DOPG   D2A52422  17.954  17.643  18.326  0.0666  0.1517 -0.0785
 2547DOPG   C3A52423  18.022  17.604  17.839 -0.0437  0.1165  0.2333
 2547DOPG   C4A52424  18.183  17.236  17.521 -0.0623  0.4351  0.2409
 2547DOPG   C1B52425  18.313  17.553  18.876 -0.1226  0.0956  0.1770
 2547DOPG   D2B52426  18.685  17.687  18.604 -0.0170  0.1520  0.3172
 2547DOPG   C3B52427  18.558  17.487  18.188 -0.0794 -0.1615  0.0427
 2547DOPG   C4B52428  18.693  17.432  17.708  0.3025 -0.2354 -0.2466
 2548DOPG   GL052429   9.406  11.719  18.156 -0.1199 -0.2292 -0.0611
 2548DOPG   PO452430   9.690  11.600  18.470 -0.2665 -0.2693  0.0948
 2548DOPG   GL152431   9.530  11.408  18.752 -0.0844  0.0339  0.0457
 2548DOPG   GL252432   9.682  11.594  19.028 -0.1670 -0.1363  0.2589
 2548DOPG   C1A52433   9.428  11.118  18.988 -0.0896 -0.0254  0.1031
 2548DOPG   D2A52434   9.248  11.064  19.401 -0.0192  0.1350 -0.0153
 2548DOPG   C3A52435   8.961  11.358  19.713 -0.1130  0.1913  0.2025
 2548DOPG   C4A52436   8.570  11.280  19.926 -0.2150 -0.2559 -0.2389
 2548DOPG   C1B52437   9.758  11.777  19.511 -0.0702  0.2796 -0.4835
 2548DOPG   D2B52438   9.555  11.787  19.826  0.0327  0.1031 -0.1390
 2548DOPG   C3B52439   9.107  11.817  19.852 -0.1963  0.0321 -0.0811
 2548DOPG   C4B52440   8.654  11.845  20.096  0.1169  0.0675  0.1762
 2549DOPG   GL052441  17.822  19.228  19.317 -0.5135  0.0008 -0.0603
 2549DOPG   PO452442  17.975  19.621  19.202  0.1871  0.2374 -0.0603
 2549DOPG   GL152443  18.152  19.499  19.570  0.1436  0.4664 -0.1602
 2549DOPG   GL252444  18.197  19.159  19.649  0.1556 -0.1990  0.0537
 2549DOPG   C1A52445  18.319  19.538  19.935 -0.0735  0.1159  0.2357
 2549DOPG   D2A52446  18.758  19.397  20.046 -0.1160  0.0347 -0.1254
 2549DOPG   C3A52447  19.198  19.456  20.242  0.3112 -0.2004 -0.0621
 2549DOPG   C4A52448  19.206  19.898  20.343 -0.0267 -0.0626  0.1045
 2549DOPG   C1B52449  18.674  19.313  19.563  0.2459 -0.0501  0.0103
 2549DOPG   D2B52450  19.053  19.470  19.650  0.0694  0.4814  0.0233
 2549DOPG   C3B52451  19.238  19.749  19.830  0.1790 -0.0278  0.2730
 2549DOPG   C4B52452  19.599  19.996  19.877 -0.0912 -0.0159  0.1359
 2550DOPG   GL052453  12.716  14.003  19.898 -0.0368  0.0531 -0.1111
 2550DOPG   PO452454  12.636  14.003  19.485  0.1818 -0.2064  0.1792
 2550DOPG   GL152455  12.429  13.688  19.370  0.2352  0.1260  0.2169
 2550DOPG   GL252456  12.358  13.390  19.518  0.1794  0.1428  0.0861
 2550DOPG   C1A52457  12.500  13.528  19.016  0.2002  0.0734 -0.0283
 2550DOPG   D2A52458  12.476  13.524  18.515 -0.0138 -0.3155  0.0443
 2550DOPG   C3A52459  12.832  13.383  18.195  0.0096  0.0554  0.0023
 2550DOPG   C4A52460  13.294  13.439  18.184 -0.5875 -0.2632  0.0190
 2550DOPG   C1B52461  12.685  13.194  19.277 -0.1367  0.2637  0.0479
 2550DOPG   D2B52462  12.836  12.812  19.303  0.1488 -0.3637  0.0521
 2550DOPG   C3B52463  12.609  12.649  19.595 -0.1175  0.0748  0.2330
 2550DOPG   C4B52464  12.563  12.482  19.995  0.1221 -0.4696 -0.3246
 2551DOPG   GL052465  10.735  10.989  18.440  0.1380  0.3923  0.1354
 2551DOPG   PO452466  10.316  10.927  18.628 -0.1551 -0.2175  0.4565
 2551DOPG   GL152467  10.088  10.523  18.831  0.0345  0.0454  0.1111
 2551DOPG   GL252468  10.246  10.319  19.002 -0.0334  0.3759  0.3283
 2551DOPG   C1A52469   9.719  10.243  18.943 -0.0847  0.0258  0.1306
 2551DOPG   D2A52470   9.688   9.809  19.044  0.0487  0.2828  0.1520
 2551DOPG   C3A52471   9.421   9.402  19.202  0.2205  0.0949  0.4768
 2551DOPG   C4A52472   9.016   9.260  19.252 -0.0475  0.3016 -0.0478
 2551DOPG   C1B52473  10.316   9.955  18.963 -0.1731  0.1762 -0.0466
 2551DOPG   D2B52474  10.494   9.551  18.848 -0.0565  0.2461  0.2800
 2551DOPG   C3B52475  10.291   9.438  18.520 -0.4393  0.3360  0.0820
 2551DOPG   C4B52476  10.015   9.460  18.174 -0.0143  0.4320 -0.0604
 2552DOPG   GL052477   8.505  20.577  17.634 -0.1797  0.1538  0.1308
 2552DOPG   PO452478   8.212  20.956  17.763  0.3452  0.0339  0.0323
 2552DOPG   GL152479   8.169  21.049  18.196 -0.2383  0.0992 -0.1532
 2552DOPG   GL252480   8.363  21.367  18.118 -0.2755 -0.1595 -0.3343
 2552DOPG   C1A52481   8.337  21.253  18.630  0.0448  0.1774  0.2362
 2552DOPG   D2A52482   8.596  21.567  18.815 -0.0070 -0.2090 -0.2534
 2552DOPG   C3A52483   8.823  21.756  18.615  0.0936  0.1084 -0.1822
 2552DOPG   C4A52484   9.344  21.740  18.599  0.2215  0.0446  0.0216
 2552DOPG   C1B52485   8.405  21.590  18.346 -0.0542 -0.4286 -0.4912
 2552DOPG   D2B52486   8.138  21.816  18.666 -0.1100 -0.0009 -0.0904
 2552DOPG   C3B52487   8.439  22.078  18.796  0.2352  0.0737 -0.1353
 2552DOPG   C4B52488   8.869  22.295  18.854  0.0884 -0.0309  0.0488
 2553DOPG   GL052489   8.244  18.944  17.769  0.1892 -0.0283  0.2474
 2553DOPG   PO452490   8.049  19.120  18.059  0.1429 -0.1875  0.1658
 2553DOPG   GL152491   7.814  18.841  18.394  0.0577 -0.2301 -0.1461
 2553DOPG   GL252492   7.619  18.926  18.278  0.1105  0.0149  0.1096
 2553DOPG   C1A52493   7.954  18.476  18.661  0.2271  0.0510  0.1231
 2553DOPG   D2A52494   7.874  18.059  18.815  0.0649  0.3661 -0.1847
 2553DOPG   C3A52495   7.470  18.005  19.082 -0.3437  0.3661 -0.3119
 2553DOPG   C4A52496   7.254  17.605  18.994 -0.2353 -0.0425  0.0496
 2553DOPG   C1B52497   7.236  18.704  18.060  0.0577 -0.2087  0.3119
 2553DOPG   D2B52498   6.997  18.549  18.334 -0.0340 -0.1083 -0.1163
 2553DOPG   C3B52499   6.703  18.854  18.708  0.3180 -0.1515  0.1861
 2553DOPG   C4B52500   6.349  18.988  18.952 -0.2391  0.0511  0.0781
 2554DOPG   GL052501  14.730  16.429  19.303 -0.1022 -0.0179 -0.2045
 2554DOPG   PO452502  14.688  15.932  19.142 -0.3103  0.1466 -0.2623
 2554DOPG   GL152503  15.075  15.739  18.992  0.0377 -0.2138  0.1762
 2554DOPG   GL252504  15.031  15.362  19.015  0.1300  0.0617 -0.0021
 2554DOPG   C1A52505  15.184  15.601  18.525 -0.3671  0.0279 -0.1502
 2554DOPG   D2A52506  15.120  15.536  18.076  0.2240 -0.1156 -0.1900
 2554DOPG   C3A52507  15.418  15.472  17.874  0.0727  0.1516  0.1668
 2554DOPG   C4A52508  15.397  15.384  17.518 -0.1215  0.1427 -0.2698
 2554DOPG   C1B52509  14.824  15.253  18.595 -0.1614  0.1307  0.0308
 2554DOPG   D2B52510  14.969  15.105  18.296  0.1926  0.1279  0.0248
 2554DOPG   C3B52511  14.810  15.179  17.979  0.0159 -0.0503 -0.1159
 2554DOPG   C4B52512  14.696  15.228  17.588  0.3179  0.1225 -0.0938
 2555DOPG   GL052513  15.166  16.727  18.836 -0.1606  0.1303  0.1361
 2555DOPG   PO452514  15.397  17.002  19.034  0.0776  0.2643 -0.1860
 2555DOPG   GL152515  15.631  16.842  18.813 -0.1779 -0.2065  0.0167
 2555DOPG   GL252516  15.602  16.768  18.504 -0.0585  0.1995 -0.1785
 2555DOPG   C1A52517  16.015  17.034  18.497  0.0081 -0.0103  0.0481
 2555DOPG   D2A52518  16.261  17.181  18.260 -0.3615  0.3277 -0.0278
 2555DOPG   C3A52519  16.214  17.096  17.906 -0.0285  0.3770 -0.1759
 2555DOPG   C4A52520  15.958  16.935  17.647 -0.0458 -0.1278 -0.0139
 2555DOPG   C1B52521  15.218  16.849  18.268 -0.3797  0.2876 -0.0864
 2555DOPG   D2B52522  14.873  16.708  18.062  0.1339  0.0680 -0.1932
 2555DOPG   C3B52523  14.976  16.412  17.778  0.0120  0.0305  0.3073
 2555DOPG   C4B52524  15.108  16.258  17.391 -0.1444  0.0720  0.1327
 2556DOPG   GL052525  16.236  12.357  17.167  0.0109  0.0855  0.1392
 2556DOPG   PO452526  15.936  12.165  16.942  0.1707  0.6638  0.5084
 2556DOPG   GL152527  16.311  11.793  17.119 -0.0359  0.1597  0.0266
 2556DOPG   GL252528  16.360  11.718  16.841 -0.0953 -0.0865  0.0251
 2556DOPG   C1A52529  16.438  11.386  17.259  0.1830  0.1962  0.1528
 2556DOPG   D2A52530  16.779  11.310  17.455 -0.3322  0.2845 -0.1133
 2556DOPG   C3A52531  17.152  11.314  17.378  0.0773  0.3850 -0.3173
 2556DOPG   C4A52532  17.624  11.342  17.240  0.1262  0.0096  0.1916
 2556DOPG   C1B52533  16.501  11.410  16.647  0.3184  0.1291  0.0259
 2556DOPG   D2B52534  16.836  11.159  16.468  0.1167  0.3225 -0.0031
 2556DOPG   C3B52535  16.935  11.128  15.963  0.0762  0.1391 -0.0922
 2556DOPG   C4B52536  16.925  11.145  15.596 -0.1272 -0.3102  0.2275
 2557DOPG   GL052537  19.614  14.834  18.953  0.0321 -0.3315 -0.0312
 2557DOPG   PO452538  20.072  14.871  18.784  0.0487  0.0011 -0.1211
 2557DOPG   GL152539  20.443  14.685  19.131  0.1677 -0.0408  0.0342
 2557DOPG   GL252540  20.450  14.887  19.433  0.1944  0.0354 -0.1148
 2557DOPG   C1A52541  20.674  14.296  19.256 -0.0491 -0.1800 -0.0126
 2557DOPG   D2A52542  20.974  13.938  19.159 -0.1580  0.1551 -0.1073
 2557DOPG   C3A52543  21.310  13.951  19.552  0.0920  0.0924  0.0276
 2557DOPG   C4A52544  21.604  13.864  19.961  0.3332 -0.1070  0.2555
 2557DOPG   C1B52545  20.536  14.510  19.751  0.6302 -0.0677  0.0240
 2557DOPG   D2B52546  20.430  14.305  20.203 -0.0950  0.0454  0.3606
 2557DOPG   C3B52547  20.760  14.017  20.467 -0.3350 -0.0376  0.0237
 2557DOPG   C4B52548  20.945  13.644  20.331  0.3338 -0.2714 -0.1507
 2558DOPG   GL052549  21.606  19.391  17.829  0.1469 -0.1219  0.0007
 2558DOPG   PO452550  21.411  19.199  18.174  0.2352  0.2115 -0.1816
 2558DOPG   GL152551  21.080  19.187  18.244  0.0849  0.0876 -0.0447
 2558DOPG   GL252552  21.068  18.879  18.439  0.0829  0.3103 -0.2618
 2558DOPG   C1A52553  20.725  19.265  18.480 -0.1917 -0.1534 -0.0556
 2558DOPG   D2A52554  20.636  19.512  18.849 -0.3354 -0.2547  0.0340
 2558DOPG   C3A52555  20.364  19.609  18.992  0.1212  0.0274  0.1760
 2558DOPG   C4A52556  20.212  19.377  19.401 -0.1137 -0.1926 -0.2779
 2558DOPG   C1B52557  20.976  18.826  18.854  0.1987  0.0876  0.1269
 2558DOPG   D2B52558  20.991  18.734  19.232  0.0481 -0.3193 -0.2943
 2558DOPG   C3B52559  21.041  18.996  19.548 -0.0542  0.0299  0.2404
 2558DOPG   C4B52560  21.093  19.354  19.800 -0.3517  0.2236  0.1988
 2559DOPG   GL052561   9.066  13.179  18.129 -0.2359  0.0651 -0.1144
 2559DOPG   PO452562   8.840  13.004  18.417 -0.0134  0.2873  0.0593
 2559DOPG   GL152563   8.586  13.111  18.702 -0.2725  0.1326  0.1055
 2559DOPG   GL252564   8.667  13.221  18.974 -0.0628 -0.1898 -0.2717
 2559DOPG   C1A52565   8.371  12.776  18.860  0.3038 -0.0567  0.1174
 2559DOPG   D2A52566   8.018  12.686  19.198 -0.0003  0.0692  0.1150
 2559DOPG   C3A52567   8.053  12.425  19.601  0.2985  0.1453  0.0757
 2559DOPG   C4A52568   8.310  12.061  19.805  0.1272  0.1046  0.3320
 2559DOPG   C1B52569   8.322  13.080  19.210  0.1648  0.1607 -0.0783
 2559DOPG   D2B52570   7.811  13.162  19.300  0.0662 -0.0066 -0.0894
 2559DOPG   C3B52571   7.389  13.021  19.111 -0.1095  0.2248 -0.0541
 2559DOPG   C4B52572   7.012  13.132  18.975  0.1423 -0.0924 -0.1587
 2560DOPG   GL052573  16.546  16.550  19.433  0.0740  0.0907 -0.0215
 2560DOPG   PO452574  16.169  16.446  19.641 -0.2343 -0.1119 -0.1260
 2560DOPG   GL152575  16.076  16.285  19.214  0.1500 -0.2011 -0.1131
 2560DOPG   GL252576  16.157  16.549  19.028  0.0735 -0.2424  0.1033
 2560DOPG   C1A52577  16.031  16.051  18.843 -0.4771  0.0103  0.1328
 2560DOPG   D2A52578  16.025  15.591  18.885  0.1321  0.0355 -0.1594
 2560DOPG   C3A52579  16.312  15.292  18.722 -0.2832 -0.0642  0.3752
 2560DOPG   C4A52580  16.326  14.769  18.935  0.1714 -0.1485  0.4205
 2560DOPG   C1B52581  16.056  16.502  18.606 -0.1885 -0.0357 -0.0067
 2560DOPG   D2B52582  16.018  16.072  18.346  0.1990  0.0421  0.0309
 2560DOPG   C3B52583  16.414  15.795  18.297  0.1087  0.3200  0.1800
 2560DOPG   C4B52584  16.699  15.580  18.573  0.3000 -0.1646  0.3087
 2561DOPG   GL052585  10.660  19.494  17.782  0.0152 -0.2816  0.2546
 2561DOPG   PO452586  11.047  19.565  17.776  0.0847  0.0584  0.1987
 2561DOPG   GL152587  11.021  19.170  17.694  0.0322 -0.3553  0.2573
 2561DOPG   GL252588  10.797  19.143  17.521  0.0315 -0.0142  0.1680
 2561DOPG   C1A52589  11.210  18.858  17.937 -0.0305 -0.0021 -0.2416
 2561DOPG   D2A52590  11.214  18.445  18.129 -0.0502 -0.0391  0.0876
 2561DOPG   C3A52591  11.503  18.203  18.099  0.0782  0.0228  0.2693
 2561DOPG   C4A52592  11.545  17.761  18.372 -0.4687  0.1847 -0.1080
 2561DOPG   C1B52593  11.113  18.838  17.335 -0.2325  0.4503 -0.0042
 2561DOPG   D2B52594  11.332  18.506  17.199 -0.1706  0.1732 -0.0678
 2561DOPG   C3B52595  11.254  18.491  16.776 -0.0618 -0.2821 -0.2662
 2561DOPG   C4B52596  11.466  18.322  16.424  0.4429  0.0279 -0.2662
 2562DOPG   GL052597  21.463  15.915  19.260 -0.0286  0.2006 -0.2226
 2562DOPG   PO452598  21.101  15.769  19.437 -0.0600  0.1565 -0.3898
 2562DOPG   GL152599  21.092  16.117  19.655 -0.4008 -0.2882 -0.1347
 2562DOPG   GL252600  21.275  16.313  19.511 -0.0034 -0.2048 -0.0873
 2562DOPG   C1A52601  21.456  16.539  19.852  0.3775 -0.0322 -0.1545
 2562DOPG   D2A52602  21.624  17.027  19.949 -0.1076  0.0513 -0.1093
 2562DOPG   C3A52603  21.855  17.393  20.127 -0.1439  0.0618  0.0673
 2562DOPG   C4A52604  22.181  17.710  20.145 -0.1410  0.0942  0.0884
 2562DOPG   C1B52605  21.057  16.694  19.600 -0.0438  0.0136 -0.0074
 2562DOPG   D2B52606  21.116  17.057  19.878  0.2200 -0.0107 -0.2042
 2562DOPG   C3B52607  21.353  16.830  20.289 -0.1204 -0.0273 -0.1345
 2562DOPG   C4B52608  21.465  16.941  20.666 -0.0635  0.0739 -0.3372
 2563DOPG   GL052609  16.515  12.587  17.940 -0.1967 -0.2330  0.2335
 2563DOPG   PO452610  16.869  12.881  17.943  0.1147  0.0771  0.1204
 2563DOPG   GL152611  16.779  13.344  18.059  0.1691 -0.1851  0.4427
 2563DOPG   GL252612  16.493  13.383  18.105 -0.2423 -0.2283  0.2549
 2563DOPG   C1A52613  16.670  13.670  18.447  0.0359  0.1426 -0.1063
 2563DOPG   D2A52614  16.708  13.581  18.950  0.0343 -0.1694 -0.2399
 2563DOPG   C3A52615  16.369  13.846  19.103 -0.5705  0.1277 -0.0933
 2563DOPG   C4A52616  16.460  14.286  19.181  0.1124  0.2074 -0.1178
 2563DOPG   C1B52617  16.192  13.732  18.277 -0.2552  0.0327  0.0801
 2563DOPG   D2B52618  15.876  14.010  18.513  0.1236 -0.0254  0.1171
 2563DOPG   C3B52619  15.396  14.112  18.630  0.1687 -0.1963  0.2694
 2563DOPG   C4B52620  15.146  14.237  18.900 -0.1833 -0.1975 -0.1194
 2564DOPG   GL052621  14.914  11.558  17.796  0.3007  0.1801  0.0467
 2564DOPG   PO452622  14.779  11.627  18.232  0.1093  0.0015 -0.0542
 2564DOPG   GL152623  14.582  11.495  18.613  0.0934  0.1333  0.4783
 2564DOPG   GL252624  14.469  11.690  18.679 -0.2636 -0.1020  0.0657
 2564DOPG   C1A52625  14.719  11.303  19.114 -0.1241 -0.5351 -0.4264
 2564DOPG   D2A52626  14.860  11.125  19.498 -0.0192 -0.4192 -0.3285
 2564DOPG   C3A52627  14.627  11.177  19.893 -0.1283 -0.2036  0.0952
 2564DOPG   C4A52628  14.714  11.254  20.264 -0.1527  0.1328 -0.1308
 2564DOPG   C1B52629  14.325  11.672  19.077 -0.1598  0.3624 -0.1606
 2564DOPG   D2B52630  13.948  11.702  19.392 -0.1736  0.1702  0.2799
 2564DOPG   C3B52631  13.767  11.813  19.802 -0.1769  0.1460  0.0098
 2564DOPG   C4B52632  13.765  11.755  20.240  0.1474 -0.0050 -0.0708
 2565DOPG   GL052633  14.915  15.647  20.292 -0.1620  0.1795  0.4808
 2565DOPG   PO452634  15.198  15.287  20.433  0.0094  0.2109 -0.1446
 2565DOPG   GL152635  15.247  15.027  20.728  0.0726  0.2815 -0.2278
 2565DOPG   GL252636  15.487  15.065  20.993 -0.0584  0.0433  0.0204
 2565DOPG   C1A52637  15.111  14.755  21.047  0.2900 -0.1308 -0.0226
 2565DOPG   D2A52638  15.119  14.438  20.989 -0.0279 -0.0298 -0.1629
 2565DOPG   C3A52639  15.560  14.242  20.935 -0.2407 -0.0412 -0.3495
 2565DOPG   C4A52640  15.917  14.196  20.756  0.2058  0.0332  0.2331
 2565DOPG   C1B52641  15.515  14.733  21.234 -0.6566 -0.1559 -0.1138
 2565DOPG   D2B52642  15.345  14.683  21.649 -0.1136  0.2041 -0.1086
 2565DOPG   C3B52643  15.592  14.609  21.987  0.0220  0.0316 -0.4418
 2565DOPG   C4B52644  15.527  14.422  22.313 -0.0309 -0.1271 -0.1582
 2566DOPG   GL052645  12.223  21.975  17.031 -0.3539 -0.0304 -0.0449
 2566DOPG   PO452646  12.020  22.186  16.748 -0.1418 -0.1145  0.2612
 2566DOPG   GL152647  12.008  22.551  16.687 -0.2029  0.3442 -0.1086
 2566DOPG   GL252648  11.748  22.653  16.810 -0.1134 -0.1604 -0.0161
 2566DOPG   C1A52649  12.163  22.872  16.974 -0.0401  0.4443  0.1244
 2566DOPG   D2A52650  12.085  23.054  17.487 -0.0859 -0.0714  0.1856
 2566DOPG   C3A52651  11.858  23.064  17.877 -0.1320 -0.3603 -0.1488
 2566DOPG   C4A52652  11.582  23.203  18.212 -0.4348  0.0817  0.0311
 2566DOPG   C1B52653  11.764  23.090  16.902 -0.0771 -0.1311 -0.0810
 2566DOPG   D2B52654  12.149  23.412  17.062 -0.1968  0.3752 -0.1240
 2566DOPG   C3B52655  12.132  23.563  17.399  0.1801  0.6672  0.1715
 2566DOPG   C4B52656  11.873  23.940  17.471 -0.0384 -0.0502 -0.0271
 2567DOPG   GL052657  10.868  10.862  19.278  0.3864 -0.0682  0.1246
 2567DOPG   PO452658  10.898  11.327  19.329  0.0161  0.2645 -0.0870
 2567DOPG   GL152659  10.833  11.554  19.635  0.0192 -0.1534  0.1114
 2567DOPG   GL252660  10.510  11.668  19.618 -0.2586 -0.1312 -0.0343
 2567DOPG   C1A52661  10.902  11.688  20.116 -0.1088 -0.2708 -0.1937
 2567DOPG   D2A52662  10.834  11.876  20.586  0.0715  0.1419  0.3961
 2567DOPG   C3A52663  11.129  12.241  20.849  0.1070  0.2991  0.0799
 2567DOPG   C4A52664  11.499  12.258  20.935 -0.1372  0.2189 -0.1056
 2567DOPG   C1B52665  10.299  11.663  20.009 -0.0632 -0.0076  0.0197
 2567DOPG   D2B52666  10.405  11.972  20.356 -0.0762 -0.3346  0.1198
 2567DOPG   C3B52667  10.368  11.881  20.808 -0.1482  0.1408 -0.2038
 2567DOPG   C4B52668  10.678  12.041  21.076 -0.1718 -0.2379  0.0978
 2568DOPG   GL052669  23.801  18.864  18.374 -0.1692 -0.1507 -0.3422
 2568DOPG   PO452670  23.781  18.470  18.554 -0.1113 -0.3199 -0.1104
 2568DOPG   GL152671  23.659  18.420  18.960 -0.0575 -0.1277 -0.0631
 2568DOPG   GL252672  23.356  18.440  18.989  0.2108 -0.0749  0.0897
 2568DOPG   C1A52673  23.542  18.080  19.246  0.1332  0.0256 -0.0540
 2568DOPG   D2A52674  23.168  17.926  19.576 -0.1672 -0.0697 -0.2392
 2568DOPG   C3A52675  23.048  17.911  20.054 -0.3037 -0.1665 -0.0625
 2568DOPG   C4A52676  22.909  17.733  20.441  0.2488  0.3681  0.4735
 2568DOPG   C1B52677  23.248  18.424  19.407  0.1206 -0.2154  0.2187
 2568DOPG   D2B52678  23.049  18.689  19.627  0.1997  0.0824  0.2458
 2568DOPG   C3B52679  23.279  19.006  19.808 -0.0941 -0.0964 -0.0518
 2568DOPG   C4B52680  23.546  19.420  20.023 -0.3313 -0.1785  0.0397
 2569DOPG   GL052681   9.676  20.497  17.983  0.1385 -0.6212  0.3162
 2569DOPG   PO452682   9.458  20.897  17.888 -0.4201  0.0220 -0.1692
 2569DOPG   GL152683   9.196  21.222  18.128  0.0514  0.0199 -0.1506
 2569DOPG   GL252684   9.381  21.243  18.240  0.0358  0.1923  0.4779
 2569DOPG   C1A52685   8.958  21.599  18.076  0.1631  0.1776 -0.0311
 2569DOPG   D2A52686   8.994  22.014  17.890 -0.1500 -0.0419  0.0019
 2569DOPG   C3A52687   9.211  22.386  17.952  0.0005  0.2324 -0.0795
 2569DOPG   C4A52688   9.174  22.835  17.963 -0.3211  0.1278  0.3847
 2569DOPG   C1B52689   9.302  21.121  18.692 -0.4489 -0.0098 -0.2483
 2569DOPG   D2B52690   9.041  21.432  18.998  0.1607 -0.0369 -0.3790
 2569DOPG   C3B52691   9.126  21.832  19.058 -0.0640 -0.2201 -0.0368
 2569DOPG   C4B52692   9.201  22.233  19.244  0.2254 -0.1480 -0.2753
 2570DOPG   GL052693  18.026  13.707  17.566  0.0405  0.0827 -0.0027
 2570DOPG   PO452694  18.476  13.607  17.600  0.1605  0.2056 -0.3224
 2570DOPG   GL152695  18.814  13.587  17.477  0.0117  0.0455 -0.1339
 2570DOPG   GL252696  18.872  13.631  17.073  0.1039 -0.0260  0.0621
 2570DOPG   C1A52697  19.267  13.478  17.364 -0.0761  0.0984  0.0115
 2570DOPG   D2A52698  19.528  13.348  17.000 -0.0563  0.1299  0.2496
 2570DOPG   C3A52699  19.797  13.061  17.107 -0.1225 -0.0772  0.2061
 2570DOPG   C4A52700  20.149  12.798  16.819  0.0161  0.2471 -0.0546
 2570DOPG   C1B52701  19.017  13.252  17.002 -0.3177  0.1217 -0.1377
 2570DOPG   D2B52702  19.254  12.907  17.141 -0.2773 -0.0807 -0.0485
 2570DOPG   C3B52703  19.040  12.505  17.262 -0.0078  0.0109  0.0203
 2570DOPG   C4B52704  18.649  12.329  17.344 -0.3222 -0.1015 -0.0186
 2571DOPG   GL052705  12.400  15.525  19.866  0.0577 -0.0432  0.2141
 2571DOPG   PO452706  12.125  15.885  19.996  0.1313 -0.3145 -0.3070
 2571DOPG   GL152707  11.921  15.965  20.423 -0.0674 -0.2814  0.1056
 2571DOPG   GL252708  12.012  16.290  20.495  0.0681 -0.2017 -0.0100
 2571DOPG   C1A52709  11.755  15.794  20.809 -0.1983 -0.1744  0.1587
 2571DOPG   D2A52710  11.560  15.514  21.085  0.0332  0.1038  0.0579
 2571DOPG   C3A52711  11.476  15.526  21.546 -0.1832 -0.0849 -0.0203
 2571DOPG   C4A52712  11.510  15.438  22.024 -0.1696 -0.1457 -0.0360
 2571DOPG   C1B52713  11.601  16.340  20.725  0.0537  0.0056  0.0904
 2571DOPG   D2B52714  11.228  16.302  20.847 -0.2636 -0.0432 -0.0355
 2571DOPG   C3B52715  10.970  16.169  21.056 -0.1096  0.1445  0.0656
 2571DOPG   C4B52716  11.096  15.726  21.201 -0.4065 -0.0425 -0.2162
 2572DOPG   GL052717  15.576  11.894  16.298  0.1684  0.2048 -0.2734
 2572DOPG   PO452718  15.689  11.737  16.802 -0.3468 -0.1207  0.1009
 2572DOPG   GL152719  15.980  11.405  16.700 -0.1943  0.0087 -0.0824
 2572DOPG   GL252720  15.955  11.389  16.350 -0.3005 -0.2221 -0.1880
 2572DOPG   C1A52721  16.228  11.079  16.937  0.0135 -0.1123 -0.0806
 2572DOPG   D2A52722  16.510  10.904  16.730  0.1931 -0.0756 -0.0711
 2572DOPG   C3A52723  16.178  10.528  16.506  0.0201 -0.1217 -0.2484
 2572DOPG   C4A52724  15.780  10.387  16.582 -0.1675 -0.1577  0.3149
 2572DOPG   C1B52725  16.299  11.061  16.330 -0.2227  0.1363 -0.1538
 2572DOPG   D2B52726  16.553  10.763  16.214  0.0917 -0.2423 -0.0853
 2572DOPG   C3B52727  17.004  10.617  15.903 -0.2041 -0.2648 -0.3039
 2572DOPG   C4B52728  17.213  10.735  15.608 -0.2402  0.1768 -0.0718
 2573DOPG   GL052729  10.170  11.403  18.837 -0.1046  0.2299 -0.1390
 2573DOPG   PO452730  10.199  11.596  19.068  0.3566 -0.1844 -0.1101
 2573DOPG   GL152731   9.946  11.270  19.263  0.3786  0.1581 -0.2930
 2573DOPG   GL252732   9.994  10.991  19.048  0.0198 -0.0365  0.3608
 2573DOPG   C1A52733   9.782  11.037  19.557 -0.0076  0.0210 -0.2244
 2573DOPG   D2A52734  10.027  10.713  19.639  0.3353 -0.3364 -0.2026
 2573DOPG   C3A52735  10.327  10.746  19.937  0.2358 -0.2442 -0.0398
 2573DOPG   C4A52736  10.554  10.818  20.328 -0.0364  0.2147  0.1040
 2573DOPG   C1B52737   9.684  10.691  19.226 -0.1988 -0.3883  0.2415
 2573DOPG   D2B52738   9.404  10.436  19.227  0.2015  0.0680  0.3286
 2573DOPG   C3B52739   9.265  10.057  19.244  0.1070  0.0173  0.2246
 2573DOPG   C4B52740   8.961   9.740  19.113  0.0861  0.2836 -0.2321
 2574DOPG   GL052741  15.008  18.467  19.734  0.0126 -0.1495 -0.3962
 2574DOPG   PO452742  14.782  18.694  19.754  0.2836  0.0063 -0.5073
 2574DOPG   GL152743  14.687  18.791  20.153 -0.1100 -0.1803 -0.3354
 2574DOPG   GL252744  14.785  18.752  20.463  0.1228 -0.3416 -0.1025
 2574DOPG   C1A52745  14.620  19.222  20.312 -0.2358  0.2602 -0.1155
 2574DOPG   D2A52746  14.296  19.303  20.562  0.0033 -0.1472 -0.0682
 2574DOPG   C3A52747  14.344  19.340  21.022 -0.1718 -0.0326 -0.1410
 2574DOPG   C4A52748  14.443  19.265  21.425  0.0622 -0.0806 -0.4176
 2574DOPG   C1B52749  14.628  18.776  20.768 -0.1789 -0.2756  0.0545
 2574DOPG   D2B52750  14.713  18.942  21.183  0.0436 -0.0909 -0.1598
 2574DOPG   C3B52751  15.041  19.087  21.484 -0.1229 -0.0940 -0.0681
 2574DOPG   C4B52752  15.510  19.065  21.533  0.3477  0.3054 -0.1042
 2575DOPG   GL052753   5.217  21.925  19.966 -0.0265  0.1946  0.0246
 2575DOPG   PO452754   5.568  22.173  19.941 -0.0156  0.3324  0.3733
 2575DOPG   GL152755   5.979  21.959  20.047  0.2319  0.0148 -0.1547
 2575DOPG   GL252756   6.149  21.789  19.816 -0.0287 -0.3673 -0.1385
 2575DOPG   C1A52757   6.244  21.957  20.362  0.0612 -0.2163 -0.2449
 2575DOPG   D2A52758   6.721  21.981  20.409 -0.2222  0.1593 -0.0464
 2575DOPG   C3A52759   6.996  21.577  20.482 -0.0878  0.3823 -0.1452
 2575DOPG   C4A52760   7.413  21.535  20.341  0.1288 -0.1791 -0.1296
 2575DOPG   C1B52761   6.529  21.575  19.982 -0.0238  0.0673  0.2227
 2575DOPG   D2B52762   6.985  21.268  20.057 -0.0130  0.2698  0.4203
 2575DOPG   C3B52763   6.932  20.861  19.675 -0.0980 -0.0602 -0.0901
 2575DOPG   C4B52764   6.652  20.499  19.659  0.2147  0.0021  0.0639
 2576DOPG   GL052765  21.071  16.123  17.605  0.1892  0.1340 -0.0392
 2576DOPG   PO452766  21.031  15.736  17.508 -0.1212 -0.0532 -0.1752
 2576DOPG   GL152767  21.146  15.428  17.237  0.0892  0.3593 -0.2442
 2576DOPG   GL252768  21.364  15.380  17.071 -0.2511 -0.0921 -0.0193
 2576DOPG   C1A52769  21.166  14.952  16.984  0.0037 -0.1376 -0.2306
 2576DOPG   D2A52770  21.197  14.493  16.738 -0.1621 -0.0098  0.3830
 2576DOPG   C3A52771  20.867  14.236  16.855 -0.0810 -0.0156  0.1548
 2576DOPG   C4A52772  20.784  13.859  17.050  0.1213  0.0418  0.0013
 2576DOPG   C1B52773  21.620  15.081  17.075 -0.1938 -0.2526 -0.1477
 2576DOPG   D2B52774  22.047  14.976  17.285 -0.0430  0.1422 -0.0478
 2576DOPG   C3B52775  22.049  14.664  17.453 -0.0957  0.3370 -0.1811
 2576DOPG   C4B52776  21.979  14.302  17.659  0.2992  0.2460  0.2910
 2577DOPG   GL052777  12.826  11.333  17.487 -0.0440  0.1756  0.1852
 2577DOPG   PO452778  12.545  10.910  17.704 -0.2162 -0.1518 -0.2824
 2577DOPG   GL152779  12.563  11.306  17.899  0.0900 -0.3556  0.3350
 2577DOPG   GL252780  12.436  11.519  18.154 -0.0386 -0.0117 -0.2579
 2577DOPG   C1A52781  12.816  11.722  17.824 -0.0087 -0.5004  0.1741
 2577DOPG   D2A52782  12.913  12.234  17.956 -0.1802  0.2100 -0.0155
 2577DOPG   C3A52783  12.815  12.608  17.907 -0.1467  0.3744  0.2404
 2577DOPG   C4A52784  12.695  12.914  18.157 -0.1433  0.0139 -0.1131
 2577DOPG   C1B52785  12.642  11.887  18.389  0.0968  0.0716  0.1336
 2577DOPG   D2B52786  12.923  12.244  18.424  0.0173 -0.1445 -0.2046
 2577DOPG   C3B52787  13.114  12.612  18.348  0.2346  0.0233 -0.0270
 2577DOPG   C4B52788  13.163  12.899  18.512 -0.2599  0.0658 -0.1425
 2578DOPG   GL052789  10.372  14.362  18.333 -0.1239 -0.0436 -0.0096
 2578DOPG   PO452790   9.954  14.257  18.531  0.1245 -0.0226 -0.1872
 2578DOPG   GL152791   9.686  14.083  18.927  0.0203  0.0424 -0.0952
 2578DOPG   GL252792   9.441  14.155  18.974  0.0945 -0.1061  0.0306
 2578DOPG   C1A52793   9.831  13.817  19.230 -0.0146  0.0847 -0.2081
 2578DOPG   D2A52794   9.756  13.482  19.350  0.0085  0.3222  0.0655
 2578DOPG   C3A52795   9.867  13.348  19.768  0.2489 -0.0673 -0.2487
 2578DOPG   C4A52796   9.855  13.132  20.143 -0.0086  0.1652 -0.0076
 2578DOPG   C1B52797   9.135  14.311  19.212  0.0051  0.0264  0.3246
 2578DOPG   D2B52798   8.987  14.452  19.663 -0.0198  0.3422 -0.0275
 2578DOPG   C3B52799   8.873  14.092  19.974 -0.0306 -0.0629 -0.5882
 2578DOPG   C4B52800   8.854  13.642  19.856  0.0642 -0.3439  0.1407
 2579DOPG   GL052801  12.112  14.595  19.583 -0.2218  0.0271 -0.0742
 2579DOPG   PO452802  12.293  14.377  19.252  0.3240  0.0765  0.2845
 2579DOPG   GL152803  12.274  14.040  18.967  0.0032  0.3911 -0.0321
 2579DOPG   GL252804  12.018  13.901  19.079  0.5870 -0.4340  0.1696
 2579DOPG   C1A52805  12.114  13.957  18.576  0.0366  0.0595  0.0950
 2579DOPG   D2A52806  12.043  14.013  18.172  0.1559 -0.1607 -0.0950
 2579DOPG   C3A52807  12.045  13.993  17.762 -0.1265 -0.1178 -0.0238
 2579DOPG   C4A52808  12.253  13.714  17.528 -0.1743  0.1608  0.2280
 2579DOPG   C1B52809  11.986  13.512  18.844 -0.2006  0.0349  0.2067
 2579DOPG   D2B52810  11.950  13.500  18.411 -0.4061  0.1091  0.0526
 2579DOPG   C3B52811  11.900  13.565  17.985 -0.0429  0.0707 -0.2286
 2579DOPG   C4B52812  11.658  13.614  17.576 -0.1497  0.0689  0.1874
 2580DOPG   GL052813  17.479  18.917  20.066  0.1115 -0.3755  0.0466
 2580DOPG   PO452814  17.675  19.066  19.762 -0.2182  0.0414  0.0317
 2580DOPG   GL152815  17.978  18.978  20.089  0.1717 -0.2246 -0.0187
 2580DOPG   GL252816  18.251  18.782  20.069 -0.3886 -0.0124  0.0365
 2580DOPG   C1A52817  18.305  19.151  20.450 -0.2279  0.3310 -0.1617
 2580DOPG   D2A52818  18.444  19.078  20.875  0.5002 -0.0102 -0.2381
 2580DOPG   C3A52819  18.693  18.712  21.084  0.1828  0.0423 -0.0624
 2580DOPG   C4A52820  18.913  18.664  21.390  0.0350 -0.2497  0.2614
 2580DOPG   C1B52821  18.641  18.923  20.094  0.1678 -0.0840  0.1978
 2580DOPG   D2B52822  19.120  18.947  20.137 -0.0450  0.0383  0.3600
 2580DOPG   C3B52823  19.349  18.638  19.773 -0.2568 -0.4563 -0.1478
 2580DOPG   C4B52824  19.315  18.255  19.575 -0.3068 -0.0437  0.1708
 2581DOPG   GL052825  16.582  16.019  19.518 -0.3566 -0.1064  0.1566
 2581DOPG   PO452826  16.866  16.189  19.577  0.2274 -0.0093 -0.0568
 2581DOPG   GL152827  16.869  16.154  19.127  0.2506  0.2125  0.2036
 2581DOPG   GL252828  16.580  16.298  19.019  0.0377 -0.3842  0.0029
 2581DOPG   C1A52829  16.968  16.041  18.774  0.1903 -0.3109 -0.2650
 2581DOPG   D2A52830  17.178  16.222  18.397 -0.0703  0.1055  0.5300
 2581DOPG   C3A52831  16.994  16.234  17.901 -0.0966 -0.2940  0.2417
 2581DOPG   C4A52832  16.738  16.436  17.607 -0.0617 -0.0202 -0.0740
 2581DOPG   C1B52833  16.514  16.133  18.657 -0.1449 -0.3057  0.0907
 2581DOPG   D2B52834  16.688  16.353  18.305 -0.2854 -0.0182  0.1683
 2581DOPG   C3B52835  16.461  16.241  18.087  0.2212  0.0257  0.1460
 2581DOPG   C4B52836  16.570  15.986  17.714 -0.2646 -0.1351  0.1075
 2582DOPG   GL052837  20.802  18.147  16.570  0.1397 -0.0243 -0.2338
 2582DOPG   PO452838  20.841  17.713  16.630  0.0426 -0.0359  0.0200
 2582DOPG   GL152839  20.773  17.431  16.980  0.0393  0.0307 -0.1740
 2582DOPG   GL252840  20.912  17.604  17.283  0.2288 -0.0523 -0.2886
 2582DOPG   C1A52841  20.619  17.126  17.227 -0.3227 -0.1216  0.1006
 2582DOPG   D2A52842  20.329  16.833  17.227 -0.0798 -0.2007 -0.1075
 2582DOPG   C3A52843  20.101  16.521  16.908  0.4553  0.3723  0.0096
 2582DOPG   C4A52844  19.839  16.250  16.703  0.0910  0.0258 -0.0730
 2582DOPG   C1B52845  20.759  17.515  17.667 -0.0754 -0.0650 -0.0133
 2582DOPG   D2B52846  20.859  17.158  17.917  0.0281 -0.2171  0.1977
 2582DOPG   C3B52847  20.982  17.133  18.343 -0.0464  0.1163 -0.0474
 2582DOPG   C4B52848  21.085  16.962  18.745  0.0393  0.0341  0.1382
 2583DOPG   GL052849  16.633  12.453  18.402 -0.1346 -0.1002  0.4685
 2583DOPG   PO452850  16.566  11.985  18.583  0.2400 -0.0456 -0.0494
 2583DOPG   GL152851  16.955  11.707  18.678  0.1797  0.0479  0.1982
 2583DOPG   GL252852  17.242  11.717  18.977  0.5509  0.0356  0.1820
 2583DOPG   C1A52853  17.269  11.372  18.522 -0.0518  0.0975  0.0833
 2583DOPG   D2A52854  17.692  11.258  18.628  0.3726 -0.2018 -0.2230
 2583DOPG   C3A52855  17.781  11.049  19.028 -0.0858  0.0971 -0.2750
 2583DOPG   C4A52856  17.766  10.994  19.499 -0.0912 -0.0719  0.2363
 2583DOPG   C1B52857  16.992  11.257  18.940 -0.0143  0.2175 -0.0972
 2583DOPG   D2B52858  16.811  10.828  19.039  0.0784 -0.0395 -0.2707
 2583DOPG   C3B52859  16.787  10.734  19.435  0.1292  0.3545 -0.0093
 2583DOPG   C4B52860  16.484  10.510  19.615 -0.1326  0.1058 -0.2540
 2584DOPG   GL052861  16.747  17.809  19.529  0.2507 -0.1279 -0.0119
 2584DOPG   PO452862  16.794  17.828  19.093  0.4419  0.1914 -0.1490
 2584DOPG   GL152863  16.802  17.568  18.782  0.4395  0.2669 -0.0307
 2584DOPG   GL252864  16.599  17.350  18.681  0.0696  0.0981 -0.5354
 2584DOPG   C1A52865  16.939  17.524  18.385 -0.0611 -0.0788  0.0875
 2584DOPG   D2A52866  16.828  17.732  18.012 -0.0623 -0.2241  0.0594
 2584DOPG   C3A52867  17.109  18.054  17.888  0.1078 -0.1227 -0.1654
 2584DOPG   C4A52868  17.126  18.298  17.550 -0.1747  0.2032 -0.1999
 2584DOPG   C1B52869  16.776  17.074  18.398  0.0360  0.3452  0.0742
 2584DOPG   D2B52870  16.663  17.251  17.884  0.1502  0.1823 -0.2256
 2584DOPG   C3B52871  16.655  16.976  17.554 -0.2999 -0.0459  0.0983
 2584DOPG   C4B52872  16.687  16.766  17.091 -0.0592  0.1949  0.1960
 2585DOPG   GL052873  10.318  19.350  18.424  0.0457 -0.1533 -0.0227
 2585DOPG   PO452874  10.702  19.606  18.272 -0.0706  0.3622  0.1010
 2585DOPG   GL152875  11.062  19.307  18.258 -0.1030  0.2297 -0.0262
 2585DOPG   GL252876  10.782  19.071  18.139  0.0777 -0.2273 -0.1273
 2585DOPG   C1A52877  11.538  19.166  18.251  0.2197  0.0290  0.0842
 2585DOPG   D2A52878  11.743  18.831  17.885 -0.3486 -0.0903 -0.2183
 2585DOPG   C3A52879  11.985  18.383  18.145 -0.0790 -0.2030  0.1822
 2585DOPG   C4A52880  11.968  17.917  18.202 -0.0056 -0.1956  0.2065
 2585DOPG   C1B52881  10.702  19.005  18.559 -0.2320 -0.0762  0.1795
 2585DOPG   D2B52882  10.532  18.762  18.730  0.1940 -0.1899  0.1994
 2585DOPG   C3B52883  10.817  18.516  18.655 -0.2766  0.0063 -0.2012
 2585DOPG   C4B52884  10.961  18.119  18.824  0.2227  0.1110 -0.6041
 2586DOPG   GL052885  21.068  14.818  18.378  0.1219 -0.0272  0.1712
 2586DOPG   PO452886  21.104  15.154  18.737  0.3612  0.2260  0.1514
 2586DOPG   GL152887  21.247  14.807  18.962  0.0413  0.1069  0.0948
 2586DOPG   GL252888  20.942  14.584  18.899  0.1362  0.1653 -0.1185
 2586DOPG   C1A52889  21.413  14.453  18.742  0.0743 -0.0327 -0.3061
 2586DOPG   D2A52890  21.655  14.136  18.631  0.1677 -0.1044 -0.1323
 2586DOPG   C3A52891  21.786  13.748  18.881  0.4579  0.1971  0.0245
 2586DOPG   C4A52892  22.207  13.598  18.701 -0.2215 -0.2085  0.0981
 2586DOPG   C1B52893  21.136  14.405  19.336 -0.2247 -0.0476  0.0965
 2586DOPG   D2B52894  21.381  14.512  19.763  0.0172  0.0845  0.0432
 2586DOPG   C3B52895  21.796  14.328  19.752  0.3683  0.1792  0.1139
 2586DOPG   C4B52896  22.021  14.292  19.428 -0.0926  0.2605  0.0487
 2587DOPG   GL052897  12.571  10.389  19.360 -0.1730 -0.4181 -0.0298
 2587DOPG   PO452898  12.332  10.583  19.643  0.0613  0.0207 -0.0408
 2587DOPG   GL152899  12.635  10.865  19.660 -0.2273 -0.1315 -0.2501
 2587DOPG   GL252900  12.863  10.700  19.883 -0.1280 -0.0065 -0.0662
 2587DOPG   C1A52901  12.743  11.264  19.819  0.0390  0.6069  0.1270
 2587DOPG   D2A52902  12.634  11.563  20.170  0.1800 -0.1148  0.0967
 2587DOPG   C3A52903  12.403  11.351  20.529  0.1741  0.0351  0.0076
 2587DOPG   C4A52904  11.965  11.271  20.622  0.0960 -0.2167 -0.0483
 2587DOPG   C1B52905  13.190  10.676  20.195 -0.0978  0.0281 -0.1030
 2587DOPG   D2B52906  13.374  10.952  20.549 -0.0920 -0.1243  0.0474
 2587DOPG   C3B52907  13.158  11.313  20.849  0.2856  0.1080  0.1268
 2587DOPG   C4B52908  13.086  11.691  21.120  0.0191 -0.1435  0.2769
 2588DOPG   GL052909  11.075  16.336  19.232  0.2470 -0.2325  0.1849
 2588DOPG   PO452910  11.232  16.147  19.553 -0.2430 -0.2741 -0.0761
 2588DOPG   GL152911  11.079  15.865  19.775  0.1153 -0.1160 -0.1239
 2588DOPG   GL252912  10.868  15.571  19.761 -0.0771 -0.2823 -0.0185
 2588DOPG   C1A52913  10.800  15.833  20.217 -0.0116 -0.2742 -0.3745
 2588DOPG   D2A52914  10.951  16.147  20.496  0.0546  0.1736  0.4252
 2588DOPG   C3A52915  10.754  16.451  20.596  0.2136 -0.0366 -0.0462
 2588DOPG   C4A52916  10.899  16.658  21.007 -0.0276 -0.2304 -0.1066
 2588DOPG   C1B52917  11.004  15.449  20.063 -0.2641  0.0460  0.2355
 2588DOPG   D2B52918  10.959  15.286  20.457  0.0264 -0.1980 -0.0601
 2588DOPG   C3B52919  11.107  15.184  20.907  0.1524  0.0250  0.2698
 2588DOPG   C4B52920  11.071  15.231  21.276  0.2022 -0.0582 -0.2930
 2589DOPG   GL052921  18.195  13.819  18.754  0.1061  0.1489  0.1346
 2589DOPG   PO452922  18.016  13.910  18.276 -0.1878 -0.0301 -0.1299
 2589DOPG   GL152923  17.709  14.331  18.275 -0.0826  0.1327  0.1486
 2589DOPG   GL252924  17.555  14.347  18.501  0.4706 -0.1172  0.1949
 2589DOPG   C1A52925  17.687  14.765  18.266  0.0703  0.2110 -0.2056
 2589DOPG   D2A52926  17.312  15.031  18.460  0.1677 -0.0459  0.0793
 2589DOPG   C3A52927  17.019  15.258  18.248  0.0207 -0.1629  0.0283
 2589DOPG   C4A52928  16.833  15.634  18.026 -0.3396 -0.1007  0.0170
 2589DOPG   C1B52929  17.212  14.576  18.637 -0.1656  0.1281 -0.1469
 2589DOPG   D2B52930  17.134  14.847  18.924 -0.0211  0.1361  0.0734
 2589DOPG   C3B52931  16.948  14.596  19.256  0.3537 -0.0376  0.1100
 2589DOPG   C4B52932  17.007  14.577  19.656 -0.1726  0.0518 -0.0403
 2590DOPG   GL052933  15.648  16.373  19.588  0.1130  0.1613 -0.0651
 2590DOPG   PO452934  15.543  15.977  19.800 -0.0226  0.0745 -0.0114
 2590DOPG   GL152935  15.717  15.903  19.405 -0.2220  0.2477  0.0025
 2590DOPG   GL252936  15.581  15.903  19.004  0.4893  0.2286  0.1514
 2590DOPG   C1A52937  16.161  15.795  19.290 -0.0522 -0.0510  0.1449
 2590DOPG   D2A52938  16.511  15.810  19.063 -0.1330  0.1017  0.1113
 2590DOPG   C3A52939  16.661  15.385  19.128 -0.0351 -0.1586  0.0153
 2590DOPG   C4A52940  17.026  15.176  19.264 -0.1523  0.0965  0.2155
 2590DOPG   C1B52941  15.691  15.655  18.549 -0.0327  0.2299  0.0050
 2590DOPG   D2B52942  16.035  15.494  18.345  0.0325 -0.0948  0.0551
 2590DOPG   C3B52943  16.032  15.849  17.929  0.0820 -0.1803  0.2614
 2590DOPG   C4B52944  15.925  16.193  17.875  0.2320  0.3247  0.1679
 2591DOPG   GL052945  16.680  15.820  20.426  0.2087 -0.1380  0.0320
 2591DOPG   PO452946  16.551  15.425  20.298  0.0568  0.2209  0.0506
 2591DOPG   GL152947  16.387  15.385  20.675  0.1179  0.2018  0.1780
 2591DOPG   GL252948  16.145  15.451  20.912 -0.2387 -0.1494  0.1637
 2591DOPG   C1A52949  16.321  14.936  20.855 -0.0225 -0.0554  0.0078
 2591DOPG   D2A52950  16.292  14.580  20.933 -0.2850  0.2506  0.3356
 2591DOPG   C3A52951  16.563  14.261  21.163 -0.0253 -0.1141 -0.1428
 2591DOPG   C4A52952  16.545  13.951  21.453 -0.0349  0.1265  0.3918
 2591DOPG   C1B52953  16.019  15.085  21.192 -0.1432  0.3206  0.1440
 2591DOPG   D2B52954  15.953  14.849  21.524  0.1195 -0.2085 -0.2850
 2591DOPG   C3B52955  15.746  15.102  21.678 -0.1761 -0.2003 -0.0682
 2591DOPG   C4B52956  15.686  15.607  21.732 -0.0148  0.1283  0.0043
 2592DOPG   GL052957  13.213  18.922  19.858  0.1707  0.1822  0.0588
 2592DOPG   PO452958  12.814  18.647  19.776 -0.3374 -0.2307 -0.4222
 2592DOPG   GL152959  12.780  18.928  20.121 -0.0189 -0.0375  0.2841
 2592DOPG   GL252960  12.895  18.710  20.319  0.0112  0.2571  0.0754
 2592DOPG   C1A52961  12.588  19.342  20.155 -0.0189 -0.0218  0.2217
 2592DOPG   D2A52962  12.180  19.483  20.251 -0.2328  0.3235 -0.0959
 2592DOPG   C3A52963  12.082  19.498  20.641  0.0603  0.3880  0.2114
 2592DOPG   C4A52964  11.793  19.338  20.825 -0.1047  0.0439 -0.2438
 2592DOPG   C1B52965  13.020  19.123  20.501 -0.0796  0.1770  0.2114
 2592DOPG   D2B52966  13.119  19.244  20.878  0.0574  0.0473 -0.1458
 2592DOPG   C3B52967  12.831  19.282  21.157 -0.0837  0.1255  0.0890
 2592DOPG   C4B52968  12.614  19.251  21.507  0.0783  0.0794  0.2449
 2593DOPG   GL052969  24.905  18.142  18.271  0.0477  0.2909  0.0713
 2593DOPG   PO452970  24.997  18.329  17.773  0.0231 -0.3095 -0.0116
 2593DOPG   GL152971  25.258  18.506  17.651 -0.2335 -0.4175  0.1609
 2593DOPG   GL252972  25.368  18.806  17.480  0.0344 -0.1513  0.0561
 2593DOPG   C1A52973  25.558  18.688  17.980  0.0339 -0.4566 -0.0526
 2593DOPG   D2A52974  25.651  19.151  18.010 -0.2095 -0.0700 -0.1369
 2593DOPG   C3A52975  25.966  19.353  18.248  0.2127 -0.3081  0.1002
 2593DOPG   C4A52976  26.278  19.492  18.482  0.0412 -0.1509  0.3947
 2593DOPG   C1B52977  25.534  19.185  17.505 -0.0020 -0.1899  0.1592
 2593DOPG   D2B52978  25.722  19.364  17.098  0.0437 -0.3606  0.0424
 2593DOPG   C3B52979  26.188  19.040  16.978 -0.1119  0.0409 -0.0868
 2593DOPG   C4B52980  26.440  18.660  17.039 -0.0003 -0.3339 -0.0489
 2594DOPG   GL052981   5.974  22.318  18.577 -0.2107 -0.0938  0.2461
 2594DOPG   PO452982   6.117  21.912  18.508 -0.1773  0.0231  0.1314
 2594DOPG   GL152983   6.330  21.561  18.770 -0.4465  0.1371  0.0197
 2594DOPG   GL252984   6.316  21.724  19.046 -0.1035  0.1512  0.1360
 2594DOPG   C1A52985   6.695  21.368  18.915 -0.2807  0.4406 -0.1340
 2594DOPG   D2A52986   7.191  21.432  19.020 -0.4562  0.0537 -0.0734
 2594DOPG   C3A52987   7.507  21.749  19.330 -0.2152  0.0647  0.2819
 2594DOPG   C4A52988   7.806  22.055  19.447  0.2215  0.0400  0.2171
 2594DOPG   C1B52989   6.664  21.640  19.300  0.0291 -0.0292  0.1812
 2594DOPG   D2B52990   6.747  21.379  19.545  0.2604  0.0813 -0.2159
 2594DOPG   C3B52991   7.223  21.344  19.547  0.0899  0.2703 -0.1515
 2594DOPG   C4B52992   7.480  21.217  19.929 -0.0492 -0.0397  0.0201
 2595DOPG   GL052993  13.803  11.442  16.567  0.0486  0.1892  0.2042
 2595DOPG   PO452994  13.851  11.490  17.063 -0.0787  0.0179  0.0055
 2595DOPG   GL152995  13.626  11.677  17.265  0.1192  0.1734 -0.0217
 2595DOPG   GL252996  13.526  11.994  17.082  0.5267 -0.1820  0.1025
 2595DOPG   C1A52997  13.310  11.930  17.600 -0.0153 -0.0885  0.2073
 2595DOPG   D2A52998  12.936  12.153  17.454  0.0610 -0.1806  0.0294
 2595DOPG   C3A52999  12.941  12.524  17.304  0.0455  0.1204  0.0784
 2595DOPG   C4A53000  12.648  12.889  17.536 -0.0529 -0.1812 -0.2228
 2595DOPG   C1B53001  13.459  12.313  17.324 -0.1480  0.0248  0.0992
 2595DOPG   D2B53002  13.364  12.805  17.320 -0.0313 -0.1888 -0.2265
 2595DOPG   C3B53003  13.231  13.018  17.529 -0.0797 -0.2554  0.3044
 2595DOPG   C4B53004  13.030  13.340  17.680  0.0223  0.0483  0.1462
 2596DOPG   GL053005   9.456  19.236  18.494  0.0433  0.4085  0.2213
 2596DOPG   PO453006   9.906  19.162  18.642  0.3437  0.0477  0.0606
 2596DOPG   GL153007  10.121  19.378  19.013 -0.0321  0.1552 -0.2134
 2596DOPG   GL253008  10.365  19.329  18.941 -0.0977 -0.1154  0.2666
 2596DOPG   C1A53009  10.047  19.378  19.414 -0.1841  0.0227 -0.2426
 2596DOPG   D2A53010   9.909  19.361  19.850  0.1090  0.3564 -0.0332
 2596DOPG   C3A53011   9.479  19.383  19.905  0.4289 -0.1023 -0.1521
 2596DOPG   C4A53012   9.181  19.414  19.521 -0.1654  0.0705 -0.0500
 2596DOPG   C1B53013  10.409  19.029  19.303  0.3687 -0.3814 -0.2808
 2596DOPG   D2B53014  10.109  18.878  19.706  0.2050  0.0274 -0.0686
 2596DOPG   C3B53015  10.155  18.527  20.079  0.0308  0.0985 -0.0207
 2596DOPG   C4B53016   9.835  18.502  20.416 -0.0364 -0.2249  0.2412
 2597DOPG   GL053017  11.885  15.542  19.709  0.0386 -0.1817 -0.0728
 2597DOPG   PO453018  11.588  15.765  19.467 -0.0363 -0.1116 -0.0074
 2597DOPG   GL153019  11.633  15.907  19.959 -0.1230 -0.1799  0.2746
 2597DOPG   GL253020  11.722  16.201  20.026  0.2066 -0.2707  0.2102
 2597DOPG   C1A53021  11.433  15.930  20.364  0.3761 -0.0987 -0.0543
 2597DOPG   D2A53022  11.214  15.682  20.698 -0.3352  0.1153 -0.0180
 2597DOPG   C3A53023  10.780  15.572  20.822 -0.0304 -0.0090 -0.0831
 2597DOPG   C4A53024  10.364  15.581  20.956  0.0485 -0.0270  0.0561
 2597DOPG   C1B53025  11.375  16.479  20.245 -0.0196 -0.1159 -0.0799
 2597DOPG   D2B53026  11.274  16.734  20.578 -0.0979 -0.2576 -0.1582
 2597DOPG   C3B53027  11.202  17.202  20.385 -0.0718  0.1968  0.3802
 2597DOPG   C4B53028  11.201  17.563  20.153  0.0891 -0.1020  0.2873
 2598DOPG   GL053029  16.167  16.863  20.365  0.0335  0.1223  0.0937
 2598DOPG   PO453030  16.340  17.217  20.607 -0.2586 -0.1756  0.0158
 2598DOPG   GL153031  16.676  17.487  20.880 -0.1269 -0.1444 -0.0677
 2598DOPG   GL253032  17.061  17.428  20.873 -0.0990  0.1798  0.0033
 2598DOPG   C1A53033  16.838  17.636  21.275 -0.2454 -0.0485  0.0700
 2598DOPG   D2A53034  16.818  17.956  21.654  0.1456  0.0289  0.3648
 2598DOPG   C3A53035  16.846  17.713  22.059 -0.2818 -0.1360  0.0400
 2598DOPG   C4A53036  16.914  17.406  22.415  0.1377 -0.4252  0.0770
 2598DOPG   C1B53037  17.395  17.467  21.237 -0.1446 -0.0568  0.1216
 2598DOPG   D2B53038  17.413  17.258  21.579  0.0816  0.0704  0.0575
 2598DOPG   C3B53039  17.618  17.245  21.816 -0.0693 -0.0059  0.0480
 2598DOPG   C4B53040  17.719  17.280  22.287  0.1172 -0.1183  0.0867
 2599DOPG   GL053041  15.614  18.849  18.704 -0.1027  0.3076  0.0815
 2599DOPG   PO453042  16.014  18.742  18.743 -0.2648 -0.1622  0.4269
 2599DOPG   GL153043  16.257  18.617  18.496  0.0003  0.4408  0.0254
 2599DOPG   GL253044  16.520  18.425  18.492 -0.3471  0.1894  0.1859
 2599DOPG   C1A53045  16.416  18.746  18.063  0.0704  0.0556  0.0750
 2599DOPG   D2A53046  16.547  19.213  17.854  0.0498  0.3423 -0.0228
 2599DOPG   C3A53047  16.863  19.245  17.600  0.0160  0.0867  0.2151
 2599DOPG   C4A53048  17.075  18.974  17.395 -0.2467 -0.0342 -0.0588
 2599DOPG   C1B53049  16.867  18.023  18.409 -0.0351  0.0253 -0.0378
 2599DOPG   D2B53050  17.374  17.896  18.432  0.3692  0.1930  0.4184
 2599DOPG   C3B53051  17.427  17.430  18.382  0.0094 -0.0020 -0.2902
 2599DOPG   C4B53052  17.273  17.030  18.585 -0.3214  0.0143  0.0242
 2600DOPG   GL053053   6.493  23.317  17.957 -0.0626  0.1009 -0.1105
 2600DOPG   PO453054   6.443  22.967  17.680  0.1361  0.0996 -0.1302
 2600DOPG   GL153055   6.726  22.795  17.845 -0.1807 -0.0747  0.4177
 2600DOPG   GL253056   6.713  22.579  18.056  0.0977  0.0256  0.1298
 2600DOPG   C1A53057   7.108  23.051  17.974 -0.1278  0.0735  0.4105
 2600DOPG   D2A53058   7.459  23.155  17.916 -0.4866 -0.1455 -0.3788
 2600DOPG   C3A53059   7.605  23.168  17.493 -0.0162 -0.2616 -0.1316
 2600DOPG   C4A53060   7.807  22.869  17.168 -0.3333 -0.0049 -0.1593
 2600DOPG   C1B53061   7.026  22.202  18.254  0.2617 -0.1631 -0.0195
 2600DOPG   D2B53062   6.812  21.800  18.353  0.1288 -0.1416 -0.1605
 2600DOPG   C3B53063   7.024  21.451  18.560  0.0133  0.1018  0.0737
 2600DOPG   C4B53064   7.036  21.088  18.625  0.2478 -0.0274 -0.4911
 2601DOPG   GL053065  12.856  16.947  20.249 -0.0321 -0.2038 -0.0843
 2601DOPG   PO453066  12.779  16.964  19.916 -0.1612 -0.1144  0.2548
 2601DOPG   GL153067  12.599  17.388  20.012  0.3036  0.1523 -0.0570
 2601DOPG   GL253068  12.704  17.712  19.995  0.1149 -0.1930  0.1092
 2601DOPG   C1A53069  12.279  17.586  20.253 -0.0557  0.1260  0.1027
 2601DOPG   D2A53070  12.214  17.890  20.696 -0.0606  0.1185  0.1927
 2601DOPG   C3A53071  11.699  18.126  20.660  0.1198  0.1524 -0.0825
 2601DOPG   C4A53072  11.288  18.366  20.841 -0.0133  0.3218  0.0558
 2601DOPG   C1B53073  12.457  18.041  20.180 -0.0521  0.3184  0.2247
 2601DOPG   D2B53074  11.964  18.247  20.194 -0.0249  0.3376 -0.2523
 2601DOPG   C3B53075  11.824  18.575  20.533  0.0298 -0.0988 -0.0044
 2601DOPG   C4B53076  11.577  18.883  20.696 -0.0050 -0.0270  0.2381
 2602DOPG   GL053077  13.640  14.432  20.929  0.2465 -0.1387 -0.1502
 2602DOPG   PO453078  13.271  14.525  20.748  0.2756 -0.1109 -0.0009
 2602DOPG   GL153079  13.161  14.295  21.155 -0.0553  0.0102 -0.1952
 2602DOPG   GL253080  13.226  13.983  21.202 -0.0453  0.0173  0.0155
 2602DOPG   C1A53081  12.944  14.240  21.513 -0.1266 -0.1352 -0.0198
 2602DOPG   D2A53082  12.774  14.616  21.827 -0.0828 -0.0659 -0.0583
 2602DOPG   C3A53083  12.294  14.695  21.841 -0.4391  0.2562 -0.2604
 2602DOPG   C4A53084  11.944  14.965  21.798 -0.4615 -0.0573  0.2855
 2602DOPG   C1B53085  13.469  14.054  21.569 -0.2340  0.2007 -0.0315
 2602DOPG   D2B53086  13.633  13.962  21.895 -0.1688  0.1320 -0.0335
 2602DOPG   C3B53087  14.108  13.870  21.967 -0.0285 -0.0910 -0.0928
 2602DOPG   C4B53088  14.429  13.613  21.810  0.0402 -0.0702  0.1429
 2603DOPG   GL053089  15.936  11.819  18.236 -0.0872  0.2257  0.0850
 2603DOPG   PO453090  16.208  11.490  18.445 -0.2176  0.1945  0.0139
 2603DOPG   GL153091  16.112  11.278  18.816  0.1918  0.0694 -0.0832
 2603DOPG   GL253092  15.825  11.066  18.934 -0.1533 -0.0795  0.0457
 2603DOPG   C1A53093  16.021  11.237  19.333 -0.1254 -0.0422  0.0799
 2603DOPG   D2A53094  16.281  11.152  19.630  0.2075 -0.1561  0.1263
 2603DOPG   C3A53095  16.213  10.819  19.936 -0.2503  0.1485  0.1735
 2603DOPG   C4A53096  16.405  10.499  20.199 -0.0647  0.2387 -0.3014
 2603DOPG   C1B53097  15.499  10.867  19.203 -0.0503 -0.1852 -0.2483
 2603DOPG   D2B53098  15.538  10.441  19.386  0.1324  0.1093  0.1582
 2603DOPG   C3B53099  15.476  10.211  19.751 -0.3606  0.0026 -0.1567
 2603DOPG   C4B53100  15.065  10.195  20.016 -0.1892 -0.1074  0.3331
 2604DOPG   GL053101   9.668  15.469  18.697 -0.0826  0.0364  0.1258
 2604DOPG   PO453102   9.401  15.828  18.724  0.2183  0.1079  0.0440
 2604DOPG   GL153103   9.239  15.657  19.137 -0.0735 -0.4424  0.6416
 2604DOPG   GL253104   9.329  15.328  19.189  0.2100  0.0970 -0.1326
 2604DOPG   C1A53105   8.887  15.737  19.303 -0.3075  0.2235  0.3480
 2604DOPG   D2A53106   8.545  15.466  19.289 -0.2621 -0.3244  0.1684
 2604DOPG   C3A53107   8.526  15.120  19.168 -0.2455  0.0641  0.3245
 2604DOPG   C4A53108   8.543  14.978  18.813  0.0416  0.3602 -0.2598
 2604DOPG   C1B53109   9.197  15.182  19.565 -0.2113 -0.3021  0.0078
 2604DOPG   D2B53110   8.845  15.422  19.739 -0.0113 -0.1617  0.0162
 2604DOPG   C3B53111   8.880  15.889  19.831 -0.2475  0.0096  0.1717
 2604DOPG   C4B53112   8.484  16.195  19.958  0.0712 -0.3592  0.0873
 2605DOPG   GL053113   9.668  13.673  17.982 -0.0556 -0.1737  0.0897
 2605DOPG   PO453114   9.655  13.853  18.314  0.2352  0.3279  0.1043
 2605DOPG   GL153115   9.732  13.679  18.649  0.1667  0.0278 -0.0251
 2605DOPG   GL253116   9.409  13.678  18.826  0.3193  0.1080 -0.0981
 2605DOPG   C1A53117  10.156  13.607  18.977  0.0752  0.1678  0.3687
 2605DOPG   D2A53118  10.337  13.198  19.092  0.3122  0.0383  0.0468
 2605DOPG   C3A53119  10.110  13.089  19.476 -0.3365 -0.3015  0.1781
 2605DOPG   C4A53120   9.798  12.840  19.470  0.1833  0.1347 -0.0720
 2605DOPG   C1B53121   9.351  13.694  19.255 -0.0701 -0.1590 -0.1734
 2605DOPG   D2B53122   9.137  13.885  19.512  0.0638 -0.2713  0.0458
 2605DOPG   C3B53123   9.335  14.024  19.969 -0.2171 -0.1991 -0.2645
 2605DOPG   C4B53124   9.669  14.288  19.954  0.3357  0.0172 -0.3850
 2606DOPG   GL053125  15.587  15.161  19.817 -0.2825  0.3132 -0.1741
 2606DOPG   PO453126  15.805  15.545  19.749 -0.0992 -0.1218  0.0997
 2606DOPG   GL153127  15.703  15.321  19.366  0.0362 -0.3177  0.1264
 2606DOPG   GL253128  15.747  14.980  19.415  0.2697 -0.4288  0.1370
 2606DOPG   C1A53129  15.542  15.350  18.925  0.0336  0.1602  0.3132
 2606DOPG   D2A53130  15.311  15.098  18.611 -0.3115  0.1977  0.0340
 2606DOPG   C3A53131  15.538  15.195  18.242  0.0723 -0.0208  0.1218
 2606DOPG   C4A53132  15.909  15.272  17.893 -0.1712  0.2543 -0.0699
 2606DOPG   C1B53133  15.887  14.839  18.987 -0.3120 -0.1080  0.1172
 2606DOPG   D2B53134  15.881  15.091  18.608  0.0224 -0.1131 -0.1860
 2606DOPG   C3B53135  15.946  14.856  18.163  0.1144  0.0497  0.1949
 2606DOPG   C4B53136  15.745  14.474  17.914 -0.2249 -0.3491  0.0153
 2607DOPG   GL053137  17.876  20.579  18.745 -0.2176 -0.0680  0.1856
 2607DOPG   PO453138  17.755  20.987  18.532  0.1270  0.1522 -0.2699
 2607DOPG   GL153139  17.824  21.429  18.643 -0.0728  0.4002 -0.0549
 2607DOPG   GL253140  17.949  21.212  18.925 -0.1262  0.3237 -0.0933
 2607DOPG   C1A53141  17.687  21.795  18.714 -0.2433  0.0687  0.0638
 2607DOPG   D2A53142  17.979  22.068  18.891  0.0326 -0.3217 -0.0730
 2607DOPG   C3A53143  17.840  22.050  19.297  0.1612  0.0651  0.0649
 2607DOPG   C4A53144  17.502  22.197  19.531  0.0934  0.0738  0.0481
 2607DOPG   C1B53145  17.736  20.976  19.261 -0.3806 -0.2744 -0.0004
 2607DOPG   D2B53146  17.697  20.967  19.700 -0.3172  0.3388  0.1567
 2607DOPG   C3B53147  18.080  21.033  20.029 -0.2605 -0.2624  0.2327
 2607DOPG   C4B53148  18.443  20.742  20.183  0.2838  0.2937  0.1847
 2608DOPG   GL053149   7.634  19.431  17.242 -0.1608  0.0664  0.3369
 2608DOPG   PO453150   7.478  19.155  17.508  0.0334 -0.1571  0.1979
 2608DOPG   GL153151   7.294  19.237  17.938  0.0547 -0.3188 -0.2806
 2608DOPG   GL253152   6.954  19.297  17.974 -0.0512 -0.0153 -0.3652
 2608DOPG   C1A53153   7.200  19.077  18.415  0.0864  0.1749  0.2595
 2608DOPG   D2A53154   7.170  18.892  18.804 -0.0449  0.0314 -0.0075
 2608DOPG   C3A53155   7.599  18.736  18.926  0.2577 -0.0619 -0.0193
 2608DOPG   C4A53156   7.702  18.529  19.197  0.0096  0.0093  0.0286
 2608DOPG   C1B53157   6.727  19.017  18.131  0.2334 -0.3288 -0.3502
 2608DOPG   D2B53158   6.411  18.773  18.051 -0.1059 -0.3296 -0.0826
 2608DOPG   C3B53159   6.136  18.700  18.348 -0.2809 -0.1058  0.1904
 2608DOPG   C4B53160   6.005  18.620  18.713 -0.0434 -0.2097  0.2682
 2609DOPG   GL053161  16.241  12.343  18.723  0.1589 -0.2267 -0.1185
 2609DOPG   PO453162  16.065  12.446  19.083 -0.2284 -0.0170  0.1164
 2609DOPG   GL153163  16.281  12.788  19.304  0.0625  0.1879  0.0803
 2609DOPG   GL253164  16.544  12.577  19.656  0.2153 -0.2282  0.0876
 2609DOPG   C1A53165  16.325  13.314  19.359 -0.3016 -0.0572  0.1959
 2609DOPG   D2A53166  16.089  13.653  19.621 -0.2768 -0.0632 -0.0653
 2609DOPG   C3A53167  16.230  13.837  20.094 -0.0752 -0.0358  0.4183
 2609DOPG   C4A53168  16.125  13.941  20.345  0.0290 -0.1799  0.0100
 2609DOPG   C1B53169  16.348  12.900  19.802 -0.0192  0.1723  0.1120
 2609DOPG   D2B53170  16.023  12.997  20.130 -0.0126 -0.0915  0.1582
 2609DOPG   C3B53171  15.691  13.220  19.990 -0.1305 -0.1002 -0.2505
 2609DOPG   C4B53172  15.274  13.293  20.140  0.0912  0.1617  0.2242
 2610DOPG   GL053173  16.458  17.487  19.225 -0.1238 -0.2609  0.0795
 2610DOPG   PO453174  16.234  17.551  18.978 -0.2377  0.2290  0.3303
 2610DOPG   GL153175  16.177  17.587  18.539  0.2172 -0.2216  0.0523
 2610DOPG   GL253176  16.441  17.754  18.336  0.1355 -0.2458  0.2202
 2610DOPG   C1A53177  15.877  17.506  18.258 -0.2342  0.2606 -0.0820
 2610DOPG   D2A53178  15.565  17.541  17.975  0.0357  0.1299 -0.0607
 2610DOPG   C3A53179  15.639  17.436  17.614 -0.3922 -0.1966  0.1955
 2610DOPG   C4A53180  15.740  17.234  17.324 -0.3296  0.2619  0.0066
 2610DOPG   C1B53181  16.226  17.666  17.887  0.0609 -0.1829  0.0203
 2610DOPG   D2B53182  16.269  17.464  17.484 -0.0443  0.1847  0.1741
 2610DOPG   C3B53183  16.504  17.743  17.103 -0.3073 -0.0896 -0.3459
 2610DOPG   C4B53184  16.487  18.021  16.741 -0.0835  0.0053  0.0277
 2611DOPG   GL053185  21.170  15.673  18.862  0.2692 -0.0467  0.1787
 2611DOPG   PO453186  21.355  15.407  19.093 -0.0949  0.2500 -0.1996
 2611DOPG   GL153187  21.623  15.128  19.075  0.0929 -0.0461 -0.1320
 2611DOPG   GL253188  21.847  15.094  19.425  0.1344  0.0867 -0.0986
 2611DOPG   C1A53189  21.860  14.754  18.964  0.6666  0.0881 -0.0991
 2611DOPG   D2A53190  21.985  14.325  18.910  0.2173 -0.1915 -0.0884
 2611DOPG   C3A53191  22.132  14.170  18.511 -0.2185 -0.3103  0.0567
 2611DOPG   C4A53192  22.271  14.127  18.090  0.0735 -0.1259  0.1964
 2611DOPG   C1B53193  22.206  15.159  19.686 -0.2481 -0.0266 -0.0096
 2611DOPG   D2B53194  22.393  15.338  20.009  0.3936  0.2027 -0.0623
 2611DOPG   C3B53195  22.181  15.578  20.340  0.0708  0.0717 -0.1985
 2611DOPG   C4B53196  22.027  15.705  20.675  0.0337 -0.0886  0.0910
 2612DOPG   GL053197  12.599  17.259  19.526 -0.1142  0.3430 -0.1263
 2612DOPG   PO453198  12.464  17.392  19.186  0.2574 -0.4624  0.1090
 2612DOPG   GL153199  12.456  17.837  19.322 -0.1327 -0.1616  0.2354
 2612DOPG   GL253200  12.286  17.795  19.512 -0.1673  0.0577  0.1352
 2612DOPG   C1A53201  12.086  18.099  19.103  0.2915 -0.2580  0.3147
 2612DOPG   D2A53202  11.800  18.429  19.033  0.0541 -0.0497  0.0407
 2612DOPG   C3A53203  11.495  18.328  19.028  0.1270 -0.2750  0.1638
 2612DOPG   C4A53204  11.258  18.282  19.353  0.0166  0.0195  0.0878
 2612DOPG   C1B53205  11.923  17.781  19.878 -0.0891  0.2235 -0.0461
 2612DOPG   D2B53206  11.546  17.935  19.952 -0.0105  0.2762 -0.3023
 2612DOPG   C3B53207  11.450  18.035  20.288  0.4231  0.2571 -0.2335
 2612DOPG   C4B53208  11.028  17.876  20.505  0.0715  0.1799  0.4917
 2613DOPG   GL053209  23.027  20.303  18.564  0.2310 -0.4123  0.1173
 2613DOPG   PO453210  22.803  20.354  18.172 -0.0814 -0.0577 -0.2342
 2613DOPG   GL153211  22.653  20.762  18.310 -0.3510 -0.0329  0.0796
 2613DOPG   GL253212  22.503  20.931  18.069  0.0846  0.0743 -0.3964
 2613DOPG   C1A53213  22.769  21.263  18.500  0.0530  0.3466 -0.1569
 2613DOPG   D2A53214  22.419  21.638  18.609 -0.1002 -0.3886  0.0800
 2613DOPG   C3A53215  22.487  22.011  18.630 -0.0828  0.0041 -0.1994
 2613DOPG   C4A53216  22.614  22.402  18.417  0.1085  0.0153 -0.3489
 2613DOPG   C1B53217  22.377  21.321  17.996  0.0650  0.1728 -0.1631
 2613DOPG   D2B53218  22.631  21.613  18.111 -0.1180 -0.0175 -0.0587
 2613DOPG   C3B53219  22.621  21.989  17.877 -0.0276 -0.0586  0.2347
 2613DOPG   C4B53220  22.880  22.336  17.875 -0.0990  0.1542 -0.2135
 2614DOPG   GL053221  14.446  21.502  17.156  0.0269  0.3980 -0.3238
 2614DOPG   PO453222  14.125  21.622  16.854  0.1765 -0.1102  0.0215
 2614DOPG   GL153223  13.955  21.786  16.619  0.0444  0.3789  0.4595
 2614DOPG   GL253224  13.581  21.926  16.429  0.0424  0.0686 -0.0329
 2614DOPG   C1A53225  13.928  22.255  16.580 -0.0281 -0.1838 -0.3960
 2614DOPG   D2A53226  13.954  22.654  16.452 -0.2226  0.2554  0.0117
 2614DOPG   C3A53227  14.156  22.990  16.503 -0.2361  0.1352 -0.0936
 2614DOPG   C4A53228  14.413  23.210  16.798  0.0416  0.3370  0.0057
 2614DOPG   C1B53229  13.417  22.365  16.386  0.0960 -0.0748 -0.0336
 2614DOPG   D2B53230  13.454  22.869  16.297 -0.0835  0.1878  0.2315
 2614DOPG   C3B53231  13.567  22.994  16.724 -0.1438 -0.0452 -0.0305
 2614DOPG   C4B53232  13.421  23.164  17.037 -0.0130  0.1641 -0.0951
 2615DOPG   GL053233  11.435  10.453  19.030 -0.2280  0.1214 -0.1204
 2615DOPG   PO453234  11.659  10.092  18.853 -0.0267  0.0938  0.0451
 2615DOPG   GL153235  11.487   9.785  19.101  0.2140 -0.0337  0.2023
 2615DOPG   GL253236  11.449   9.966  19.373 -0.0764 -0.0879 -0.1723
 2615DOPG   C1A53237  11.081   9.609  19.419 -0.0845  0.0323  0.1200
 2615DOPG   D2A53238  10.754   9.392  19.586  0.1537  0.1752  0.0846
 2615DOPG   C3A53239  10.683   9.434  19.986 -0.0989 -0.4702  0.2088
 2615DOPG   C4A53240  10.600   9.645  20.361 -0.0814  0.0096 -0.1765
 2615DOPG   C1B53241  11.528   9.713  19.765 -0.1454  0.1626  0.0588
 2615DOPG   D2B53242  11.793   9.404  20.020 -0.2315  0.0085 -0.3018
 2615DOPG   C3B53243  12.172   9.332  19.959 -0.2349  0.0614 -0.2323
 2615DOPG   C4B53244  12.446   9.621  19.690 -0.4303  0.4876  0.2349
 2616DOPG   GL053245  11.650  14.817  19.187  0.0578 -0.2271  0.0819
 2616DOPG   PO453246  11.880  14.515  19.056  0.3792 -0.1396 -0.1435
 2616DOPG   GL153247  11.611  14.203  18.921 -0.0433  0.2292 -0.0318
 2616DOPG   GL253248  11.280  14.304  18.767  0.3615  0.1485  0.4517
 2616DOPG   C1A53249  11.570  13.837  18.688 -0.4312  0.0643  0.2261
 2616DOPG   D2A53250  11.419  13.448  18.771  0.1410 -0.0376  0.1136
 2616DOPG   C3A53251  11.605  13.156  18.446  0.2070 -0.2333 -0.2118
 2616DOPG   C4A53252  11.825  13.101  18.097 -0.1337  0.2825 -0.0089
 2616DOPG   C1B53253  11.670  14.266  18.389  0.4202 -0.4664  0.0367
 2616DOPG   D2B53254  12.022  14.551  18.449 -0.0019  0.0042 -0.0944
 2616DOPG   C3B53255  12.305  14.476  18.088  0.0153 -0.1338  0.0077
 2616DOPG   C4B53256  12.515  14.171  17.791  0.2068 -0.1379  0.0996
 2617DOPG   GL053257  22.725  17.688  18.353  0.1481 -0.2341  0.1389
 2617DOPG   PO453258  22.381  18.011  18.321  0.5363  0.0239  0.1878
 2617DOPG   GL153259  22.046  17.957  18.624  0.0186 -0.1429 -0.1211
 2617DOPG   GL253260  22.261  17.938  18.832 -0.0110 -0.3240 -0.1089
 2617DOPG   C1A53261  21.642  17.874  18.740 -0.2787 -0.2945 -0.1468
 2617DOPG   D2A53262  21.442  17.842  18.980 -0.3687 -0.1804 -0.1466
 2617DOPG   C3A53263  21.528  17.786  19.429  0.1484 -0.1585 -0.1247
 2617DOPG   C4A53264  21.874  17.682  19.700 -0.0408 -0.1152  0.2427
 2617DOPG   C1B53265  22.428  17.904  19.291  0.0736  0.2628 -0.0459
 2617DOPG   D2B53266  22.284  18.010  19.735 -0.2188 -0.0229  0.0278
 2617DOPG   C3B53267  21.954  18.138  20.004 -0.1418  0.1241 -0.1938
 2617DOPG   C4B53268  21.704  18.499  20.189 -0.0222 -0.0071  0.2583
 2618DOPG   GL053269  12.851  21.430  16.739  0.2969  0.5409 -0.3153
 2618DOPG   PO453270  13.021  21.796  16.720 -0.2710 -0.2929  0.3407
 2618DOPG   GL153271  13.125  22.202  16.738  0.0185 -0.1381 -0.1581
 2618DOPG   GL253272  12.968  22.297  17.095  0.1550 -0.2434  0.0709
 2618DOPG   C1A53273  13.495  22.522  16.811 -0.0911 -0.2351 -0.2200
 2618DOPG   D2A53274  13.922  22.732  16.932 -0.1778  0.3061 -0.0718
 2618DOPG   C3A53275  13.931  23.109  17.158 -0.0189  0.2781 -0.1472
 2618DOPG   C4A53276  14.106  23.392  17.503 -0.1294  0.1091  0.0847
 2618DOPG   C1B53277  13.032  22.762  17.179  0.1557  0.0032  0.0233
 2618DOPG   D2B53278  13.007  23.061  17.475  0.0630  0.1147 -0.2815
 2618DOPG   C3B53279  13.209  23.517  17.375  0.0028 -0.1787 -0.0642
 2618DOPG   C4B53280  12.995  23.603  17.011 -0.1225  0.1451 -0.0013
 2619DOPG   GL053281  13.313  11.661  16.728 -0.0201  0.3563  0.2399
 2619DOPG   PO453282  13.013  11.795  17.026 -0.2204  0.0601 -0.4381
 2619DOPG   GL153283  12.597  11.758  17.280 -0.0126 -0.2271  0.0842
 2619DOPG   GL253284  12.417  11.620  17.472  0.0779  0.1438 -0.0073
 2619DOPG   C1A53285  12.227  12.061  17.242  0.0527 -0.1679 -0.0559
 2619DOPG   D2A53286  11.975  12.017  17.709 -0.5043 -0.0524 -0.1587
 2619DOPG   C3A53287  12.185  12.029  18.163 -0.0309 -0.0869 -0.2542
 2619DOPG   C4A53288  12.423  12.355  18.251  0.0995  0.3054  0.0419
 2619DOPG   C1B53289  12.481  12.032  17.741  0.3005  0.0481  0.1223
 2619DOPG   D2B53290  12.459  12.432  17.621 -0.1971 -0.1023  0.3571
 2619DOPG   C3B53291  12.191  12.766  17.726 -0.0872  0.2105 -0.1258
 2619DOPG   C4B53292  12.042  13.195  17.682  0.1647 -0.0310  0.0304
 2620DOPG   GL053293  10.133  16.950  18.374  0.0045 -0.0800 -0.1049
 2620DOPG   PO453294   9.785  16.790  18.461  0.1909  0.0616  0.1272
 2620DOPG   GL153295   9.516  16.964  18.768 -0.1955  0.4320 -0.0441
 2620DOPG   GL253296   9.274  17.216  18.640  0.1913  0.0176 -0.2608
 2620DOPG   C1A53297   9.172  17.003  19.115 -0.1125 -0.0884 -0.0647
 2620DOPG   D2A53298   9.077  17.053  19.519 -0.3200 -0.0148  0.0341
 2620DOPG   C3A53299   8.820  16.762  19.812 -0.1284 -0.3670 -0.2237
 2620DOPG   C4A53300   8.957  16.479  20.191  0.1136 -0.0323 -0.1952
 2620DOPG   C1B53301   8.787  17.146  18.699  0.0401 -0.1226 -0.1050
 2620DOPG   D2B53302   8.300  16.909  18.730 -0.0268 -0.0774  0.0285
 2620DOPG   C3B53303   8.112  17.298  18.888 -0.1740 -0.2094 -0.1695
 2620DOPG   C4B53304   7.736  17.596  18.699 -0.0379  0.0461  0.0738
 2621DOPG   GL053305  12.433  13.381  20.885  0.2368 -0.0335  0.0413
 2621DOPG   PO453306  12.744  13.281  20.594 -0.3116 -0.0031  0.0264
 2621DOPG   GL153307  12.877  12.893  20.612 -0.1696  0.2650 -0.1428
 2621DOPG   GL253308  13.213  12.932  20.390 -0.0207 -0.0549 -0.3267
 2621DOPG   C1A53309  12.816  12.481  20.812  0.1295 -0.1143 -0.3427
 2621DOPG   D2A53310  12.649  12.147  20.801  0.5370 -0.0363 -0.0887
 2621DOPG   C3A53311  12.268  12.183  20.975  0.0965  0.4780  0.0708
 2621DOPG   C4A53312  11.856  12.335  21.298  0.1162  0.2389  0.2175
 2621DOPG   C1B53313  13.012  12.465  20.334  0.0234 -0.3717  0.0061
 2621DOPG   D2B53314  12.811  12.011  20.318  0.0847 -0.1212 -0.0575
 2621DOPG   C3B53315  12.409  12.011  20.161 -0.2529  0.3565 -0.1135
 2621DOPG   C4B53316  12.109  12.103  19.908 -0.2432  0.1426  0.2207
 2622DOPG   GL053317   9.187  20.454  18.017  0.6369  0.1147 -0.0915
 2622DOPG   PO453318   8.981  20.112  18.018  0.3035  0.1488  0.0017
 2622DOPG   GL153319   8.830  20.052  18.328  0.0693 -0.1003  0.1652
 2622DOPG   GL253320   8.872  20.394  18.518 -0.1470 -0.1185  0.0615
 2622DOPG   C1A53321   8.909  19.990  18.789 -0.1733 -0.0070  0.0275
 2622DOPG   D2A53322   8.756  19.750  19.240 -0.0894  0.1563 -0.0083
 2622DOPG   C3A53323   8.452  19.947  19.642  0.0969 -0.0200  0.2791
 2622DOPG   C4A53324   8.054  20.146  19.724  0.2557 -0.2204  0.1696
 2622DOPG   C1B53325   9.144  20.612  18.919 -0.3177  0.0993  0.2694
 2622DOPG   D2B53326   9.263  21.004  19.154  0.0276 -0.0215 -0.1533
 2622DOPG   C3B53327   9.145  21.217  19.474  0.0464  0.0866 -0.0910
 2622DOPG   C4B53328   9.187  21.601  19.528  0.0231 -0.2562  0.0395
 2623DOPG   GL053329  21.582  15.887  17.620 -0.0936 -0.2029 -0.2604
 2623DOPG   PO453330  21.655  15.680  17.339  0.0654 -0.1284  0.1164
 2623DOPG   GL153331  21.655  15.322  17.541 -0.0932 -0.2002 -0.0688
 2623DOPG   GL253332  21.365  15.330  17.731  0.0752 -0.1669  0.1839
 2623DOPG   C1A53333  21.669  14.912  17.603  0.2344  0.1488 -0.1408
 2623DOPG   D2A53334  21.504  14.427  17.745 -0.2021  0.1888 -0.1374
 2623DOPG   C3A53335  21.547  13.972  17.542 -0.0816 -0.3350  0.0329
 2623DOPG   C4A53336  21.589  13.601  17.400  0.1448 -0.0565 -0.0285
 2623DOPG   C1B53337  21.190  15.007  17.476  0.1498 -0.2937 -0.0670
 2623DOPG   D2B53338  21.307  14.669  17.355  0.0788 -0.1300  0.2649
 2623DOPG   C3B53339  21.635  14.628  17.035 -0.1163  0.0404 -0.1224
 2623DOPG   C4B53340  21.849  14.718  16.818 -0.1661 -0.1726 -0.0414
 2624DOPG   GL053341  23.001  16.439  18.532  0.1643  0.2017  0.2716
 2624DOPG   PO453342  23.146  16.089  18.802  0.2072 -0.2570  0.0871
 2624DOPG   GL153343  23.277  15.723  18.871 -0.0650  0.0508  0.1384
 2624DOPG   GL253344  23.068  15.488  18.691 -0.1034  0.2008 -0.2964
 2624DOPG   C1A53345  23.564  15.286  18.978 -0.1095 -0.0760 -0.0668
 2624DOPG   D2A53346  23.761  14.884  18.940 -0.1655 -0.3529  0.0795
 2624DOPG   C3A53347  23.958  14.672  18.516  0.1524  0.0950 -0.0377
 2624DOPG   C4A53348  23.977  14.730  18.083  0.0486  0.1343 -0.1528
 2624DOPG   C1B53349  23.312  15.131  18.627  0.3918  0.4475 -0.0300
 2624DOPG   D2B53350  23.557  14.929  18.336 -0.1603  0.1133  0.3768
 2624DOPG   C3B53351  23.893  15.190  18.042 -0.2148  0.1333  0.0086
 2624DOPG   C4B53352  23.829  15.568  17.975  0.0607 -0.3539  0.2493
 2625DOPG   GL053353   8.788  19.185  17.808 -0.1964 -0.3279  0.1444
 2625DOPG   PO453354   9.102  19.070  18.168 -0.0318 -0.4054 -0.0243
 2625DOPG   GL153355   8.983  19.243  18.519 -0.1616  0.4226 -0.1082
 2625DOPG   GL253356   8.684  19.509  18.588 -0.1861 -0.0363  0.0068
 2625DOPG   C1A53357   8.933  19.152  18.891  0.1396  0.2076 -0.0276
 2625DOPG   D2A53358   8.770  19.176  19.270 -0.0121  0.1349 -0.1243
 2625DOPG   C3A53359   8.813  19.071  19.666 -0.3540 -0.0343  0.0407
 2625DOPG   C4A53360   8.895  18.987  20.040  0.1291 -0.3525  0.1005
 2625DOPG   C1B53361   8.387  19.639  18.872 -0.0301 -0.1032  0.0262
 2625DOPG   D2B53362   8.225  19.929  19.167  0.2560 -0.2371 -0.2889
 2625DOPG   C3B53363   8.009  19.720  19.423 -0.0680  0.0120 -0.1925
 2625DOPG   C4B53364   7.906  19.454  19.776  0.2464  0.0563 -0.1416
 2626DOPG   GL053365  12.434  15.216  20.664  0.0687 -0.2608 -0.1894
 2626DOPG   PO453366  12.397  15.636  20.436  0.1007  0.1397  0.1845
 2626DOPG   GL153367  12.338  15.937  20.706  0.0946 -0.0061 -0.0698
 2626DOPG   GL253368  12.572  16.276  20.739 -0.0552 -0.1435 -0.1333
 2626DOPG   C1A53369  12.041  16.191  21.039  0.0066 -0.1445 -0.2148
 2626DOPG   D2A53370  11.820  16.425  21.175 -0.1217 -0.2680 -0.2166
 2626DOPG   C3A53371  11.801  16.343  21.584 -0.3773 -0.0013 -0.1339
 2626DOPG   C4A53372  11.555  16.481  21.992 -0.0452  0.0436 -0.1643
 2626DOPG   C1B53373  12.429  16.496  21.073  0.0951  0.0073 -0.0692
 2626DOPG   D2B53374  12.242  16.725  21.443 -0.1333 -0.0376 -0.3012
 2626DOPG   C3B53375  12.232  16.517  21.866  0.4099 -0.0637  0.3895
 2626DOPG   C4B53376  11.952  16.180  22.042 -0.2469 -0.2656 -0.0402
 2627DOPG   GL053377  11.984  21.538  16.719  0.2946 -0.0402  0.3083
 2627DOPG   PO453378  12.448  21.673  16.690 -0.1013 -0.4041 -0.1583
 2627DOPG   GL153379  12.676  22.110  16.633  0.0301  0.0004  0.0703
 2627DOPG   GL253380  12.557  22.287  16.844 -0.0799  0.2688  0.2050
 2627DOPG   C1A53381  12.822  22.455  16.450  0.0825 -0.1527 -0.2806
 2627DOPG   D2A53382  13.030  22.760  16.672  0.0852 -0.0660  0.0386
 2627DOPG   C3A53383  13.133  23.199  16.576 -0.4527  0.1321  0.1264
 2627DOPG   C4A53384  12.862  23.483  16.505 -0.0244  0.0197 -0.0472
 2627DOPG   C1B53385  12.614  22.676  16.892  0.0245  0.0302  0.0815
 2627DOPG   D2B53386  12.584  23.050  16.592 -0.2884  0.1082 -0.0340
 2627DOPG   C3B53387  12.908  22.952  16.190 -0.0965 -0.2732 -0.1221
 2627DOPG   C4B53388  13.138  22.569  16.035  0.1984  0.1675  0.1982
 2628DOPG   GL053389  11.335  20.173  18.618 -0.2085 -0.0234 -0.0937
 2628DOPG   PO453390  10.969  20.414  18.639  0.1797  0.1764 -0.2772
 2628DOPG   GL153391  10.853  20.621  19.026  0.0680  0.0987  0.1908
 2628DOPG   GL253392  11.011  20.913  18.982 -0.1134 -0.2001  0.0997
 2628DOPG   C1A53393  10.625  20.549  19.460  0.2827 -0.1365  0.0656
 2628DOPG   D2A53394  10.364  20.231  19.622 -0.2233 -0.1365 -0.0089
 2628DOPG   C3A53395  10.383  20.129  20.124  0.2406 -0.0421 -0.2075
 2628DOPG   C4A53396   9.956  20.298  20.291 -0.0147  0.3401  0.0909
 2628DOPG   C1B53397  11.355  20.918  19.345 -0.0955  0.2578  0.1955
 2628DOPG   D2B53398  11.641  20.687  19.702  0.3093 -0.0013 -0.0438
 2628DOPG   C3B53399  11.673  20.713  20.134  0.1391 -0.0740 -0.0983
 2628DOPG   C4B53400  11.767  20.750  20.595 -0.3116  0.2425 -0.0865
 2629DOPG   GL053401  22.366  19.177  17.632 -0.0206  0.1429  0.1626
 2629DOPG   PO453402  22.153  19.494  17.792  0.2324  0.4411 -0.0313
 2629DOPG   GL153403  22.217  19.530  18.341  0.0980 -0.0018 -0.0410
 2629DOPG   GL253404  22.507  19.536  18.519  0.0120 -0.0918 -0.1508
 2629DOPG   C1A53405  21.971  19.724  18.676  0.1185  0.2205 -0.1115
 2629DOPG   D2A53406  21.601  19.860  18.620  0.3681 -0.3728  0.6405
 2629DOPG   C3A53407  21.251  19.912  18.966  0.1190  0.1472  0.2578
 2629DOPG   C4A53408  21.019  20.313  18.987  0.2354 -0.0123  0.1747
 2629DOPG   C1B53409  22.433  19.722  18.937 -0.0958  0.0820  0.3912
 2629DOPG   D2B53410  22.343  20.048  19.059 -0.0380 -0.1702 -0.0877
 2629DOPG   C3B53411  22.552  20.067  19.374 -0.1963  0.0945  0.1082
 2629DOPG   C4B53412  22.400  19.950  19.824  0.0856 -0.1007 -0.3800
 2630DOPG   GL053413  14.910  18.002  19.807  0.2625 -0.0779  0.4067
 2630DOPG   PO453414  14.705  17.801  20.191  0.0190 -0.0119 -0.1638
 2630DOPG   GL153415  14.496  17.608  20.547  0.1078 -0.0909  0.3183
 2630DOPG   GL253416  14.625  17.433  20.634  0.0716  0.1896  0.1138
 2630DOPG   C1A53417  14.208  17.608  20.956 -0.0702  0.1212  0.1763
 2630DOPG   D2A53418  13.935  17.452  21.362  0.3288  0.2243  0.2481
 2630DOPG   C3A53419  13.824  17.008  21.406 -0.0247 -0.3401  0.3375
 2630DOPG   C4A53420  13.730  16.541  21.648 -0.3051  0.1328 -0.0345
 2630DOPG   C1B53421  14.795  17.738  20.953 -0.1940  0.1428  0.3616
 2630DOPG   D2B53422  14.905  17.760  21.415 -0.0492 -0.2306 -0.0570
 2630DOPG   C3B53423  14.655  17.923  21.749  0.1551  0.0624  0.0674
 2630DOPG   C4B53424  14.330  18.264  21.731  0.0605  0.1168 -0.2025
 2631DOPG   GL053425  23.371  19.726  17.709 -0.1715  0.1209  0.2544
 2631DOPG   PO453426  23.690  20.039  17.761 -0.2483 -0.0991 -0.4374
 2631DOPG   GL153427  23.864  20.502  17.541  0.1834  0.0616  0.1400
 2631DOPG   GL253428  24.232  20.531  17.490 -0.0544 -0.0296  0.1932
 2631DOPG   C1A53429  24.020  20.945  17.709  0.0249 -0.1038  0.1124
 2631DOPG   D2A53430  23.832  21.290  17.735 -0.0822  0.1596 -0.3050
 2631DOPG   C3A53431  23.732  21.429  17.405  0.1291 -0.0515  0.2914
 2631DOPG   C4A53432  23.791  21.994  17.149  0.2991  0.0956 -0.0670
 2631DOPG   C1B53433  24.501  20.746  17.787  0.2034 -0.1125  0.2028
 2631DOPG   D2B53434  24.573  21.004  18.193  0.0764  0.1922 -0.0625
 2631DOPG   C3B53435  24.357  20.868  18.485 -0.0280  0.0214 -0.2376
 2631DOPG   C4B53436  24.392  20.881  18.857 -0.1572  0.2004  0.1629
 2632DOPG   GL053437  20.792  15.999  18.803  0.3347 -0.2237  0.3185
 2632DOPG   PO453438  20.482  16.221  18.899 -0.3498 -0.3056 -0.1446
 2632DOPG   GL153439  20.174  16.483  18.711 -0.1698  0.0808  0.1470
 2632DOPG   GL253440  20.027  16.245  18.483 -0.1557 -0.4404 -0.2263
 2632DOPG   C1A53441  19.649  16.657  18.751  0.1698  0.1174 -0.1470
 2632DOPG   D2A53442  19.573  17.042  18.614  0.1124  0.1605 -0.1064
 2632DOPG   C3A53443  19.465  17.359  18.980  0.0730 -0.2147  0.0786
 2632DOPG   C4A53444  19.276  17.630  19.255 -0.1932 -0.0215 -0.2846
 2632DOPG   C1B53445  20.344  16.505  18.234  0.2606  0.1974 -0.0834
 2632DOPG   D2B53446  20.304  16.694  17.953 -0.2422 -0.0020 -0.0970
 2632DOPG   C3B53447  19.939  16.793  17.737  0.0750 -0.0779  0.1704
 2632DOPG   C4B53448  19.532  16.741  17.693 -0.1263  0.0033  0.1008
 2633DOPG   GL053449  14.075  10.125  17.895  0.0573  0.1600 -0.0127
 2633DOPG   PO453450  14.220  10.259  18.256  0.0639  0.2243  0.1235
 2633DOPG   GL153451  14.132   9.796  18.249 -0.1332 -0.2772 -0.1999
 2633DOPG   GL253452  13.781   9.696  18.319 -0.3072  0.0045  0.1865
 2633DOPG   C1A53453  14.144   9.317  18.243 -0.2236 -0.1076  0.4251
 2633DOPG   D2A53454  14.202   8.940  18.536  0.2241 -0.2162 -0.0672
 2633DOPG   C3A53455  13.984   8.558  18.389 -0.3262 -0.1578  0.0700
 2633DOPG   C4A53456  13.965   8.118  18.582  0.0458 -0.1738 -0.1365
 2633DOPG   C1B53457  13.544   9.411  18.486  0.0446 -0.0462  0.0005
 2633DOPG   D2B53458  13.354   9.086  18.316 -0.1508  0.3211  0.0455
 2633DOPG   C3B53459  13.476   8.617  18.303  0.2043 -0.0258  0.0453
 2633DOPG   C4B53460  13.445   8.203  18.127 -0.0601  0.0065  0.1607
 2634DOPG   GL053461  15.718  16.042  20.346 -0.1682 -0.1849  0.1223
 2634DOPG   PO453462  15.653  16.110  20.765  0.0852 -0.0475  0.0472
 2634DOPG   GL153463  15.623  15.856  21.090 -0.0808 -0.0272 -0.1690
 2634DOPG   GL253464  15.928  15.794  21.338  0.1873  0.1608 -0.2962
 2634DOPG   C1A53465  15.460  15.452  21.277 -0.1649  0.3356  0.1484
 2634DOPG   D2A53466  15.126  15.257  21.394  0.0759 -0.1660 -0.0170
 2634DOPG   C3A53467  15.269  15.070  21.901  0.0294 -0.0212  0.2412
 2634DOPG   C4A53468  15.137  14.757  22.067  0.2633  0.5000 -0.0709
 2634DOPG   C1B53469  16.082  15.411  21.512 -0.0576  0.0744 -0.1028
 2634DOPG   D2B53470  16.363  15.200  21.623 -0.1279  0.0416 -0.0116
 2634DOPG   C3B53471  16.506  14.845  21.335  0.0402 -0.0810  0.0272
 2634DOPG   C4B53472  16.809  14.715  20.922  0.0694 -0.2150 -0.3432
 2635DOPG   GL053473  21.922  17.738  18.119  0.0235  0.0277 -0.0002
 2635DOPG   PO453474  21.597  17.651  18.011 -0.0617 -0.0574  0.1828
 2635DOPG   GL153475  21.338  17.614  18.259  0.2522 -0.2561  0.1022
 2635DOPG   GL253476  21.291  17.891  18.350 -0.2618 -0.1346 -0.0725
 2635DOPG   C1A53477  21.109  17.465  18.685  0.2005 -0.0522 -0.0183
 2635DOPG   D2A53478  20.734  17.380  18.750  0.1247 -0.0597 -0.0207
 2635DOPG   C3A53479  20.255  17.499  18.946 -0.2208 -0.0660 -0.0923
 2635DOPG   C4A53480  19.847  17.610  18.832 -0.2125 -0.0126 -0.2810
 2635DOPG   C1B53481  20.998  18.049  18.662 -0.0352 -0.1782  0.3297
 2635DOPG   D2B53482  20.875  18.273  19.017  0.0279 -0.3879  0.2484
 2635DOPG   C3B53483  20.534  18.269  19.330  0.2430  0.1561 -0.0240
 2635DOPG   C4B53484  20.215  18.514  19.479 -0.1905  0.0652 -0.2457
 2636DOPG   GL053485  12.110  20.776  18.819  0.2735  0.0018  0.0990
 2636DOPG   PO453486  12.567  20.929  18.733 -0.1135 -0.1891 -0.2453
 2636DOPG   GL153487  12.472  21.121  19.123  0.1991 -0.0453  0.0764
 2636DOPG   GL253488  12.655  21.331  19.264  0.3613  0.0533 -0.2732
 2636DOPG   C1A53489  12.229  20.913  19.462  0.2235 -0.0502 -0.1271
 2636DOPG   D2A53490  12.183  20.799  19.872 -0.2974 -0.1829 -0.2442
 2636DOPG   C3A53491  12.552  20.494  20.077  0.3377  0.1864 -0.2315
 2636DOPG   C4A53492  12.878  20.150  19.955  0.1168  0.1409 -0.0385
 2636DOPG   C1B53493  12.434  21.427  19.680 -0.2491 -0.1489  0.0849
 2636DOPG   D2B53494  12.117  21.569  19.913  0.1427  0.0206  0.2553
 2636DOPG   C3B53495  11.753  21.170  19.890 -0.1303  0.2250  0.0298
 2636DOPG   C4B53496  11.322  21.206  19.803 -0.2831  0.2131 -0.1556
 2637DOPG   GL053497  13.594  14.291  19.979  0.0526  0.0339  0.0168
 2637DOPG   PO453498  13.166  14.421  19.771  0.1660  0.2652  0.5388
 2637DOPG   GL153499  13.118  14.069  19.386  0.1777  0.1750 -0.1092
 2637DOPG   GL253500  13.279  14.061  19.084 -0.0475 -0.1191  0.3151
 2637DOPG   C1A53501  13.009  13.683  19.152 -0.1112 -0.0249  0.0997
 2637DOPG   D2A53502  13.029  13.288  18.953  0.2908 -0.1645 -0.1755
 2637DOPG   C3A53503  12.723  13.118  18.633  0.2682 -0.0062  0.1553
 2637DOPG   C4A53504  12.428  12.728  18.656 -0.1951  0.1558  0.4398
 2637DOPG   C1B53505  13.345  14.022  18.666 -0.1526  0.3233 -0.0509
 2637DOPG   D2B53506  13.443  13.897  18.330 -0.3069  0.1129 -0.1686
 2637DOPG   C3B53507  13.370  14.216  18.032  0.1765 -0.3240  0.1752
 2637DOPG   C4B53508  13.386  14.504  17.679 -0.0945 -0.3307 -0.2022
 2638DOPG   GL053509  10.977  11.401  18.065  0.2959  0.2422 -0.1549
 2638DOPG   PO453510  11.108  11.774  18.204  0.0995 -0.0594  0.1669
 2638DOPG   GL153511  10.765  12.051  18.579 -0.1652 -0.1107 -0.5422
 2638DOPG   GL253512  10.513  12.009  18.706  0.1270  0.1144 -0.2857
 2638DOPG   C1A53513  10.943  12.348  18.840 -0.1422 -0.0579  0.3661
 2638DOPG   D2A53514  11.325  12.404  19.064  0.3908 -0.5642 -0.4364
 2638DOPG   C3A53515  11.631  12.477  18.805 -0.0142  0.3019 -0.1743
 2638DOPG   C4A53516  12.015  12.388  18.558  0.3978 -0.0507  0.1400
 2638DOPG   C1B53517  10.483  12.421  18.841 -0.0739  0.2104 -0.2067
 2638DOPG   D2B53518  10.225  12.689  19.169  0.2961 -0.2892 -0.5450
 2638DOPG   C3B53519  10.264  12.671  19.625 -0.3175  0.3251  0.1321
 2638DOPG   C4B53520  10.063  12.642  19.995  0.0995 -0.1266  0.1813
 2639DOPG   GL053521  17.333  13.303  19.013 -0.0661  0.2082  0.0074
 2639DOPG   PO453522  17.285  13.158  19.354 -0.0636  0.0198 -0.0272
 2639DOPG   GL153523  17.336  12.650  19.354  0.0750 -0.1143  0.1450
 2639DOPG   GL253524  17.653  12.481  19.299  0.0469  0.1119 -0.0521
 2639DOPG   C1A53525  17.230  12.265  19.716  0.0079  0.3373 -0.1703
 2639DOPG   D2A53526  17.587  12.067  19.902 -0.0723  0.1340  0.0824
 2639DOPG   C3A53527  17.722  12.183  20.377 -0.1794 -0.4430 -0.2799
 2639DOPG   C4A53528  17.808  11.705  20.639 -0.1202 -0.1637  0.1748
 2639DOPG   C1B53529  17.963  12.391  19.570 -0.0643  0.1887  0.0240
 2639DOPG   D2B53530  18.088  12.322  19.992 -0.1537  0.0922 -0.1717
 2639DOPG   C3B53531  17.927  12.680  20.293  0.1423 -0.1247 -0.0192
 2639DOPG   C4B53532  17.653  13.002  20.336  0.1577  0.2682 -0.0371
 2640DOPG   GL053533  21.278  16.152  18.876 -0.2340  0.2626 -0.2328
 2640DOPG   PO453534  21.461  16.408  19.059 -0.0690 -0.3410  0.1826
 2640DOPG   GL153535  21.784  16.375  19.306 -0.1118 -0.3728  0.0230
 2640DOPG   GL253536  21.982  16.088  19.291  0.0939  0.0375  0.4190
 2640DOPG   C1A53537  21.916  16.597  19.603 -0.1084  0.2418  0.0225
 2640DOPG   D2A53538  21.965  16.509  19.944 -0.0457 -0.1178 -0.1116
 2640DOPG   C3A53539  21.766  16.638  20.281 -0.0187  0.1343  0.3102
 2640DOPG   C4A53540  22.039  16.714  20.674 -0.1500 -0.0838  0.2222
 2640DOPG   C1B53541  21.700  16.089  19.725  0.2702  0.0851 -0.0518
 2640DOPG   D2B53542  21.455  16.019  20.063 -0.1145  0.1648 -0.3719
 2640DOPG   C3B53543  21.633  15.670  20.337  0.2165 -0.3085  0.1624
 2640DOPG   C4B53544  21.588  15.361  20.504  0.1817 -0.1292  0.0017
 2641DOPG   GL053545  13.299  17.864  19.911  0.0707  0.0198 -0.1028
 2641DOPG   PO453546  13.575  18.153  19.997 -0.1314 -0.1823  0.1314
 2641DOPG   GL153547  13.404  18.484  20.214 -0.0407 -0.0677 -0.2032
 2641DOPG   GL253548  13.554  18.764  20.337 -0.0909  0.4375 -0.1156
 2641DOPG   C1A53549  13.177  18.336  20.584  0.3842 -0.1062 -0.0654
 2641DOPG   D2A53550  12.685  18.250  20.615 -0.0518 -0.1094 -0.1849
 2641DOPG   C3A53551  12.187  18.456  20.804  0.0773  0.1073 -0.0795
 2641DOPG   C4A53552  11.765  18.452  21.024 -0.1642 -0.1345  0.3282
 2641DOPG   C1B53553  13.580  19.135  20.508 -0.2006 -0.0839 -0.1419
 2641DOPG   D2B53554  13.844  19.448  20.696  0.0130  0.1711 -0.1955
 2641DOPG   C3B53555  13.614  19.441  21.053  0.2617 -0.0642 -0.1980
 2641DOPG   C4B53556  13.204  19.654  21.235 -0.4062 -0.0418  0.1124
 2642DOPG   GL053557   9.961  15.131  18.953 -0.1708  0.2039 -0.0149
 2642DOPG   PO453558   9.796  15.461  19.179 -0.2139 -0.1813 -0.1672
 2642DOPG   GL153559   9.814  15.159  19.423  0.0509 -0.1170  0.1578
 2642DOPG   GL253560   9.624  14.943  19.280  0.1299  0.0455 -0.1889
 2642DOPG   C1A53561   9.650  15.215  19.834  0.1044 -0.0167  0.2699
 2642DOPG   D2A53562   9.611  15.248  20.316  0.0150  0.0458  0.0037
 2642DOPG   C3A53563   9.906  14.977  20.664  0.0630  0.1333 -0.2013
 2642DOPG   C4A53564  10.182  14.976  20.970  0.1785  0.1280 -0.2215
 2642DOPG   C1B53565   9.573  14.557  19.344 -0.0282  0.0589 -0.0415
 2642DOPG   D2B53566   9.558  14.174  19.505 -0.0889  0.2269 -0.0411
 2642DOPG   C3B53567   9.818  13.854  19.731 -0.1132 -0.1923 -0.2544
 2642DOPG   C4B53568  10.201  13.612  19.550 -0.0642  0.0131  0.1881
 2643DOPG   GL053569  24.162  19.275  17.624 -0.1595  0.0768 -0.0930
 2643DOPG   PO453570  24.638  19.155  17.774 -0.0409 -0.0174 -0.0508
 2643DOPG   GL153571  25.025  19.504  17.786  0.2409  0.1817  0.0698
 2643DOPG   GL253572  24.994  19.889  17.748 -0.2031 -0.3108  0.2857
 2643DOPG   C1A53573  25.391  19.602  17.892  0.0529  0.0927  0.2593
 2643DOPG   D2A53574  25.724  19.596  17.759  0.1714 -0.2201 -0.4450
 2643DOPG   C3A53575  26.120  19.680  17.888  0.0671 -0.0277  0.0046
 2643DOPG   C4A53576  26.468  20.003  17.837  0.0068 -0.0547  0.0088
 2643DOPG   C1B53577  25.129  20.262  17.932 -0.0535  0.1070 -0.0577
 2643DOPG   D2B53578  24.984  20.770  17.913  0.1693 -0.0129  0.1671
 2643DOPG   C3B53579  24.845  20.870  17.440  0.1533  0.1770 -0.2316
 2643DOPG   C4B53580  24.729  20.976  17.070  0.0935  0.1616 -0.0515
 2644DOPG   GL053581   8.677  19.711  17.797 -0.2959  0.4209  0.3237
 2644DOPG   PO453582   8.920  19.573  18.129 -0.0513 -0.0053 -0.1508
 2644DOPG   GL153583   9.213  19.695  18.459  0.0225  0.0418  0.1028
 2644DOPG   GL253584   9.450  19.919  18.573 -0.2518  0.1381 -0.3916
 2644DOPG   C1A53585   9.226  19.533  18.903 -0.1516  0.0722 -0.0889
 2644DOPG   D2A53586   9.457  19.187  19.059 -0.0011  0.4602  0.0488
 2644DOPG   C3A53587   9.268  18.840  19.219  0.1764  0.1439  0.1583
 2644DOPG   C4A53588   8.913  18.622  19.423 -0.4156  0.0977 -0.1111
 2644DOPG   C1B53589   9.439  20.156  18.850  0.0570 -0.4193  0.0629
 2644DOPG   D2B53590   9.601  20.452  19.181 -0.0533  0.3512 -0.2857
 2644DOPG   C3B53591   9.590  20.267  19.584  0.2617  0.1755 -0.0448
 2644DOPG   C4B53592   9.637  20.107  20.026  0.0879 -0.1524  0.0996
 2645DOPG   GL053593  16.284  20.872  18.458  0.3534 -0.2664  0.2150
 2645DOPG   PO453594  16.003  20.814  18.103 -0.0127 -0.2576  0.0147
 2645DOPG   GL153595  15.973  21.258  18.151 -0.3204  0.1040  0.1119
 2645DOPG   GL253596  16.279  21.489  18.094  0.3074 -0.0548 -0.2209
 2645DOPG   C1A53597  15.700  21.593  18.491  0.1643 -0.2909  0.1050
 2645DOPG   D2A53598  15.819  21.979  18.589  0.0025 -0.1011 -0.0071
 2645DOPG   C3A53599  16.085  22.268  18.421 -0.2471  0.2463 -0.0306
 2645DOPG   C4A53600  16.381  22.620  18.344 -0.1986 -0.2747  0.0881
 2645DOPG   C1B53601  16.248  21.802  18.480  0.2663  0.0110  0.0001
 2645DOPG   D2B53602  16.456  22.108  18.737  0.1643 -0.0287  0.0657
 2645DOPG   C3B53603  16.321  22.463  18.850 -0.1738 -0.0000 -0.2395
 2645DOPG   C4B53604  16.361  22.907  18.771 -0.0798 -0.2642  0.2016
 2646DOPG   GL053605  12.320  19.791  18.738  0.1606 -0.0081 -0.0952
 2646DOPG   PO453606  12.417  19.433  18.876 -0.2761  0.2662 -0.0954
 2646DOPG   GL153607  11.960  19.238  18.854  0.0501  0.0330 -0.3509
 2646DOPG   GL253608  11.945  19.285  19.139  0.5273  0.0776  0.0081
 2646DOPG   C1A53609  11.675  18.893  18.834  0.0620 -0.4253  0.2068
 2646DOPG   D2A53610  11.315  18.796  19.018 -0.2777 -0.1839 -0.1041
 2646DOPG   C3A53611  11.369  19.204  19.266  0.4109  0.0608  0.3453
 2646DOPG   C4A53612  11.297  19.427  19.636 -0.0177  0.0648  0.0451
 2646DOPG   C1B53613  11.788  19.113  19.607  0.0654  0.2632 -0.1953
 2646DOPG   D2B53614  11.699  19.025  20.127  0.2022 -0.1889  0.0373
 2646DOPG   C3B53615  11.290  19.274  20.155 -0.2462 -0.2862 -0.0970
 2646DOPG   C4B53616  10.965  19.478  20.380  0.1584  0.0570 -0.1561
 2647DOPG   GL053617  15.385  17.800  19.675 -0.2489  0.0395 -0.2711
 2647DOPG   PO453618  15.235  17.610  20.131 -0.0806 -0.0276 -0.1284
 2647DOPG   GL153619  15.598  17.754  20.507 -0.4716 -0.3931  0.0096
 2647DOPG   GL253620  15.622  18.122  20.493 -0.3393 -0.3733  0.2308
 2647DOPG   C1A53621  15.578  17.838  20.942  0.1706 -0.2602  0.3286
 2647DOPG   D2A53622  15.280  17.811  21.136 -0.2288 -0.0098  0.1323
 2647DOPG   C3A53623  15.070  18.192  21.106  0.1095  0.0087 -0.2897
 2647DOPG   C4A53624  14.669  18.445  21.070 -0.0002  0.1916  0.0094
 2647DOPG   C1B53625  15.559  18.547  20.577  0.3287  0.0983  0.1112
 2647DOPG   D2B53626  15.224  18.800  20.767  0.2760  0.1429  0.0661
 2647DOPG   C3B53627  15.394  19.160  20.900  0.2961  0.0044 -0.0894
 2647DOPG   C4B53628  15.429  19.491  21.157 -0.1113 -0.0560 -0.0089
 2648DOPG   GL053629  17.069  13.618  19.288 -0.1170  0.0263  0.2816
 2648DOPG   PO453630  17.535  13.742  19.210  0.0428  0.0518  0.2921
 2648DOPG   GL153631  17.493  13.634  19.559  0.4097  0.0959 -0.0127
 2648DOPG   GL253632  17.204  13.509  19.729  0.0186 -0.1052 -0.0778
 2648DOPG   C1A53633  17.642  13.596  20.051  0.0999 -0.1030 -0.4813
 2648DOPG   D2A53634  17.681  13.460  20.460  0.1880 -0.0687  0.3864
 2648DOPG   C3A53635  17.512  13.267  20.824  0.0809  0.0262  0.1396
 2648DOPG   C4A53636  17.627  13.118  21.203 -0.0384 -0.3090  0.1737
 2648DOPG   C1B53637  16.700  13.554  19.749 -0.0469  0.2864  0.2670
 2648DOPG   D2B53638  16.380  13.382  19.987  0.1863  0.1340 -0.1358
 2648DOPG   C3B53639  16.458  13.109  20.396  0.0983 -0.1586  0.1099
 2648DOPG   C4B53640  16.386  12.682  20.327  0.1009  0.0392  0.0794
 2649DOPG   GL053641  15.212  19.042  19.571  0.3661 -0.1272  0.1029
 2649DOPG   PO453642  15.568  18.803  19.774 -0.1097  0.2991  0.3444
 2649DOPG   GL153643  15.290  18.785  20.165 -0.1891  0.0781 -0.2364
 2649DOPG   GL253644  15.567  19.060  20.345 -0.0021 -0.0008 -0.1663
 2649DOPG   C1A53645  15.097  19.230  20.479  0.0833  0.1933 -0.3079
 2649DOPG   D2A53646  14.873  19.222  20.806  0.0382  0.0862  0.0264
 2649DOPG   C3A53647  14.967  19.620  21.098  0.0848  0.1396  0.3696
 2649DOPG   C4A53648  14.928  19.983  21.331 -0.0279 -0.0015 -0.0761
 2649DOPG   C1B53649  15.697  19.405  20.463  0.0232  0.1837 -0.0811
 2649DOPG   D2B53650  15.841  19.619  20.805  0.0824  0.0368 -0.0210
 2649DOPG   C3B53651  15.931  19.356  21.162  0.0254  0.0803 -0.1774
 2649DOPG   C4B53652  16.088  18.822  21.311 -0.1428 -0.2510 -0.2601
 2650DOPG   GL053653  11.571  10.941  19.821 -0.1556 -0.1476  0.0677
 2650DOPG   PO453654  11.202  11.133  19.716  0.0028 -0.1876  0.1812
 2650DOPG   GL153655  11.282  11.204  20.135  0.0076 -0.1415  0.2378
 2650DOPG   GL253656  11.529  11.279  20.190  0.0722 -0.3215  0.1754
 2650DOPG   C1A53657  11.278  11.472  20.640 -0.3812 -0.0078 -0.3155
 2650DOPG   D2A53658  11.563  11.393  20.966 -0.1509 -0.1511 -0.1152
 2650DOPG   C3A53659  11.698  10.991  21.103 -0.3326 -0.1082  0.2005
 2650DOPG   C4A53660  12.027  10.804  21.073  0.0157  0.0011 -0.1075
 2650DOPG   C1B53661  11.878  10.950  20.237 -0.0682 -0.1024 -0.1424
 2650DOPG   D2B53662  12.280  10.793  20.107 -0.0063 -0.0755  0.4071
 2650DOPG   C3B53663  12.645  11.000  20.271 -0.1725 -0.2500  0.1931
 2650DOPG   C4B53664  13.036  11.254  20.339 -0.1449  0.2144  0.0371
 2651DOPG   GL053665  13.028  20.617  18.830  0.0094 -0.0962  0.0850
 2651DOPG   PO453666  13.179  20.113  18.890  0.5065  0.1706 -0.1862
 2651DOPG   GL153667  12.965  20.431  19.292  0.0437  0.2636 -0.0280
 2651DOPG   GL253668  12.811  20.858  19.278  0.2508  0.1110  0.1839
 2651DOPG   C1A53669  13.055  20.506  19.699  0.1687  0.0841 -0.2081
 2651DOPG   D2A53670  13.029  20.623  20.131 -0.2675  0.2240  0.0562
 2651DOPG   C3A53671  13.245  20.568  20.397 -0.2651 -0.1504 -0.1258
 2651DOPG   C4A53672  13.521  20.377  20.720 -0.1020 -0.2155  0.0601
 2651DOPG   C1B53673  12.799  20.948  19.729 -0.0678 -0.0602 -0.1558
 2651DOPG   D2B53674  12.722  21.104  20.103  0.1041  0.0725  0.1190
 2651DOPG   C3B53675  12.287  21.218  20.234 -0.0964 -0.3689  0.0439
 2651DOPG   C4B53676  11.903  21.387  20.403  0.1013 -0.0740 -0.1963
 2652DOPG   GL053677  19.475  20.092  18.159  0.2102 -0.1174  0.1260
 2652DOPG   PO453678  19.875  20.002  18.259  0.1114  0.2134  0.2495
 2652DOPG   GL153679  19.562  20.253  18.611  0.0376  0.3197  0.1286
 2652DOPG   GL253680  19.457  20.561  18.526 -0.0378  0.1023  0.2322
 2652DOPG   C1A53681  19.682  20.244  18.947  0.1082 -0.1122 -0.2410
 2652DOPG   D2A53682  19.758  20.183  19.378 -0.0330 -0.3783 -0.1890
 2652DOPG   C3A53683  19.910  20.370  19.694  0.0821  0.0907 -0.1131
 2652DOPG   C4A53684  20.251  20.235  19.891  0.1304  0.1050  0.3849
 2652DOPG   C1B53685  19.868  20.680  18.802  0.2545  0.2869 -0.0664
 2652DOPG   D2B53686  20.047  20.609  19.256 -0.2235 -0.0467 -0.1583
 2652DOPG   C3B53687  20.443  20.719  19.377  0.1295 -0.2852  0.2522
 2652DOPG   C4B53688  20.682  20.449  19.631  0.0467 -0.2263 -0.1271
 2653DOPG   GL053689  17.172  13.602  17.062  0.1438 -0.4318 -0.1084
 2653DOPG   PO453690  17.312  13.336  17.373 -0.0090 -0.2169  0.1573
 2653DOPG   GL153691  17.103  13.704  17.535  0.2763  0.0417 -0.1692
 2653DOPG   GL253692  17.274  13.997  17.765  0.3055  0.2102 -0.2123
 2653DOPG   C1A53693  16.826  13.930  17.306 -0.2335 -0.2106  0.1414
 2653DOPG   D2A53694  16.683  13.849  16.941 -0.2302  0.1679 -0.0128
 2653DOPG   C3A53695  16.467  14.251  16.901 -0.2193  0.0954  0.1229
 2653DOPG   C4A53696  16.047  14.328  17.028 -0.1222 -0.1316  0.1283
 2653DOPG   C1B53697  16.863  14.218  17.719 -0.0930 -0.1044  0.0105
 2653DOPG   D2B53698  16.670  14.590  17.800 -0.1723  0.0517  0.0501
 2653DOPG   C3B53699  16.402  14.722  18.161 -0.0896  0.1016  0.1336
 2653DOPG   C4B53700  16.309  14.862  18.465 -0.3315 -0.3678  0.0062
 2654DOPG   GL053701  17.853  13.445  18.895 -0.0477 -0.1700 -0.1935
 2654DOPG   PO453702  18.050  12.994  18.845  0.1330 -0.1159  0.1230
 2654DOPG   GL153703  18.406  12.825  18.895  0.1727 -0.1700  0.1506
 2654DOPG   GL253704  18.600  13.052  19.008  0.0395 -0.3774  0.0058
 2654DOPG   C1A53705  18.448  12.492  19.201  0.1600 -0.1857 -0.0842
 2654DOPG   D2A53706  18.426  12.260  19.591  0.2032 -0.1377  0.0794
 2654DOPG   C3A53707  18.787  12.038  19.738 -0.1603  0.0208  0.0017
 2654DOPG   C4A53708  19.124  11.752  19.699  0.0409 -0.1465  0.3771
 2654DOPG   C1B53709  18.891  12.692  18.755 -0.2349 -0.0241  0.0428
 2654DOPG   D2B53710  18.870  12.326  18.733  0.4323  0.1185  0.0093
 2654DOPG   C3B53711  19.137  12.047  19.058  0.1098  0.0017  0.2807
 2654DOPG   C4B53712  19.194  11.618  18.788 -0.1506  0.0638  0.2199
 2655DOPG   GL053713   6.157  23.647  18.278  0.0471  0.2635  0.2049
 2655DOPG   PO453714   6.601  23.754  18.283  0.0599  0.0469  0.1388
 2655DOPG   GL153715   7.032  23.558  18.437 -0.0739 -0.1964 -0.2353
 2655DOPG   GL253716   7.141  23.707  18.738 -0.0690 -0.1553 -0.0359
 2655DOPG   C1A53717   7.309  23.240  18.415  0.0466 -0.1754  0.2168
 2655DOPG   D2A53718   7.572  22.844  18.278 -0.2194 -0.0958  0.1394
 2655DOPG   C3A53719   7.468  22.480  18.478 -0.0006  0.2892  0.1435
 2655DOPG   C4A53720   7.560  22.276  18.825  0.0924 -0.0671 -0.1194
 2655DOPG   C1B53721   7.281  23.341  18.876 -0.0943  0.1249 -0.1514
 2655DOPG   D2B53722   7.411  23.082  19.209 -0.0257  0.1619 -0.1646
 2655DOPG   C3B53723   7.843  23.136  19.223 -0.0701  0.1958 -0.1091
 2655DOPG   C4B53724   8.299  23.276  19.357 -0.1965 -0.0898  0.3566
 2656DOPG   GL053725  13.832  10.900  17.633 -0.1804  0.1763  0.0719
 2656DOPG   PO453726  14.076  11.094  17.903 -0.3572  0.0076 -0.4425
 2656DOPG   GL153727  14.016  11.454  18.343 -0.2539  0.0421  0.2687
 2656DOPG   GL253728  14.213  11.657  18.169  0.3360  0.3722 -0.1141
 2656DOPG   C1A53729  13.938  11.776  18.657  0.1431  0.0171  0.2975
 2656DOPG   D2A53730  13.763  12.200  18.541  0.0402 -0.1446 -0.0363
 2656DOPG   C3A53731  13.517  12.595  18.758 -0.2630 -0.0761  0.0168
 2656DOPG   C4A53732  13.453  13.072  19.000  0.0869 -0.0774  0.0348
 2656DOPG   C1B53733  14.187  12.119  18.026  0.1470  0.0588  0.2038
 2656DOPG   D2B53734  14.057  12.349  18.199  0.0932  0.1100  0.1241
 2656DOPG   C3B53735  14.095  12.655  18.625  0.4868 -0.0596  0.1095
 2656DOPG   C4B53736  14.001  13.010  18.851  0.3503 -0.2112  0.2544
 2657DOPG   GL053737   9.032  18.283  18.472 -0.3467 -0.3948  0.1118
 2657DOPG   PO453738   9.081  18.035  18.704  0.0807  0.0314 -0.0862
 2657DOPG   GL153739   9.174  18.331  19.038  0.1941  0.0377 -0.3210
 2657DOPG   GL253740   9.115  18.531  18.909  0.0936  0.3922 -0.0965
 2657DOPG   C1A53741   9.396  18.335  19.434  0.0601  0.2121 -0.0049
 2657DOPG   D2A53742   9.630  18.491  19.779  0.3024 -0.0633  0.0603
 2657DOPG   C3A53743   9.740  18.147  20.071 -0.0292 -0.0684  0.3646
 2657DOPG   C4A53744   9.984  18.000  20.257 -0.0179  0.0397 -0.0003
 2657DOPG   C1B53745   8.722  18.738  18.985  0.1659 -0.0914  0.0756
 2657DOPG   D2B53746   8.329  18.646  18.942  0.1320  0.0614 -0.0998
 2657DOPG   C3B53747   8.160  18.311  19.092  0.0736 -0.2610  0.0985
 2657DOPG   C4B53748   7.867  18.150  19.430  0.1036 -0.2071  0.4042
 2658DOPG   GL053749  15.706  16.764  20.304 -0.1334  0.0395  0.1106
 2658DOPG   PO453750  15.460  16.541  20.585 -0.1264  0.0076 -0.5981
 2658DOPG   GL153751  15.341  16.747  21.002 -0.2161  0.3950  0.3187
 2658DOPG   GL253752  15.051  16.614  20.961  0.2903  0.0670 -0.1586
 2658DOPG   C1A53753  15.462  16.946  21.373 -0.0049  0.0486  0.2197
 2658DOPG   D2A53754  15.528  17.199  21.678 -0.3198  0.1586 -0.1684
 2658DOPG   C3A53755  15.453  17.754  21.620  0.0045 -0.0853  0.0487
 2658DOPG   C4A53756  15.253  18.110  21.616 -0.1198  0.0005 -0.0042
 2658DOPG   C1B53757  15.187  16.561  21.415 -0.4705 -0.0670  0.4084
 2658DOPG   D2B53758  15.240  16.633  21.832 -0.0073  0.4004  0.2548
 2658DOPG   C3B53759  15.084  16.941  21.974 -0.2186 -0.1935 -0.0674
 2658DOPG   C4B53760  15.354  17.230  22.236 -0.2116  0.0727 -0.0805
 2659DOPG   GL053761  15.006  17.000  19.360 -0.1233  0.1818  0.0295
 2659DOPG   PO453762  14.655  16.982  19.051  0.3983  0.2122  0.0351
 2659DOPG   GL153763  14.311  16.852  18.776 -0.2085 -0.0356  0.1409
 2659DOPG   GL253764  14.015  17.029  18.653  0.0539 -0.1119 -0.2498
 2659DOPG   C1A53765  14.166  16.568  18.475 -0.2048 -0.0650  0.1577
 2659DOPG   D2A53766  13.889  16.522  18.129  0.3655  0.0438  0.1220
 2659DOPG   C3A53767  13.914  16.586  17.706 -0.2720 -0.1499 -0.0773
 2659DOPG   C4A53768  13.858  16.490  17.226  0.0383 -0.0136 -0.2903
 2659DOPG   C1B53769  13.778  16.956  18.280  0.1110  0.0618 -0.3175
 2659DOPG   D2B53770  13.401  16.726  18.025 -0.1438 -0.1214 -0.0706
 2659DOPG   C3B53771  13.440  16.474  17.654 -0.2303  0.2085  0.0417
 2659DOPG   C4B53772  13.479  16.105  17.347  0.3428  0.0004 -0.1457
 2660DOPG   GL053773  11.518  22.526  16.224  0.2214  0.0407 -0.3353
 2660DOPG   PO453774  11.459  22.241  16.691  0.1813 -0.1478 -0.1462
 2660DOPG   GL153775  11.341  22.511  17.029  0.2563 -0.0929  0.1969
 2660DOPG   GL253776  11.382  22.589  17.388  0.1500  0.0120  0.0830
 2660DOPG   C1A53777  11.189  23.007  17.085 -0.0467 -0.2810 -0.1554
 2660DOPG   D2A53778  11.238  23.385  16.884 -0.0970  0.1456 -0.0868
 2660DOPG   C3A53779  11.674  23.599  16.948  0.1351  0.2622 -0.2938
 2660DOPG   C4A53780  12.038  23.867  16.971 -0.0722 -0.1034 -0.0518
 2660DOPG   C1B53781  11.618  22.935  17.396  0.1389 -0.0937 -0.1217
 2660DOPG   D2B53782  11.667  23.350  17.425  0.1286  0.1231 -0.0205
 2660DOPG   C3B53783  11.247  23.537  17.465 -0.0648 -0.0283 -0.2094
 2660DOPG   C4B53784  10.846  23.514  17.285 -0.1171 -0.0886  0.1195
 2661DOPG   GL053785  11.715  10.898  18.237  0.0698  0.1646 -0.1821
 2661DOPG   PO453786  11.440  10.463  18.446 -0.2870 -0.1985 -0.0963
 2661DOPG   GL153787  11.149  10.159  18.710 -0.1559 -0.0703  0.2051
 2661DOPG   GL253788  11.203   9.887  18.689 -0.0851 -0.4853  0.1645
 2661DOPG   C1A53789  10.868   9.933  19.114 -0.4271 -0.0645  0.2626
 2661DOPG   D2A53790  10.569   9.779  19.383  0.2207  0.0319  0.2476
 2661DOPG   C3A53791  10.327   9.448  19.265  0.4687 -0.5689 -0.2468
 2661DOPG   C4A53792   9.901   9.363  19.308 -0.0135 -0.0148  0.1114
 2661DOPG   C1B53793  11.107   9.467  18.846 -0.0630 -0.0850  0.0209
 2661DOPG   D2B53794  11.093   8.983  18.677 -0.1383 -0.3083 -0.1284
 2661DOPG   C3B53795  11.494   8.918  18.469 -0.0755  0.2956  0.1589
 2661DOPG   C4B53796  11.804   8.578  18.376  0.0039 -0.3256  0.0504
 2662DOPG   GL053797  19.143  13.986  18.909 -0.1145  0.2651  0.3095
 2662DOPG   PO453798  19.196  14.142  19.327  0.1336 -0.0066  0.0723
 2662DOPG   GL153799  19.480  14.160  19.707  0.0139 -0.0522  0.0103
 2662DOPG   GL253800  19.695  14.422  19.954  0.3934 -0.0678  0.0451
 2662DOPG   C1A53801  19.660  13.817  19.898  0.0192  0.0078  0.2915
 2662DOPG   D2A53802  20.100  13.691  19.931 -0.0209 -0.0026  0.1991
 2662DOPG   C3A53803  20.597  13.922  19.982  0.3252  0.3158 -0.2684
 2662DOPG   C4A53804  20.951  14.196  19.851 -0.0826 -0.2649 -0.4559
 2662DOPG   C1B53805  20.038  14.175  19.882  0.1286 -0.0905  0.0517
 2662DOPG   D2B53806  20.373  14.066  19.595  0.0984  0.1891 -0.1299
 2662DOPG   C3B53807  20.827  13.742  19.594 -0.1743  0.0617  0.2155
 2662DOPG   C4B53808  21.172  13.666  19.886  0.2351 -0.0510 -0.0610
 2663DOPG   GL053809   4.178  19.668  18.547 -0.0008  0.1265  0.2485
 2663DOPG   PO453810   4.340  19.994  18.818  0.0543  0.1250  0.2252
 2663DOPG   GL153811   4.700  19.778  18.641  0.1183  0.4426 -0.1836
 2663DOPG   GL253812   4.643  19.533  18.713  0.1439 -0.1817 -0.0411
 2663DOPG   C1A53813   5.012  19.332  18.579 -0.1810  0.2485  0.2296
 2663DOPG   D2A53814   5.423  19.073  18.614 -0.0653  0.2170  0.0034
 2663DOPG   C3A53815   5.627  18.729  18.354  0.2479  0.1868  0.0751
 2663DOPG   C4A53816   5.643  18.267  18.368  0.3042 -0.4115  0.3763
 2663DOPG   C1B53817   4.854  19.059  18.928  0.3173  0.0842  0.0739
 2663DOPG   D2B53818   5.154  18.792  19.017 -0.2967  0.4615 -0.1973
 2663DOPG   C3B53819   5.564  18.601  18.908  0.2432 -0.1880  0.1225
 2663DOPG   C4B53820   5.609  18.125  18.826 -0.0731 -0.2227  0.0289
 2664DOPG   GL053821  14.229  12.285  16.695  0.0474 -0.3883 -0.1683
 2664DOPG   PO453822  14.039  12.713  16.597  0.0694 -0.0599  0.1651
 2664DOPG   GL153823  14.354  12.861  16.809  0.2473  0.1423  0.2783
 2664DOPG   GL253824  14.396  12.765  17.076  0.3466  0.0438 -0.1027
 2664DOPG   C1A53825  14.383  13.271  17.114  0.0428  0.1992  0.1654
 2664DOPG   D2A53826  14.244  13.660  17.492 -0.1217 -0.3161  0.0913
 2664DOPG   C3A53827  13.957  13.688  17.691  0.1013 -0.1098  0.0150
 2664DOPG   C4A53828  13.827  13.991  17.955 -0.0525  0.0603  0.1287
 2664DOPG   C1B53829  14.220  12.808  17.410  0.1609 -0.0896  0.1569
 2664DOPG   D2B53830  13.806  12.782  17.597 -0.4071  0.0595 -0.1701
 2664DOPG   C3B53831  13.623  13.249  17.779  0.0914 -0.2488 -0.2787
 2664DOPG   C4B53832  13.408  13.738  17.800  0.2519  0.0463  0.0227
 2665DOPG   GL053833   6.641  22.069  17.979 -0.1920  0.0104  0.0190
 2665DOPG   PO453834   6.937  22.266  17.685 -0.0538  0.3285  0.0484
 2665DOPG   GL153835   7.227  22.697  17.608  0.2845 -0.1794 -0.1136
 2665DOPG   GL253836   7.395  22.743  17.317 -0.0699  0.2433  0.1166
 2665DOPG   C1A53837   7.110  23.136  17.499  0.3461  0.3055  0.0129
 2665DOPG   D2A53838   7.350  23.577  17.519  0.0604 -0.2131 -0.0812
 2665DOPG   C3A53839   7.465  23.853  17.848 -0.0065 -0.0437  0.2851
 2665DOPG   C4A53840   7.541  23.678  18.331 -0.2382  0.2788  0.0248
 2665DOPG   C1B53841   7.739  22.721  17.694 -0.2076 -0.1015  0.0521
 2665DOPG   D2B53842   8.071  22.977  17.866  0.0234  0.1117 -0.4481
 2665DOPG   C3B53843   8.090  23.240  17.590  0.2049 -0.0230 -0.1206
 2665DOPG   C4B53844   8.393  23.315  17.312 -0.1581  0.1819  0.0393
 2666DOPG   GL053845   9.541  14.252  18.005 -0.1445  0.3109 -0.0741
 2666DOPG   PO453846   9.587  14.023  17.653 -0.2023 -0.0764 -0.1367
 2666DOPG   GL153847  10.047  14.013  17.684  0.0811 -0.2197 -0.2285
 2666DOPG   GL253848  10.057  13.993  18.015  0.2800 -0.2551  0.0065
 2666DOPG   C1A53849  10.186  14.249  17.301 -0.1689  0.1934  0.0569
 2666DOPG   D2A53850  10.479  14.353  16.955 -0.1292  0.0101  0.1551
 2666DOPG   C3A53851  10.378  14.205  16.472 -0.3367  0.2459 -0.2009
 2666DOPG   C4A53852  10.481  14.243  16.038 -0.0767  0.0717 -0.0206
 2666DOPG   C1B53853  10.449  13.809  18.053  0.1103 -0.0753  0.1939
 2666DOPG   D2B53854  10.809  13.547  18.212 -0.1451 -0.1126 -0.0078
 2666DOPG   C3B53855  11.001  13.492  18.558 -0.1040  0.0278 -0.1527
 2666DOPG   C4B53856  11.112  13.773  18.949  0.2493 -0.0938 -0.0860
 2667DOPG   GL053857  24.659  19.509  19.121  0.1887  0.0915  0.2933
 2667DOPG   PO453858  24.762  19.103  19.057 -0.0300 -0.0468 -0.1213
 2667DOPG   GL153859  24.788  19.002  19.364  0.0335  0.1737  0.1204
 2667DOPG   GL253860  24.924  18.843  19.485  0.1099  0.1281  0.0762
 2667DOPG   C1A53861  24.467  18.959  19.682  0.0065 -0.3556  0.0618
 2667DOPG   D2A53862  24.365  19.088  20.077  0.2219 -0.0848  0.1343
 2667DOPG   C3A53863  24.220  18.898  20.507 -0.0088 -0.1099  0.0768
 2667DOPG   C4A53864  23.950  19.025  20.868 -0.0485 -0.1500 -0.1558
 2667DOPG   C1B53865  24.989  18.625  19.803 -0.2899 -0.1361 -0.2363
 2667DOPG   D2B53866  24.881  18.206  20.060 -0.0584  0.2512 -0.0009
 2667DOPG   C3B53867  25.196  17.831  20.092  0.0635 -0.3308 -0.0967
 2667DOPG   C4B53868  25.148  17.480  20.299  0.3273 -0.1299  0.2773
 2668DOPG   GL053869  14.913  17.826  19.334 -0.0354 -0.0937 -0.1978
 2668DOPG   PO453870  15.085  17.432  19.163 -0.1312  0.1739  0.1145
 2668DOPG   GL153871  15.118  17.327  18.768  0.2576 -0.0829  0.0229
 2668DOPG   GL253872  14.867  17.074  18.562  0.2264  0.0927  0.1190
 2668DOPG   C1A53873  15.507  17.253  18.462 -0.3835  0.2490 -0.0089
 2668DOPG   D2A53874  15.634  17.074  18.122  0.1544 -0.0429 -0.2441
 2668DOPG   C3A53875  15.456  16.987  17.696  0.1453 -0.0661 -0.0939
 2668DOPG   C4A53876  15.395  16.672  17.542  0.1620 -0.2213 -0.0578
 2668DOPG   C1B53877  14.461  17.030  18.331 -0.1158 -0.0874  0.1909
 2668DOPG   D2B53878  14.234  17.127  17.981 -0.0454 -0.2263 -0.1226
 2668DOPG   C3B53879  13.873  17.333  17.880 -0.1899  0.0503  0.1552
 2668DOPG   C4B53880  13.524  17.293  17.962 -0.3011  0.1061  0.0550
 2669DOPG   GL053881  19.677  14.370  18.112  0.1255  0.0086 -0.1904
 2669DOPG   PO453882  19.474  14.166  18.404  0.3290  0.1418 -0.0776
 2669DOPG   GL153883  19.889  13.946  18.438 -0.0305  0.0596  0.2337
 2669DOPG   GL253884  19.882  13.997  18.659  0.0177  0.2721 -0.0692
 2669DOPG   C1A53885  20.040  13.518  18.464  0.0451 -0.1196 -0.0028
 2669DOPG   D2A53886  20.007  13.094  18.677 -0.0272  0.0343 -0.0462
 2669DOPG   C3A53887  20.182  12.731  18.543 -0.0814  0.5280 -0.1481
 2669DOPG   C4A53888  20.052  12.382  18.296  0.0702 -0.0310  0.4763
 2669DOPG   C1B53889  20.366  13.848  18.660  0.2219  0.3846 -0.1884
 2669DOPG   D2B53890  20.784  13.531  18.890 -0.3862 -0.2988  0.0648
 2669DOPG   C3B53891  20.783  13.237  18.914  0.1067 -0.0036  0.0696
 2669DOPG   C4B53892  20.629  12.809  18.644 -0.0829 -0.0784  0.0862
 2670DOPG   GL053893  17.971  14.827  19.702 -0.4113  0.1468  0.0159
 2670DOPG   PO453894  18.238  14.596  20.024  0.1076  0.3875  0.2637
 2670DOPG   GL153895  18.379  14.889  20.369  0.1849 -0.2628 -0.1246
 2670DOPG   GL253896  18.522  14.597  20.441  0.1385 -0.3454 -0.1924
 2670DOPG   C1A53897  18.633  14.966  20.779  0.0643 -0.0365 -0.2077
 2670DOPG   D2A53898  18.778  14.887  21.273 -0.1653 -0.0230  0.0092
 2670DOPG   C3A53899  18.416  14.910  21.553  0.0483 -0.0994 -0.0129
 2670DOPG   C4A53900  18.398  15.144  21.962 -0.0101  0.0928 -0.0566
 2670DOPG   C1B53901  18.619  14.450  20.840 -0.0621 -0.1364 -0.3309
 2670DOPG   D2B53902  18.518  14.477  21.277 -0.2237 -0.0745 -0.1930
 2670DOPG   C3B53903  18.273  14.477  21.717  0.0559 -0.1814  0.0479
 2670DOPG   C4B53904  17.906  14.215  21.836  0.1438 -0.0172 -0.4002
 2671DOPG   GL053905  16.498  12.758  18.868 -0.0346  0.3740  0.1517
 2671DOPG   PO453906  16.667  12.430  19.098  0.0708 -0.0933  0.1261
 2671DOPG   GL153907  16.333  12.160  19.372 -0.2938  0.0259  0.0817
 2671DOPG   GL253908  16.064  12.334  19.572 -0.0224  0.0364 -0.6512
 2671DOPG   C1A53909  15.896  11.874  19.377  0.0606 -0.1465 -0.0203
 2671DOPG   D2A53910  15.530  11.747  19.733 -0.1000 -0.1581 -0.2366
 2671DOPG   C3A53911  15.262  12.094  19.955  0.1488 -0.0810 -0.1140
 2671DOPG   C4A53912  15.380  12.259  20.273  0.1805 -0.0182 -0.2848
 2671DOPG   C1B53913  16.149  12.474  19.995  0.4862 -0.0069 -0.4160
 2671DOPG   D2B53914  15.893  12.548  20.416  0.1657  0.0775  0.0365
 2671DOPG   C3B53915  16.111  12.872  20.701  0.0783 -0.1319 -0.2297
 2671DOPG   C4B53916  16.114  13.309  20.732 -0.0679 -0.1283 -0.3081
 2672DOPG   GL053917   5.780  23.368  18.596 -0.1126 -0.2154 -0.2183
 2672DOPG   PO453918   6.277  23.227  18.562  0.2349  0.0332  0.0286
 2672DOPG   GL153919   6.731  23.264  18.629 -0.1040  0.4604  0.3323
 2672DOPG   GL253920   6.747  23.036  18.317 -0.2833  0.1479  0.0309
 2672DOPG   C1A53921   6.855  23.260  19.037  0.1619  0.3238  0.0313
 2672DOPG   D2A53922   6.789  22.997  19.331 -0.0266  0.2300 -0.0236
 2672DOPG   C3A53923   7.157  23.049  19.627 -0.2468  0.0721 -0.1282
 2672DOPG   C4A53924   7.548  22.921  19.751 -0.2005  0.1880 -0.0802
 2672DOPG   C1B53925   7.080  22.764  18.330  0.0353  0.2532 -0.4012
 2672DOPG   D2B53926   7.322  22.471  17.988  0.0059 -0.0705  0.1691
 2672DOPG   C3B53927   7.512  22.159  18.102 -0.0183  0.0960 -0.0444
 2672DOPG   C4B53928   7.732  21.837  18.346  0.0956 -0.0531 -0.3926
 2673DOPG   GL053929  14.110  17.723  18.853 -0.1289  0.6161 -0.0926
 2673DOPG   PO453930  13.977  17.473  18.929  0.1137 -0.3185 -0.0391
 2673DOPG   GL153931  13.701  17.563  18.650  0.0718 -0.0565  0.0663
 2673DOPG   GL253932  13.898  17.477  18.434 -0.3065 -0.0214 -0.1670
 2673DOPG   C1A53933  13.410  17.584  18.386  0.0331 -0.0846  0.1782
 2673DOPG   D2A53934  12.979  17.648  18.149  0.1536  0.0914 -0.0718
 2673DOPG   C3A53935  12.856  17.481  17.821  0.0559  0.1155  0.0683
 2673DOPG   C4A53936  12.602  17.180  17.565 -0.0977  0.2277  0.3025
 2673DOPG   C1B53937  14.379  17.540  18.393 -0.0931 -0.1551 -0.0048
 2673DOPG   D2B53938  14.594  17.739  18.026 -0.1253 -0.1218 -0.3104
 2673DOPG   C3B53939  14.247  17.603  17.825 -0.1082 -0.0083 -0.4711
 2673DOPG   C4B53940  14.001  17.887  17.603 -0.3051 -0.0486 -0.0829
 2674DOPG   GL053941  19.090  14.871  18.736 -0.0637 -0.0475  0.1577
 2674DOPG   PO453942  19.337  14.440  18.802  0.1426 -0.0039  0.0103
 2674DOPG   GL153943  19.617  14.108  19.065  0.0282  0.0936 -0.0100
 2674DOPG   GL253944  19.502  13.765  19.102 -0.0562  0.2293  0.1419
 2674DOPG   C1A53945  19.856  13.971  19.415  0.3154  0.1410 -0.1802
 2674DOPG   D2A53946  19.801  13.502  19.467  0.0748  0.1920  0.2236
 2674DOPG   C3A53947  19.635  13.156  19.577  0.0653 -0.1011  0.0505
 2674DOPG   C4A53948  19.387  12.788  19.510 -0.1030  0.0591  0.0375
 2674DOPG   C1B53949  19.566  13.231  19.095  0.0271  0.1486 -0.1314
 2674DOPG   D2B53950  19.742  12.851  19.056  0.0356  0.0860 -0.2453
 2674DOPG   C3B53951  19.984  12.498  19.293  0.1666  0.0675  0.0389
 2674DOPG   C4B53952  20.337  12.276  19.298  0.2483 -0.0544  0.2844
 2675DOPG   GL053953  14.010  19.654  18.804  0.1777 -0.1713 -0.1828
 2675DOPG   PO453954  13.953  20.115  18.826 -0.2147 -0.5205 -0.1432
 2675DOPG   GL153955  14.011  20.434  19.140 -0.1215 -0.0622  0.0546
 2675DOPG   GL253956  13.899  20.792  19.083 -0.5174  0.5351  0.0439
 2675DOPG   C1A53957  14.177  20.566  19.575  0.1623  0.0020 -0.0777
 2675DOPG   D2A53958  14.036  20.546  20.012  0.1084  0.0593  0.4162
 2675DOPG   C3A53959  14.373  20.521  20.218 -0.0794 -0.0272 -0.0526
 2675DOPG   C4A53960  14.865  20.578  20.233 -0.3903 -0.1630  0.0111
 2675DOPG   C1B53961  13.979  21.168  18.899 -0.0130  0.4707  0.1610
 2675DOPG   D2B53962  13.897  21.540  19.065 -0.3859  0.1051 -0.1832
 2675DOPG   C3B53963  13.886  21.930  18.765 -0.2669  0.1879  0.0179
 2675DOPG   C4B53964  13.886  22.338  18.948 -0.0264 -0.1938 -0.1615
 2676DOPG   GL053965  18.498  16.458  20.035  0.2449 -0.0333  0.3458
 2676DOPG   PO453966  18.770  16.721  19.860  0.0633 -0.0731  0.1788
 2676DOPG   GL153967  19.066  16.980  19.966  0.2149  0.0104  0.1938
 2676DOPG   GL253968  19.179  17.255  19.771  0.0791  0.0439  0.1591
 2676DOPG   C1A53969  19.002  17.127  20.443  0.2137 -0.0339  0.2390
 2676DOPG   D2A53970  18.829  16.890  20.804 -0.0015  0.3059 -0.1971
 2676DOPG   C3A53971  19.044  16.881  21.181  0.0624 -0.1656  0.4142
 2676DOPG   C4A53972  19.118  16.771  21.600  0.0579 -0.0214  0.1980
 2676DOPG   C1B53973  19.491  17.603  19.754 -0.0003  0.0313  0.1491
 2676DOPG   D2B53974  19.932  17.457  19.935  0.0180  0.0647 -0.1420
 2676DOPG   C3B53975  20.139  17.874  19.962  0.1386  0.2411  0.0524
 2676DOPG   C4B53976  20.307  18.234  19.886 -0.3708  0.1514 -0.1846
 2677DOPG   GL053977  19.260  15.911  19.734  0.0516  0.1630 -0.1302
 2677DOPG   PO453978  19.416  15.846  20.076  0.0597  0.2386 -0.1990
 2677DOPG   GL153979  19.844  15.919  20.310  0.1192 -0.0247  0.1241
 2677DOPG   GL253980  19.745  15.612  20.348  0.1052  0.2372 -0.1847
 2677DOPG   C1A53981  20.282  15.832  20.304 -0.0559 -0.0886 -0.3518
 2677DOPG   D2A53982  20.543  15.780  20.607 -0.0366  0.2330  0.1468
 2677DOPG   C3A53983  20.356  15.835  20.931 -0.2475  0.0499 -0.1750
 2677DOPG   C4A53984  20.345  16.166  21.101  0.0057  0.1284  0.1517
 2677DOPG   C1B53985  20.023  15.552  20.659  0.0417  0.1076 -0.4546
 2677DOPG   D2B53986  20.224  15.335  20.980 -0.2386  0.0948 -0.0325
 2677DOPG   C3B53987  20.111  15.329  21.307  0.2902  0.1914 -0.0125
 2677DOPG   C4B53988  20.373  15.297  21.720 -0.1114  0.0708  0.0021
 2678DOPG   GL053989  17.792  14.080  17.799 -0.0789  0.3128  0.0388
 2678DOPG   PO453990  17.878  14.192  17.519 -0.1071 -0.0537 -0.3268
 2678DOPG   GL153991  17.694  14.480  17.309 -0.0172  0.0040 -0.0319
 2678DOPG   GL253992  17.886  14.592  17.053  0.1708 -0.0440 -0.1701
 2678DOPG   C1A53993  17.365  14.753  17.214 -0.2210  0.3927  0.0386
 2678DOPG   D2A53994  17.021  14.802  17.536  0.0429  0.3834 -0.2609
 2678DOPG   C3A53995  16.764  15.060  17.835  0.0011  0.1093 -0.0275
 2678DOPG   C4A53996  16.531  15.283  18.204  0.1156 -0.1124  0.2726
 2678DOPG   C1B53997  17.947  14.899  17.424  0.2266  0.1773 -0.0962
 2678DOPG   D2B53998  17.906  15.060  17.836  0.2428 -0.1908  0.1004
 2678DOPG   C3B53999  18.065  15.217  18.255 -0.0229 -0.0534 -0.0628
 2678DOPG   C4B54000  18.274  15.540  18.446 -0.0679 -0.0165 -0.1127
 2679DOPG   GL054001  23.155  18.453  17.977  0.0181  0.1223  0.0441
 2679DOPG   PO454002  23.103  18.129  18.246 -0.2397 -0.0354  0.2409
 2679DOPG   GL154003  22.991  18.171  18.646 -0.0053 -0.2720  0.4357
 2679DOPG   GL254004  22.750  18.128  18.643 -0.1317 -0.0638 -0.0694
 2679DOPG   C1A54005  22.956  18.102  19.108 -0.1174  0.1361  0.3273
 2679DOPG   D2A54006  22.710  18.338  19.379  0.0290 -0.1916  0.2747
 2679DOPG   C3A54007  22.781  18.162  19.740 -0.0268  0.1631  0.1007
 2679DOPG   C4A54008  22.994  18.413  20.063  0.0431 -0.2485 -0.5316
 2679DOPG   C1B54009  22.434  18.368  19.004  0.0681 -0.3510 -0.4241
 2679DOPG   D2B54010  22.111  18.375  19.451  0.1312  0.0273 -0.2628
 2679DOPG   C3B54011  21.683  18.277  19.563 -0.1485  0.0151  0.0364
 2679DOPG   C4B54012  21.457  18.618  19.689  0.3725 -0.0503  0.1888
 2680DOPG   GL054013  14.396  20.321  18.671  0.1712  0.1801 -0.2679
 2680DOPG   PO454014  14.425  20.638  18.435  0.0499  0.0005 -0.2361
 2680DOPG   GL154015  14.405  20.837  18.830  0.0875  0.1464  0.0295
 2680DOPG   GL254016  14.488  20.668  19.122 -0.0679 -0.2413  0.1251
 2680DOPG   C1A54017  14.485  21.227  18.982  0.1753  0.0020  0.2209
 2680DOPG   D2A54018  14.381  21.410  19.269  0.1992 -0.1140 -0.0338
 2680DOPG   C3A54019  13.975  21.195  19.458 -0.5094 -0.4124  0.1109
 2680DOPG   C4A54020  13.963  20.985  19.825  0.0204 -0.0505  0.2942
 2680DOPG   C1B54021  14.605  20.903  19.408  0.1470 -0.0285  0.2780
 2680DOPG   D2B54022  14.876  21.129  19.602  0.1768 -0.1100  0.0843
 2680DOPG   C3B54023  14.969  21.047  19.969  0.1193  0.1477 -0.1358
 2680DOPG   C4B54024  15.258  21.114  20.330  0.1109 -0.0393  0.2432
 2681DOPG   GL054025  14.535  18.083  18.607 -0.0250 -0.2932 -0.0365
 2681DOPG   PO454026  14.939  17.757  18.768 -0.1698 -0.0652 -0.3089
 2681DOPG   GL154027  14.939  17.553  18.357 -0.1617 -0.2868 -0.1286
 2681DOPG   GL254028  15.097  17.764  18.088  0.4479 -0.2193  0.1000
 2681DOPG   C1A54029  14.753  17.295  18.078 -0.0160 -0.3766  0.0373
 2681DOPG   D2A54030  14.607  17.281  17.650  0.1440 -0.0241 -0.0337
 2681DOPG   C3A54031  14.943  17.400  17.293  0.0615  0.1334 -0.3026
 2681DOPG   C4A54032  15.321  17.572  17.123  0.0269  0.2175  0.0752
 2681DOPG   C1B54033  15.131  17.368  17.756  0.1095  0.0511  0.0524
 2681DOPG   D2B54034  14.982  16.921  17.493  0.2679 -0.1409 -0.1248
 2681DOPG   C3B54035  14.712  16.630  17.154  0.1324 -0.0444 -0.1619
 2681DOPG   C4B54036  14.308  16.397  17.078 -0.0224 -0.1451 -0.2212
 2682DOPG   GL054037  18.613  15.446  19.609  0.1171  0.0676  0.0940
 2682DOPG   PO454038  19.023  15.458  19.723 -0.0026 -0.2759  0.0346
 2682DOPG   GL154039  19.050  15.279  20.237 -0.0447  0.0810  0.1571
 2682DOPG   GL254040  18.874  15.003  20.350 -0.0732 -0.1081 -0.0650
 2682DOPG   C1A54041  19.310  15.144  20.488 -0.3708  0.2682 -0.0793
 2682DOPG   D2A54042  19.138  14.918  20.959 -0.0953  0.2220 -0.1331
 2682DOPG   C3A54043  19.041  14.447  21.211  0.1754  0.1288  0.1662
 2682DOPG   C4A54044  18.695  14.012  21.280  0.0655  0.0207  0.0540
 2682DOPG   C1B54045  19.043  14.695  20.516  0.0526 -0.2815 -0.3389
 2682DOPG   D2B54046  19.270  14.399  20.377 -0.2994  0.1640 -0.0302
 2682DOPG   C3B54047  19.234  14.004  20.291 -0.1337 -0.3368  0.0619
 2682DOPG   C4B54048  18.949  13.642  20.459 -0.0417  0.0455 -0.0439
 2683DOPG   GL054049   9.569  13.327  18.345 -0.1090 -0.3103  0.0823
 2683DOPG   PO454050   9.422  12.950  18.516 -0.0443 -0.1724 -0.0064
 2683DOPG   GL154051   9.083  12.853  18.820  0.0994  0.0513  0.2634
 2683DOPG   GL254052   8.876  12.662  18.731  0.0530 -0.0839 -0.2417
 2683DOPG   C1A54053   8.820  12.757  19.181  0.0450  0.2711  0.0435
 2683DOPG   D2A54054   8.473  12.565  19.434  0.0653 -0.0642  0.2612
 2683DOPG   C3A54055   8.568  12.699  19.857  0.2073  0.0393  0.1601
 2683DOPG   C4A54056   8.433  12.883  20.235 -0.2659 -0.1347  0.0257
 2683DOPG   C1B54057   8.779  12.334  18.971 -0.1893 -0.1173 -0.2523
 2683DOPG   D2B54058   8.791  11.839  19.040 -0.0456 -0.0450  0.0640
 2683DOPG   C3B54059   9.268  11.800  19.105  0.1320  0.2900 -0.0971
 2683DOPG   C4B54060   9.358  11.560  19.468 -0.1575  0.0987  0.2124
 2684DOPG   GL054061  20.675  18.846  16.548  0.2373 -0.1041 -0.1190
 2684DOPG   PO454062  20.551  18.580  16.883  0.0127  0.1040 -0.1169
 2684DOPG   GL154063  20.398  18.217  16.891  0.2478  0.0720  0.1708
 2684DOPG   GL254064  20.562  17.899  17.035  0.0590 -0.1636  0.0708
 2684DOPG   C1A54065  20.139  17.775  16.767  0.0883 -0.1894  0.0543
 2684DOPG   D2A54066  20.286  17.375  16.867  0.1446  0.5132  0.1416
 2684DOPG   C3A54067  19.925  17.003  16.958 -0.0071  0.0651  0.0786
 2684DOPG   C4A54068  19.596  16.785  16.997  0.0866 -0.0516  0.1671
 2684DOPG   C1B54069  20.315  17.610  17.393 -0.0773  0.3079 -0.1116
 2684DOPG   D2B54070  20.241  17.732  17.841  0.0274 -0.1120  0.1658
 2684DOPG   C3B54071  20.547  17.531  18.177 -0.2149 -0.0204  0.2276
 2684DOPG   C4B54072  20.446  17.054  18.244 -0.1440 -0.0296  0.1166
 2685DOPG   GL054073  14.101  20.974  17.735 -0.2320 -0.2919 -0.2519
 2685DOPG   PO454074  14.349  21.364  17.643 -0.0900 -0.0182  0.1004
 2685DOPG   GL154075  14.349  21.780  17.648 -0.0939 -0.1395  0.2259
 2685DOPG   GL254076  14.298  21.976  17.296 -0.1203  0.2270  0.0282
 2685DOPG   C1A54077  14.353  22.108  17.949 -0.1019  0.3169 -0.0167
 2685DOPG   D2A54078  14.371  22.628  18.073 -0.1413  0.1260  0.0374
 2685DOPG   C3A54079  14.101  22.744  18.435 -0.0366 -0.1229 -0.0566
 2685DOPG   C4A54080  13.736  22.957  18.571 -0.0755 -0.2894  0.0367
 2685DOPG   C1B54081  13.961  22.063  17.657  0.2221  0.3945 -0.0375
 2685DOPG   D2B54082  13.552  22.167  17.803 -0.0422 -0.3967 -0.3316
 2685DOPG   C3B54083  13.349  22.543  17.849 -0.3453  0.0936 -0.0439
 2685DOPG   C4B54084  13.305  22.995  17.896  0.1536  0.2325  0.2456
 2686DOPG   GL054085  23.040  18.869  17.601 -0.0356  0.0888 -0.0758
 2686DOPG   PO454086  23.005  18.945  18.128  0.1174  0.0289  0.2510
 2686DOPG   GL154087  22.730  19.034  18.466  0.4324  0.0071  0.0976
 2686DOPG   GL254088  22.920  19.203  18.757 -0.2399 -0.1908 -0.0795
 2686DOPG   C1A54089  22.360  19.063  18.679 -0.1809  0.1145 -0.1308
 2686DOPG   D2A54090  22.188  18.822  18.944  0.2791 -0.0465  0.0287
 2686DOPG   C3A54091  22.463  18.750  19.331  0.2100  0.1224  0.2526
 2686DOPG   C4A54092  22.531  18.687  19.676  0.1899 -0.1364  0.1266
 2686DOPG   C1B54093  22.591  19.295  19.005  0.0224 -0.4104  0.1313
 2686DOPG   D2B54094  22.151  19.236  19.205  0.4395  0.3065 -0.1081
 2686DOPG   C3B54095  22.156  19.101  19.575 -0.1855  0.2112 -0.1239
 2686DOPG   C4B54096  21.943  19.082  20.030 -0.2559  0.0560 -0.0173
 2687DOPG   GL054097  18.444  20.369  18.389 -0.1053 -0.0680 -0.2471
 2687DOPG   PO454098  18.092  20.682  18.240  0.2269  0.3094 -0.0933
 2687DOPG   GL154099  18.262  20.933  18.534 -0.5184 -0.0597 -0.0606
 2687DOPG   GL254100  18.416  21.264  18.340 -0.3814 -0.0509 -0.1387
 2687DOPG   C1A54101  18.473  21.063  18.935 -0.1186 -0.0443  0.0946
 2687DOPG   D2A54102  18.692  21.260  19.333  0.1204  0.0588 -0.3683
 2687DOPG   C3A54103  18.858  21.828  19.454 -0.0347 -0.1788 -0.1675
 2687DOPG   C4A54104  18.901  21.914  19.856 -0.1286 -0.1219  0.0826
 2687DOPG   C1B54105  18.453  21.550  18.660  0.1041 -0.2453 -0.2384
 2687DOPG   D2B54106  18.597  21.744  19.056  0.0351  0.2981 -0.1181
 2687DOPG   C3B54107  19.045  21.684  19.011  0.1820 -0.1607 -0.2755
 2687DOPG   C4B54108  19.415  21.667  19.023 -0.0746 -0.0296  0.1093
 2688DOPG   GL054109  10.524  11.632  17.885  0.0878  0.1966 -0.4177
 2688DOPG   PO454110  10.468  11.979  18.097 -0.1489  0.0343 -0.4107
 2688DOPG   GL154111  10.783  12.310  18.145 -0.1804 -0.0311 -0.1483
 2688DOPG   GL254112  10.631  12.507  18.378  0.0869 -0.1652  0.0663
 2688DOPG   C1A54113  11.212  12.662  17.967 -0.3066 -0.3510 -0.0135
 2688DOPG   D2A54114  11.359  13.071  17.912 -0.2007 -0.0858  0.2560
 2688DOPG   C3A54115  10.927  13.290  17.810  0.0623 -0.2575 -0.3197
 2688DOPG   C4A54116  10.663  13.484  17.736  0.0606  0.2157 -0.0306
 2688DOPG   C1B54117  11.197  12.370  18.424 -0.2391  0.2016  0.1199
 2688DOPG   D2B54118  11.332  11.914  18.651 -0.3109 -0.1132  0.1569
 2688DOPG   C3B54119  11.572  11.893  18.974  0.1316 -0.1178 -0.3328
 2688DOPG   C4B54120  11.797  12.241  19.255  0.0766  0.0070 -0.2636
 2689DOPG   GL054121  16.081  15.908  20.895 -0.2900 -0.1604  0.0434
 2689DOPG   PO454122  16.483  15.838  20.920 -0.1449 -0.2968 -0.0130
 2689DOPG   GL154123  16.585  15.586  21.275  0.0007  0.1416 -0.0473
 2689DOPG   GL254124  16.753  15.411  21.022  0.0436 -0.1040 -0.0101
 2689DOPG   C1A54125  16.450  15.677  21.767 -0.1381 -0.5403 -0.0870
 2689DOPG   D2A54126  16.117  15.476  22.011  0.1890 -0.0506  0.2382
 2689DOPG   C3A54127  16.113  15.542  22.513  0.0468  0.0939 -0.0241
 2689DOPG   C4A54128  15.851  15.679  22.867  0.0808  0.1944  0.1242
 2689DOPG   C1B54129  17.013  15.268  21.459 -0.0389  0.0250  0.4451
 2689DOPG   D2B54130  16.834  15.030  21.766 -0.1841  0.1378  0.1177
 2689DOPG   C3B54131  16.552  14.618  21.772 -0.1970  0.1408  0.2684
 2689DOPG   C4B54132  16.284  14.372  21.560 -0.0384 -0.1590 -0.1956
 2690DOPG   GL054133  13.949  14.483  19.599  0.0530  0.0777 -0.0459
 2690DOPG   PO454134  13.571  14.301  19.451 -0.1754 -0.1075 -0.2968
 2690DOPG   GL154135  13.799  14.286  19.025 -0.1205  0.0921 -0.0200
 2690DOPG   GL254136  13.809  13.950  19.036 -0.0041 -0.0831  0.1587
 2690DOPG   C1A54137  13.780  14.252  18.588  0.0263  0.0634 -0.4011
 2690DOPG   D2A54138  14.030  14.277  18.264 -0.0030 -0.0817 -0.0057
 2690DOPG   C3A54139  14.475  14.285  18.359 -0.0484 -0.2002 -0.1180
 2690DOPG   C4A54140  14.744  14.096  18.614 -0.0681  0.0354 -0.1488
 2690DOPG   C1B54141  14.087  13.795  18.678 -0.0995  0.0744 -0.0726
 2690DOPG   D2B54142  14.170  13.420  18.615  0.1462 -0.0254  0.3587
 2690DOPG   C3B54143  14.112  13.169  18.372 -0.0088  0.1430  0.1284
 2690DOPG   C4B54144  13.909  12.929  18.119  0.2856 -0.0631 -0.1505
 2691DOPG   GL054145  10.067  21.377  17.737  0.0393  0.1274  0.4748
 2691DOPG   PO454146   9.652  21.380  17.823  0.0892 -0.1939  0.0858
 2691DOPG   GL154147   9.497  21.782  17.956 -0.1832  0.0935 -0.2037
 2691DOPG   GL254148   9.661  21.895  17.681 -0.2231  0.1038  0.1712
 2691DOPG   C1A54149   9.578  22.158  18.253 -0.0565 -0.0533  0.0620
 2691DOPG   D2A54150   9.430  22.532  18.387  0.0124  0.0167 -0.1846
 2691DOPG   C3A54151   8.921  22.604  18.337  0.0663  0.4425 -0.1935
 2691DOPG   C4A54152   8.566  22.636  18.545  0.2275  0.0167 -0.1731
 2691DOPG   C1B54153   9.654  22.277  17.794  0.2286  0.1556 -0.0586
 2691DOPG   D2B54154   9.896  22.529  18.110 -0.1119  0.1245 -0.1356
 2691DOPG   C3B54155   9.739  22.850  18.084 -0.0705 -0.1256  0.2950
 2691DOPG   C4B54156   9.480  23.094  18.350 -0.1175 -0.0786  0.0824
 2692DOPG   GL054157  13.670  16.646  19.144 -0.0039 -0.4691  0.2629
 2692DOPG   PO454158  13.607  17.058  18.949  0.0853  0.1215  0.0305
 2692DOPG   GL154159  13.296  17.250  18.831 -0.2616 -0.1840  0.1737
 2692DOPG   GL254160  13.373  17.080  18.502 -0.0954  0.2917 -0.0224
 2692DOPG   C1A54161  12.984  17.458  18.640 -0.1216  0.0960  0.3867
 2692DOPG   D2A54162  12.550  17.400  18.674  0.3835 -0.1010 -0.2247
 2692DOPG   C3A54163  12.502  17.721  18.445 -0.0307 -0.2158 -0.1952
 2692DOPG   C4A54164  12.264  18.010  18.595  0.5191 -0.2520  0.0267
 2692DOPG   C1B54165  13.089  17.139  18.128  0.1846 -0.2065 -0.4205
 2692DOPG   D2B54166  13.200  17.055  17.679 -0.3384 -0.1126 -0.0323
 2692DOPG   C3B54167  12.895  16.722  17.369  0.0952  0.1459 -0.2099
 2692DOPG   C4B54168  13.005  16.323  17.395  0.0883 -0.1547 -0.0400
 2693DOPG   GL054169   9.997  18.328  18.110  0.0634 -0.2215  0.1161
 2693DOPG   PO454170   9.953  18.492  18.533 -0.1138  0.1759  0.3433
 2693DOPG   GL154171  10.236  18.488  18.963  0.0982  0.0494  0.0448
 2693DOPG   GL254172  10.462  18.231  18.946  0.0727 -0.1227  0.3765
 2693DOPG   C1A54173  10.385  18.559  19.392 -0.0466  0.0843 -0.0451
 2693DOPG   D2A54174  10.534  18.793  19.852 -0.1394  0.3069  0.1256
 2693DOPG   C3A54175  10.665  18.697  20.336  0.1330 -0.2452 -0.0792
 2693DOPG   C4A54176  10.770  18.401  20.670 -0.1982  0.3092 -0.1868
 2693DOPG   C1B54177  10.765  18.141  19.281 -0.0712  0.0611  0.2331
 2693DOPG   D2B54178  10.944  17.879  19.676 -0.1260 -0.1388  0.2734
 2693DOPG   C3B54179  10.968  18.113  20.082  0.0240 -0.2356  0.0361
 2693DOPG   C4B54180  11.111  18.366  20.340  0.3749  0.0378  0.0304
 2694DOPG   GL054181  17.146  20.580  18.524 -0.1061 -0.0862  0.0750
 2694DOPG   PO454182  17.315  20.439  18.719 -0.1150  0.0447  0.0023
 2694DOPG   GL154183  17.526  20.598  19.064  0.0863  0.1941 -0.0194
 2694DOPG   GL254184  17.404  20.542  19.389  0.0218  0.2488 -0.1874
 2694DOPG   C1A54185  17.869  20.412  19.384 -0.0350  0.4608 -0.1140
 2694DOPG   D2A54186  18.057  20.620  19.783 -0.2303 -0.1532  0.2061
 2694DOPG   C3A54187  17.918  20.542  20.243 -0.0951  0.0695 -0.2072
 2694DOPG   C4A54188  17.634  20.311  20.583  0.3515  0.0868 -0.3323
 2694DOPG   C1B54189  17.198  20.972  19.352  0.1193  0.0162 -0.1539
 2694DOPG   D2B54190  17.319  21.292  19.554 -0.2630 -0.0523  0.2555
 2694DOPG   C3B54191  17.649  21.445  19.508  0.3149 -0.0990  0.0413
 2694DOPG   C4B54192  18.031  21.590  19.242  0.0980 -0.3317 -0.0257
 2695DOPG   GL054193  15.862  11.684  17.344 -0.2557  0.0857 -0.0169
 2695DOPG   PO454194  16.126  11.977  17.561 -0.0169  0.0543 -0.1442
 2695DOPG   GL154195  16.111  11.529  17.886 -0.5393  0.1314  0.0923
 2695DOPG   GL254196  15.908  11.313  17.756  0.3516 -0.1100 -0.0520
 2695DOPG   C1A54197  16.419  11.100  17.949 -0.1549  0.0320  0.4377
 2695DOPG   D2A54198  16.505  10.650  17.788 -0.3186  0.1017  0.1664
 2695DOPG   C3A54199  16.383  10.347  17.520 -0.1491 -0.0072 -0.0831
 2695DOPG   C4A54200  16.581   9.997  17.321  0.2749 -0.1652  0.3419
 2695DOPG   C1B54201  16.157  10.979  17.559  0.0675 -0.0553  0.0593
 2695DOPG   D2B54202  16.610  10.731  17.258  0.0333  0.0521  0.3315
 2695DOPG   C3B54203  17.023  10.823  17.359  0.0692 -0.0457 -0.1408
 2695DOPG   C4B54204  17.362  10.523  17.499 -0.0073  0.0780  0.2395
 2696DOPG   GL054205  16.750  19.594  18.679  0.1716  0.2671 -0.0833
 2696DOPG   PO454206  16.992  19.293  18.474  0.0430  0.4309  0.0728
 2696DOPG   GL154207  17.198  18.958  18.212  0.0570  0.0463 -0.1963
 2696DOPG   GL254208  17.484  18.807  18.200 -0.1565  0.3347 -0.1062
 2696DOPG   C1A54209  17.065  18.779  17.847 -0.2576 -0.2204 -0.1790
 2696DOPG   D2A54210  16.705  18.718  17.631 -0.0808 -0.1687 -0.0383
 2696DOPG   C3A54211  16.645  18.427  17.386  0.2505  0.1511 -0.0393
 2696DOPG   C4A54212  16.266  18.307  17.197  0.1902 -0.3162  0.0308
 2696DOPG   C1B54213  17.876  18.624  18.169  0.0598 -0.2368  0.2222
 2696DOPG   D2B54214  18.266  18.909  18.086  0.0676 -0.0044  0.0697
 2696DOPG   C3B54215  18.336  19.046  17.744  0.1172 -0.0655  0.2541
 2696DOPG   C4B54216  18.515  19.375  17.632  0.1806  0.1502  0.1379
 2697DOPG   GL054217  16.798  18.984  19.469 -0.2364  0.0321 -0.2450
 2697DOPG   PO454218  16.604  18.987  19.855 -0.1116 -0.2002  0.0122
 2697DOPG   GL154219  16.783  19.217  20.237  0.0671  0.1429  0.3364
 2697DOPG   GL254220  17.113  19.187  20.307  0.0670 -0.0835  0.2025
 2697DOPG   C1A54221  16.829  19.284  20.696 -0.1139  0.1402  0.2595
 2697DOPG   D2A54222  16.713  19.647  20.901 -0.2228 -0.1992  0.0798
 2697DOPG   C3A54223  16.301  19.887  20.772  0.1663  0.2680  0.2208
 2697DOPG   C4A54224  16.100  19.908  20.494  0.2526 -0.0684  0.2192
 2697DOPG   C1B54225  17.328  19.539  20.549 -0.0054  0.2791 -0.1774
 2697DOPG   D2B54226  17.436  19.905  20.753 -0.1079  0.1388  0.4008
 2697DOPG   C3B54227  17.774  20.039  20.996 -0.1816  0.0368 -0.1716
 2697DOPG   C4B54228  18.221  19.938  21.141  0.2695  0.1501  0.1960
 2698DOPG   GL054229  13.083  14.196  20.368  0.0158 -0.0605  0.0060
 2698DOPG   PO454230  13.217  13.926  19.894 -0.2068  0.2718  0.0021
 2698DOPG   GL154231  13.081  13.571  19.683 -0.1174 -0.2193 -0.3005
 2698DOPG   GL254232  12.805  13.576  19.684  0.0328 -0.1393 -0.1929
 2698DOPG   C1A54233  13.165  13.161  19.429  0.0499  0.2027  0.2910
 2698DOPG   D2A54234  13.610  13.027  19.428 -0.2223  0.0695  0.1183
 2698DOPG   C3A54235  13.786  12.671  19.214 -0.1954  0.0721  0.0093
 2698DOPG   C4A54236  14.271  12.652  19.074 -0.1205 -0.1284  0.2521
 2698DOPG   C1B54237  12.822  13.131  19.769 -0.0077 -0.1301 -0.0057
 2698DOPG   D2B54238  13.075  12.833  19.893 -0.3737 -0.0509 -0.0252
 2698DOPG   C3B54239  13.231  12.663  19.612 -0.3916  0.2455 -0.1762
 2698DOPG   C4B54240  13.225  12.446  19.266  0.2850 -0.1406 -0.1785
 2699DOPG   GL054241  14.472  19.494  19.219  0.2567  0.0754  0.1115
 2699DOPG   PO454242  14.149  19.774  19.296  0.0818 -0.0936  0.0198
 2699DOPG   GL154243  14.481  19.805  19.669  0.0262  0.0669  0.2134
 2699DOPG   GL254244  14.456  20.092  19.879 -0.0925  0.1811  0.3985
 2699DOPG   C1A54245  14.469  19.649  20.174  0.1412 -0.1618  0.0567
 2699DOPG   D2A54246  14.731  19.649  20.600  0.3618 -0.3282  0.3416
 2699DOPG   C3A54247  14.902  20.013  20.801 -0.0172 -0.0897  0.1220
 2699DOPG   C4A54248  15.146  20.312  20.542  0.3199 -0.0209 -0.1132
 2699DOPG   C1B54249  14.082  19.994  20.052  0.1323 -0.0286 -0.0011
 2699DOPG   D2B54250  13.795  20.123  19.913  0.4272  0.1712 -0.0376
 2699DOPG   C3B54251  13.471  20.421  19.974 -0.0946  0.0112  0.0561
 2699DOPG   C4B54252  13.637  20.808  20.146 -0.0560  0.0419  0.0166
 2700DOPG   GL054253  13.637  16.509  20.018  0.0639  0.0205  0.1238
 2700DOPG   PO454254  13.335  16.123  20.171 -0.0480 -0.1374 -0.3572
 2700DOPG   GL154255  13.331  16.172  20.543 -0.1790 -0.4241  0.0502
 2700DOPG   GL254256  13.509  16.107  20.804  0.3487 -0.1059  0.0202
 2700DOPG   C1A54257  13.089  16.419  20.825 -0.0377 -0.0072 -0.3471
 2700DOPG   D2A54258  12.936  16.569  21.088  0.2284 -0.1798 -0.2818
 2700DOPG   C3A54259  12.773  16.984  21.258 -0.0123  0.2191 -0.0094
 2700DOPG   C4A54260  12.766  17.360  21.087  0.2840  0.0276  0.0465
 2700DOPG   C1B54261  13.309  16.116  21.197 -0.1170  0.0947 -0.3459
 2700DOPG   D2B54262  13.224  16.385  21.654 -0.0695  0.0384 -0.1673
 2700DOPG   C3B54263  13.193  16.202  22.008 -0.0370 -0.2137  0.0864
 2700DOPG   C4B54264  12.885  16.044  22.215  0.4473  0.3238  0.0885
 2701DOPG   GL054265   7.630  18.777  17.188 -0.2591 -0.1062 -0.0481
 2701DOPG   PO454266   7.409  18.473  17.440  0.1453  0.0736 -0.1179
 2701DOPG   GL154267   6.976  18.421  17.323 -0.0977 -0.0540  0.0882
 2701DOPG   GL254268   6.992  18.108  17.514 -0.0438  0.2292  0.0599
 2701DOPG   C1A54269   6.599  18.252  17.247 -0.0649  0.1174 -0.0314
 2701DOPG   D2A54270   6.083  18.344  17.192  0.1265 -0.1864  0.1230
 2701DOPG   C3A54271   5.756  18.290  17.492 -0.1409 -0.3061 -0.1829
 2701DOPG   C4A54272   5.651  18.347  17.922  0.4059 -0.3360 -0.0473
 2701DOPG   C1B54273   6.597  18.020  17.629  0.2781  0.3522  0.2169
 2701DOPG   D2B54274   6.226  18.311  17.776 -0.0357  0.0003  0.2781
 2701DOPG   C3B54275   6.314  18.647  17.582  0.1006  0.1721  0.2732
 2701DOPG   C4B54276   6.475  18.725  17.251 -0.0285  0.0804  0.2982
 2702DOPG   GL054277  13.828  10.503  18.525 -0.1828 -0.2622 -0.1022
 2702DOPG   PO454278  14.000  10.672  18.839  0.1176 -0.2647 -0.0277
 2702DOPG   GL154279  13.792  10.369  19.040  0.0775  0.2063  0.1469
 2702DOPG   GL254280  13.461  10.304  19.069  0.1103 -0.1052 -0.1043
 2702DOPG   C1A54281  13.748   9.884  19.170 -0.2744 -0.0677 -0.2327
 2702DOPG   D2A54282  13.664   9.552  18.912  0.0097 -0.0089  0.0023
 2702DOPG   C3A54283  13.857   9.182  18.841 -0.2037 -0.4634 -0.1807
 2702DOPG   C4A54284  13.672   8.917  18.693 -0.1193 -0.3286 -0.1787
 2702DOPG   C1B54285  13.594  10.742  19.330 -0.0440  0.2596  0.2141
 2702DOPG   D2B54286  13.805  10.710  19.677  0.0444  0.1190 -0.0008
 2702DOPG   C3B54287  13.634  10.789  20.098  0.1542  0.1335  0.1768
 2702DOPG   C4B54288  13.877  10.885  20.465  0.4640  0.1224  0.2898
 2703DOPG   GL054289   6.360  23.229  19.205 -0.1827  0.2736 -0.0623
 2703DOPG   PO454290   6.127  22.949  19.023 -0.3454  0.1941  0.1535
 2703DOPG   GL154291   6.422  22.854  18.820 -0.1756  0.0452  0.0181
 2703DOPG   GL254292   6.345  22.647  18.574  0.1350  0.1323  0.0360
 2703DOPG   C1A54293   6.865  22.803  18.811  0.1121  0.1876 -0.2920
 2703DOPG   D2A54294   7.318  22.838  18.755  0.0844 -0.0843 -0.0455
 2703DOPG   C3A54295   7.698  23.105  18.721  0.0125 -0.1868  0.0084
 2703DOPG   C4A54296   7.722  23.472  18.782  0.1495 -0.2723  0.2685
 2703DOPG   C1B54297   6.679  22.426  18.542  0.0908 -0.0833 -0.1488
 2703DOPG   D2B54298   7.065  22.351  18.771  0.2561  0.1265 -0.1637
 2703DOPG   C3B54299   7.154  22.567  19.141 -0.1087  0.1797  0.0691
 2703DOPG   C4B54300   7.109  22.571  19.676 -0.1104 -0.0986  0.2236
 2704DOPG   GL054301  12.598  14.268  20.491 -0.0927  0.1795 -0.0595
 2704DOPG   PO454302  12.861  14.071  20.819 -0.3167  0.0074 -0.0130
 2704DOPG   GL154303  12.747  14.038  21.156  0.1103 -0.0760 -0.1612
 2704DOPG   GL254304  12.536  14.296  21.218 -0.0634  0.0944 -0.2943
 2704DOPG   C1A54305  12.500  13.726  21.234 -0.4967 -0.3203  0.0806
 2704DOPG   D2A54306  12.408  13.386  21.369  0.2412 -0.1100 -0.0852
 2704DOPG   C3A54307  12.508  12.942  21.631  0.2622  0.0545  0.2040
 2704DOPG   C4A54308  12.546  12.504  21.794  0.3180 -0.3189 -0.1112
 2704DOPG   C1B54309  12.150  14.087  21.359 -0.0216 -0.0694 -0.0302
 2704DOPG   D2B54310  12.138  13.646  21.706 -0.1485 -0.1923  0.0502
 2704DOPG   C3B54311  12.503  13.429  21.852 -0.0895 -0.3797 -0.0087
 2704DOPG   C4B54312  12.848  13.422  22.241  0.3069 -0.2046 -0.1072
 2705DOPG   GL054313  16.330  16.780  20.806 -0.2394  0.3672 -0.2410
 2705DOPG   PO454314  16.169  16.968  21.058 -0.1464 -0.2449  0.0266
 2705DOPG   GL154315  15.997  16.682  21.393  0.1362  0.0315 -0.2390
 2705DOPG   GL254316  16.078  16.347  21.160 -0.0332 -0.0701  0.0373
 2705DOPG   C1A54317  15.841  16.617  21.796 -0.0787 -0.1174  0.0354
 2705DOPG   D2A54318  15.589  16.814  22.184 -0.2317 -0.1550 -0.1134
 2705DOPG   C3A54319  15.638  16.977  22.604  0.3078  0.0764 -0.2771
 2705DOPG   C4A54320  15.955  17.020  22.971  0.0249 -0.0813 -0.0358
 2705DOPG   C1B54321  16.062  16.209  21.596  0.3500 -0.1186  0.0252
 2705DOPG   D2B54322  15.952  15.982  21.877  0.3964 -0.1949  0.1734
 2705DOPG   C3B54323  16.308  16.003  22.146  0.2480  0.1228 -0.5436
 2705DOPG   C4B54324  16.667  16.310  22.236  0.1065  0.0775  0.1282
 2706DOPG   GL054325   6.279  23.442  14.713 -0.1657 -0.0016 -0.0392
 2706DOPG   PO454326   6.574  23.511  15.012  0.3301  0.0904  0.4422
 2706DOPG   GL154327   6.760  23.367  15.332 -0.1515  0.3252  0.0050
 2706DOPG   GL254328   6.804  23.087  15.440  0.1606  0.0660 -0.4038
 2706DOPG   C1A54329   7.245  23.564  15.360 -0.2072 -0.2349 -0.2402
 2706DOPG   D2A54330   7.606  23.839  15.299 -0.0406 -0.2147  0.2237
 2706DOPG   C3A54331   8.115  23.807  15.071  0.0418 -0.4433 -0.1922
 2706DOPG   C4A54332   8.271  23.275  15.107  0.1163  0.1981  0.1956
 2706DOPG   C1B54333   6.692  22.897  14.997 -0.1689  0.3787  0.2216
 2706DOPG   D2B54334   6.554  22.512  14.890 -0.2661  0.2584  0.1204
 2706DOPG   C3B54335   6.778  22.345  14.497  0.3502 -0.2372 -0.3400
 2706DOPG   C4B54336   6.586  22.159  14.212 -0.1891  0.0938  0.0242
 2707DOPG   GL054337  12.361  14.614  20.090 -0.2880  0.2440 -0.1102
 2707DOPG   PO454338  12.455  14.718  20.538  0.0877 -0.0156  0.2418
 2707DOPG   GL154339  12.220  14.499  20.873  0.1018  0.4549  0.2315
 2707DOPG   GL254340  12.269  14.073  20.869  0.0358  0.1231 -0.0752
 2707DOPG   C1A54341  12.140  14.630  21.304  0.0347 -0.2648  0.0210
 2707DOPG   D2A54342  11.884  14.389  21.663 -0.2784 -0.1267 -0.0566
 2707DOPG   C3A54343  11.661  14.028  21.458  0.0079  0.0846  0.0308
 2707DOPG   C4A54344  11.571  13.619  21.521 -0.0098 -0.2199 -0.2233
 2707DOPG   C1B54345  11.883  13.837  20.956 -0.3434  0.1557 -0.1844
 2707DOPG   D2B54346  11.471  13.621  20.996  0.1676 -0.1000  0.0733
 2707DOPG   C3B54347  11.433  13.212  21.138 -0.0611 -0.0604  0.2532
 2707DOPG   C4B54348  11.402  12.778  20.945 -0.5427  0.1222 -0.1503
 2708DOPG   GL054349  18.126  13.407  18.025 -0.1942  0.1939 -0.2832
 2708DOPG   PO454350  18.307  13.168  17.775  0.2758  0.1815 -0.0347
 2708DOPG   GL154351  18.382  12.798  17.918 -0.0790  0.0892  0.0175
 2708DOPG   GL254352  18.126  12.536  18.101  0.2960 -0.2185  0.1353
 2708DOPG   C1A54353  18.807  12.539  17.798 -0.1669 -0.0298 -0.2238
 2708DOPG   D2A54354  18.936  12.142  17.680 -0.1374 -0.1489 -0.1104
 2708DOPG   C3A54355  19.348  12.005  17.759 -0.2371 -0.3807  0.1492
 2708DOPG   C4A54356  19.668  12.011  18.111  0.0527 -0.2148  0.0312
 2708DOPG   C1B54357  18.472  12.564  18.293 -0.0322 -0.0912  0.0372
 2708DOPG   D2B54358  18.912  12.568  18.265  0.4233 -0.0896  0.1068
 2708DOPG   C3B54359  19.220  12.838  18.364  0.3732  0.0785 -0.0187
 2708DOPG   C4B54360  19.459  13.075  18.647  0.0141 -0.1682 -0.2310
 2709DOPG   GL054361  12.306  10.907  18.716  0.0411 -0.0364 -0.0570
 2709DOPG   PO454362  12.097  11.212  18.523 -0.0322 -0.3167 -0.0638
 2709DOPG   GL154363  12.416  11.341  18.887  0.1624 -0.2340  0.0446
 2709DOPG   GL254364  12.272  11.284  19.201  0.2002  0.0337  0.2146
 2709DOPG   C1A54365  12.540  11.726  19.177 -0.1803  0.2277  0.1359
 2709DOPG   D2A54366  12.783  12.180  19.281 -0.1312  0.0244  0.3705
 2709DOPG   C3A54367  12.391  12.509  19.140 -0.0108  0.0498  0.1512
 2709DOPG   C4A54368  12.063  12.601  19.061 -0.1324 -0.1879 -0.1784
 2709DOPG   C1B54369  12.314  11.366  19.504  0.0509  0.1389  0.1978
 2709DOPG   D2B54370  12.324  11.663  19.752 -0.2261 -0.1143  0.1755
 2709DOPG   C3B54371  12.748  11.869  19.712 -0.0137 -0.0858  0.0298
 2709DOPG   C4B54372  12.889  12.243  19.792  0.1920  0.0780  0.0218
 2710DOPG   GL054373   6.464  23.851  20.838  0.3425 -0.1143  0.3412
 2710DOPG   PO454374   6.898  23.819  21.082 -0.4497  0.0208 -0.1360
 2710DOPG   GL154375   6.850  23.424  21.363 -0.0848  0.0489  0.0588
 2710DOPG   GL254376   6.531  23.498  21.510  0.3123  0.0939 -0.0155
 2710DOPG   C1A54377   6.894  23.031  21.620  0.2119  0.1387 -0.2565
 2710DOPG   D2A54378   7.227  22.849  21.792 -0.1888  0.2214  0.2239
 2710DOPG   C3A54379   7.451  22.786  22.179  0.0086  0.1090 -0.2044
 2710DOPG   C4A54380   7.682  22.355  22.324  0.2518  0.1277 -0.3197
 2710DOPG   C1B54381   6.393  23.013  21.374 -0.2726  0.3214  0.0443
 2710DOPG   D2B54382   6.519  22.780  20.918 -0.0559 -0.0234 -0.0569
 2710DOPG   C3B54383   6.859  22.508  21.082  0.3001 -0.1447 -0.0828
 2710DOPG   C4B54384   7.166  22.287  21.247 -0.0098  0.0022 -0.2475
 2711DOPG   GL054385  18.099  20.046  18.471 -0.0288  0.0902  0.1535
 2711DOPG   PO454386  18.113  20.034  18.833  0.3208  0.0039 -0.2702
 2711DOPG   GL154387  18.236  20.052  19.249 -0.1736 -0.0295  0.0654
 2711DOPG   GL254388  18.422  19.817  19.208  0.0077  0.0235  0.1133
 2711DOPG   C1A54389  18.367  20.319  19.624 -0.0376  0.4806 -0.2937
 2711DOPG   D2A54390  18.569  20.732  19.657 -0.0918 -0.2420 -0.1324
 2711DOPG   C3A54391  18.639  21.095  19.868 -0.0914  0.0865 -0.1582
 2711DOPG   C4A54392  18.921  21.388  19.753  0.0076 -0.1149 -0.1555
 2711DOPG   C1B54393  18.642  19.811  19.719 -0.1533 -0.1360 -0.0680
 2711DOPG   D2B54394  18.945  20.139  19.971  0.1305  0.0567 -0.3457
 2711DOPG   C3B54395  18.864  20.587  20.062  0.1518 -0.0720  0.0002
 2711DOPG   C4B54396  19.259  20.937  19.961 -0.0458  0.0577 -0.0897
 2712DOPG   GL054397  14.611  21.469  18.137 -0.0415 -0.2594 -0.1383
 2712DOPG   PO454398  14.863  21.004  18.375 -0.2883 -0.2292  0.2646
 2712DOPG   GL154399  15.193  21.080  18.780  0.3038 -0.1333 -0.1177
 2712DOPG   GL254400  15.078  21.026  19.173  0.0763 -0.1198  0.4257
 2712DOPG   C1A54401  15.571  21.188  18.911 -0.0808  0.3254  0.0089
 2712DOPG   D2A54402  15.612  21.649  18.959 -0.0283 -0.1105  0.0454
 2712DOPG   C3A54403  15.266  21.920  19.179  0.0315 -0.1106  0.3545
 2712DOPG   C4A54404  14.796  21.966  19.159 -0.0902 -0.0832 -0.1210
 2712DOPG   C1B54405  14.933  21.489  18.951 -0.1067 -0.1073 -0.0243
 2712DOPG   D2B54406  14.746  21.622  18.642  0.0109 -0.1844 -0.1179
 2712DOPG   C3B54407  14.539  22.062  18.632 -0.0764 -0.2055 -0.0343
 2712DOPG   C4B54408  14.229  22.238  18.531  0.0126  0.1916  0.2215
 2713DOPG   GL054409   8.215  19.521  17.722  0.2273 -0.1486 -0.0910
 2713DOPG   PO454410   8.381  19.638  18.186  0.0572 -0.0228  0.0195
 2713DOPG   GL154411   8.115  19.446  18.471  0.3000  0.2735  0.0922
 2713DOPG   GL254412   7.680  19.431  18.447  0.1100  0.1343 -0.1124
 2713DOPG   C1A54413   7.936  19.460  18.917  0.1243 -0.1420 -0.1323
 2713DOPG   D2A54414   8.295  19.283  19.177 -0.3628  0.0519 -0.0962
 2713DOPG   C3A54415   8.319  18.961  19.353 -0.1777  0.0958 -0.1063
 2713DOPG   C4A54416   8.045  18.710  19.547 -0.2131 -0.2721  0.0754
 2713DOPG   C1B54417   7.489  19.291  18.741  0.1584  0.0887  0.3265
 2713DOPG   D2B54418   7.426  19.163  19.135  0.1155  0.1326  0.1650
 2713DOPG   C3B54419   7.545  19.492  19.360 -0.1079 -0.0521  0.0584
 2713DOPG   C4B54420   7.578  19.794  19.753 -0.0988  0.2496  0.2058
 2714DOPG   GL054421  22.555  16.664  18.648 -0.2936 -0.1771  0.1663
 2714DOPG   PO454422  22.737  16.431  19.018 -0.3600 -0.1394 -0.0465
 2714DOPG   GL154423  23.048  16.225  19.275  0.0675  0.1012  0.0185
 2714DOPG   GL254424  23.034  15.812  19.356 -0.1683 -0.1724 -0.0240
 2714DOPG   C1A54425  23.323  16.213  19.596 -0.1090  0.1053  0.0674
 2714DOPG   D2A54426  23.587  15.837  19.767 -0.1129 -0.3306  0.1025
 2714DOPG   C3A54427  23.982  15.876  19.543 -0.0052  0.1426  0.3067
 2714DOPG   C4A54428  24.319  15.945  19.386  0.1673 -0.1198 -0.1065
 2714DOPG   C1B54429  23.126  15.625  19.768  0.1477 -0.5683 -0.0755
 2714DOPG   D2B54430  23.388  15.274  19.838  0.1711  0.0573 -0.1481
 2714DOPG   C3B54431  23.158  14.951  19.649 -0.3112 -0.2049 -0.1606
 2714DOPG   C4B54432  23.315  14.606  19.527  0.1974  0.2132 -0.0372
 2715DOPG   GL054433  10.317  17.296  18.728  0.2773  0.0608 -0.4703
 2715DOPG   PO454434  10.016  17.038  18.884 -0.1326 -0.3037  0.4273
 2715DOPG   GL154435  10.136  16.913  19.256 -0.0629  0.2542  0.0462
 2715DOPG   GL254436  10.083  16.519  19.278 -0.1801  0.0455 -0.0387
 2715DOPG   C1A54437  10.411  16.990  19.470 -0.0090  0.0086  0.2407
 2715DOPG   D2A54438  10.560  16.798  19.842 -0.0827 -0.1771 -0.3068
 2715DOPG   C3A54439  10.322  16.991  20.071 -0.0045  0.1794 -0.0637
 2715DOPG   C4A54440   9.953  17.180  20.385  0.2242 -0.0717  0.0397
 2715DOPG   C1B54441   9.741  16.311  19.527 -0.0650  0.3598 -0.0990
 2715DOPG   D2B54442   9.390  16.237  19.764 -0.1030 -0.0379  0.1835
 2715DOPG   C3B54443   8.976  16.324  19.673 -0.0555 -0.1380  0.2089
 2715DOPG   C4B54444   8.962  16.590  19.275 -0.2558 -0.1513  0.0898
 2716DOPG   GL054445  14.081  17.883  19.963 -0.3840 -0.1592  0.0168
 2716DOPG   PO454446  14.213  17.543  20.149 -0.2298  0.3674 -0.0537
 2716DOPG   GL154447  13.995  17.909  20.498  0.0244  0.1934 -0.2417
 2716DOPG   GL254448  13.802  18.211  20.429 -0.1222  0.0897  0.2459
 2716DOPG   C1A54449  13.956  18.081  20.956  0.0305  0.1110  0.1588
 2716DOPG   D2A54450  14.193  18.432  21.213 -0.2172  0.2089 -0.2687
 2716DOPG   C3A54451  13.938  18.585  21.582 -0.1179  0.0345 -0.3145
 2716DOPG   C4A54452  14.070  19.021  21.792 -0.1387 -0.0308  0.1267
 2716DOPG   C1B54453  13.667  18.411  20.768 -0.1998  0.0797 -0.2642
 2716DOPG   D2B54454  13.420  18.728  20.763 -0.1046  0.1746  0.0753
 2716DOPG   C3B54455  12.987  18.713  20.831  0.2435  0.0498  0.0151
 2716DOPG   C4B54456  12.573  18.805  20.743 -0.1283  0.1534  0.1572
 2717DOPG   GL054457  15.001  19.143  19.127  0.2548 -0.1672 -0.0244
 2717DOPG   PO454458  14.835  19.400  19.483 -0.1291  0.0947  0.1960
 2717DOPG   GL154459  15.078  19.656  19.792 -0.0663  0.1234  0.1627
 2717DOPG   GL254460  15.369  19.894  19.766 -0.0060  0.1893  0.0379
 2717DOPG   C1A54461  14.935  19.927  20.162  0.2105  0.2366  0.2891
 2717DOPG   D2A54462  14.577  20.116  20.409 -0.0552 -0.5105  0.0425
 2717DOPG   C3A54463  14.646  20.497  20.665 -0.0768  0.2604 -0.1494
 2717DOPG   C4A54464  14.708  20.962  20.498  0.1144 -0.4060 -0.0843
 2717DOPG   C1B54465  15.370  20.236  20.089 -0.0983 -0.0813 -0.0066
 2717DOPG   D2B54466  15.381  20.624  20.231 -0.1152  0.1503 -0.1606
 2717DOPG   C3B54467  15.682  20.799  20.362  0.0263 -0.4534  0.1314
 2717DOPG   C4B54468  16.087  20.765  20.561 -0.2340 -0.1563  0.1520
 2718DOPG   GL054469   9.526  19.988  18.075  0.0501 -0.1621  0.2328
 2718DOPG   PO454470   9.775  19.709  18.185  0.3418 -0.1892  0.1087
 2718DOPG   GL154471   9.844  19.654  18.608 -0.1236  0.2841  0.0117
 2718DOPG   GL254472   9.765  19.617  18.848  0.1955 -0.2605  0.1589
 2718DOPG   C1A54473  10.285  19.823  18.952 -0.1061  0.0963 -0.1526
 2718DOPG   D2A54474  10.531  19.599  19.304  0.0097  0.4188  0.0501
 2718DOPG   C3A54475  10.816  19.363  19.398 -0.0251  0.0873 -0.3992
 2718DOPG   C4A54476  10.915  19.062  19.560  0.0401  0.1240  0.0171
 2718DOPG   C1B54477   9.649  19.566  19.281  0.0492  0.3565  0.2660
 2718DOPG   D2B54478   9.653  19.763  19.678  0.0664 -0.0379  0.1817
 2718DOPG   C3B54479   9.215  19.859  19.840  0.1995 -0.0888 -0.0578
 2718DOPG   C4B54480   8.907  20.170  19.712 -0.4326 -0.2839 -0.3978
 2719DOPG   GL054481  14.448  17.068  20.275 -0.0409  0.2536  0.0128
 2719DOPG   PO454482  14.773  16.908  20.539 -0.0799  0.1377 -0.0845
 2719DOPG   GL154483  14.880  17.057  20.930 -0.1610 -0.1212 -0.0193
 2719DOPG   GL254484  14.587  17.177  21.022 -0.2638 -0.1248 -0.2276
 2719DOPG   C1A54485  14.766  16.817  21.324 -0.2665  0.2228 -0.1396
 2719DOPG   D2A54486  14.731  16.539  21.696  0.0904  0.0106 -0.0160
 2719DOPG   C3A54487  14.984  16.220  21.863 -0.2049  0.3806  0.1581
 2719DOPG   C4A54488  15.086  16.004  22.229 -0.0873 -0.0404 -0.2388
 2719DOPG   C1B54489  14.560  17.463  21.306 -0.0373  0.0796 -0.2309
 2719DOPG   D2B54490  14.427  17.441  21.674  0.0948 -0.0288 -0.1778
 2719DOPG   C3B54491  14.000  17.178  21.810  0.1422 -0.2381 -0.2564
 2719DOPG   C4B54492  13.816  16.749  22.067  0.0965  0.1627  0.4376
 2720DOPG   GL054493  23.088  20.963  18.395  0.0915 -0.0274  0.1340
 2720DOPG   PO454494  23.287  20.621  18.302 -0.0081  0.0227  0.1302
 2720DOPG   GL154495  23.596  20.723  17.922 -0.0764 -0.0643  0.1639
 2720DOPG   GL254496  23.391  20.973  17.945 -0.2017  0.1322  0.0583
 2720DOPG   C1A54497  23.541  20.899  17.514 -0.1416 -0.0733  0.2909
 2720DOPG   D2A54498  23.872  20.892  17.256  0.0370 -0.1759  0.0241
 2720DOPG   C3A54499  24.254  21.070  17.268  0.1059  0.1361 -0.0788
 2720DOPG   C4A54500  24.575  21.305  17.425 -0.0399  0.1028  0.1298
 2720DOPG   C1B54501  23.322  21.411  17.762 -0.2669  0.0398  0.0927
 2720DOPG   D2B54502  23.231  21.608  17.325  0.0548  0.0806  0.0691
 2720DOPG   C3B54503  23.448  21.649  17.015 -0.0644 -0.0035  0.0221
 2720DOPG   C4B54504  23.460  21.963  16.676 -0.1777  0.0381  0.1542
 2721DOPG   GL054505  24.080  18.978  18.794  0.0075 -0.0409 -0.2745
 2721DOPG   PO454506  24.184  19.420  18.965 -0.1799  0.1300  0.0526
 2721DOPG   GL154507  24.132  19.189  19.311 -0.2383  0.1127  0.1039
 2721DOPG   GL254508  24.148  18.895  19.287 -0.1652 -0.1084 -0.1485
 2721DOPG   C1A54509  24.030  19.279  19.766 -0.2074 -0.1206 -0.0565
 2721DOPG   D2A54510  24.058  19.485  20.190 -0.1826 -0.0876  0.2141
 2721DOPG   C3A54511  24.250  19.378  20.523 -0.1383 -0.0308 -0.1681
 2721DOPG   C4A54512  24.418  19.403  20.937  0.2828 -0.1103 -0.1056
 2721DOPG   C1B54513  24.316  18.491  19.579 -0.0395  0.0178 -0.0159
 2721DOPG   D2B54514  24.505  18.423  19.834  0.1731  0.4874  0.2226
 2721DOPG   C3B54515  24.613  18.657  20.169 -0.0138  0.0593  0.0249
 2721DOPG   C4B54516  24.717  19.097  20.418 -0.1427 -0.3235  0.3368
 2722DOPG   GL054517   6.714  20.730  17.684 -0.1067 -0.1177  0.0084
 2722DOPG   PO454518   6.594  20.357  17.722  0.1529  0.2022 -0.0433
 2722DOPG   GL154519   6.491  20.171  18.027 -0.0668  0.0949 -0.1381
 2722DOPG   GL254520   6.202  20.283  18.279  0.0656 -0.0763  0.2000
 2722DOPG   C1A54521   6.602  19.753  18.205 -0.0912  0.2583 -0.0984
 2722DOPG   D2A54522   6.787  19.444  18.467 -0.2722  0.3884  0.0431
 2722DOPG   C3A54523   6.389  19.131  18.474 -0.0930 -0.1851 -0.0928
 2722DOPG   C4A54524   5.975  19.104  18.666 -0.0237 -0.0835  0.0936
 2722DOPG   C1B54525   6.434  20.075  18.510 -0.1020  0.0166  0.2934
 2722DOPG   D2B54526   6.344  20.021  18.974 -0.1838  0.2710 -0.0928
 2722DOPG   C3B54527   6.687  20.222  19.241  0.3541  0.1400  0.0781
 2722DOPG   C4B54528   7.105  20.392  19.310  0.1509  0.0861 -0.1948
 2723DOPG   GL054529  10.562  15.676  18.577 -0.2477 -0.1167 -0.3115
 2723DOPG   PO454530  10.936  16.066  18.470  0.0735  0.1308  0.0301
 2723DOPG   GL154531  11.154  16.359  18.267  0.2398  0.2632  0.0582
 2723DOPG   GL254532  11.011  16.618  18.036 -0.0955  0.0448  0.0464
 2723DOPG   C1A54533  11.457  16.484  17.912 -0.2079 -0.2603 -0.1047
 2723DOPG   D2A54534  11.705  16.743  17.644  0.2963 -0.0391 -0.4185
 2723DOPG   C3A54535  12.165  16.607  17.790 -0.0578  0.3140 -0.0951
 2723DOPG   C4A54536  12.533  16.455  17.692 -0.1445  0.1968  0.2057
 2723DOPG   C1B54537  11.197  16.817  18.370 -0.0042 -0.0096  0.1795
 2723DOPG   D2B54538  11.583  16.956  18.499  0.0525  0.1969 -0.0838
 2723DOPG   C3B54539  11.708  17.321  18.698 -0.0866  0.2267  0.0861
 2723DOPG   C4B54540  11.978  17.565  18.757 -0.1673 -0.2015  0.1175
 2724DOPG   GL054541  13.750  14.223  20.496  0.0171 -0.1221 -0.0932
 2724DOPG   PO454542  13.408  14.067  20.748 -0.0455 -0.1338  0.0024
 2724DOPG   GL154543  13.696  13.939  21.032 -0.0670  0.1345 -0.0919
 2724DOPG   GL254544  13.712  13.650  20.960 -0.0920  0.0224 -0.1639
 2724DOPG   C1A54545  13.893  13.842  21.488  0.1515  0.0720  0.0058
 2724DOPG   D2A54546  13.822  13.460  21.831  0.1506  0.2360 -0.0173
 2724DOPG   C3A54547  13.622  13.584  22.195 -0.1523  0.0233 -0.2750
 2724DOPG   C4A54548  13.259  13.260  22.348 -0.1299 -0.2257  0.2468
 2724DOPG   C1B54549  13.465  13.591  21.419 -0.0310  0.2332  0.2257
 2724DOPG   D2B54550  13.171  13.740  21.797 -0.0500  0.0659  0.0662
 2724DOPG   C3B54551  12.828  13.717  21.655 -0.0269  0.2924  0.1028
 2724DOPG   C4B54552  12.980  13.397  21.355  0.1178 -0.1769 -0.1923
 2725DOPG   GL054553  18.825  14.447  19.464 -0.1464  0.1628  0.2847
 2725DOPG   PO454554  18.447  14.613  19.457  0.5509 -0.2559  0.1568
 2725DOPG   GL154555  18.023  14.425  19.444  0.0766 -0.3290 -0.0741
 2725DOPG   GL254556  17.878  14.361  19.770 -0.0065  0.0966  0.1541
 2725DOPG   C1A54557  17.473  14.365  19.434 -0.0985  0.2706 -0.3094
 2725DOPG   D2A54558  17.212  14.118  19.609 -0.3348 -0.0538  0.1320
 2725DOPG   C3A54559  16.931  13.992  19.871 -0.1086  0.0847 -0.0474
 2725DOPG   C4A54560  16.768  14.012  20.276  0.0469  0.1754 -0.1196
 2725DOPG   C1B54561  17.585  14.110  19.925 -0.1008  0.3340 -0.1953
 2725DOPG   D2B54562  17.232  14.048  20.208 -0.2769 -0.3986 -0.0303
 2725DOPG   C3B54563  17.268  13.768  20.596  0.1128  0.0298  0.0674
 2725DOPG   C4B54564  17.399  13.688  21.035  0.1047  0.1106  0.0187
 2726DOPG   GL054565  16.801  12.669  17.514  0.2159  0.1155 -0.0433
 2726DOPG   PO454566  16.530  12.882  17.327  0.2643 -0.0887 -0.1588
 2726DOPG   GL154567  16.347  13.105  17.675 -0.2242 -0.2196 -0.2096
 2726DOPG   GL254568  16.118  12.947  17.877 -0.0280 -0.3654 -0.0386
 2726DOPG   C1A54569  16.074  13.514  17.696 -0.3629 -0.2481  0.0544
 2726DOPG   D2A54570  15.969  13.859  17.844 -0.0164 -0.3278  0.2022
 2726DOPG   C3A54571  15.595  14.010  17.984 -0.2477  0.2528  0.1979
 2726DOPG   C4A54572  15.231  14.130  18.135  0.0615 -0.1607  0.0506
 2726DOPG   C1B54573  15.866  12.727  17.983 -0.0702  0.2909 -0.1572
 2726DOPG   D2B54574  15.579  12.882  18.250  0.1105 -0.0124  0.0297
 2726DOPG   C3B54575  15.683  13.206  18.504 -0.0191 -0.0339 -0.2988
 2726DOPG   C4B54576  15.940  13.483  18.705  0.0056  0.0558 -0.1644
 2727DOPG   GL054577  16.139  12.573  17.571  0.1970  0.0848 -0.0021
 2727DOPG   PO454578  16.524  12.284  17.603 -0.0636  0.0981 -0.0362
 2727DOPG   GL154579  16.735  11.903  17.665  0.1261  0.1960 -0.1565
 2727DOPG   GL254580  17.068  11.802  17.764  0.1549  0.4198  0.1243
 2727DOPG   C1A54581  16.664  11.566  17.905  0.4182 -0.0851  0.3028
 2727DOPG   D2A54582  16.741  11.327  18.349 -0.1818 -0.3417 -0.0672
 2727DOPG   C3A54583  16.580  10.928  18.542 -0.4376 -0.1439  0.0370
 2727DOPG   C4A54584  16.277  10.819  18.812  0.1672 -0.2302 -0.5154
 2727DOPG   C1B54585  17.099  11.285  18.030  0.1486 -0.0331 -0.1084
 2727DOPG   D2B54586  17.096  10.907  17.875  0.0482  0.0764  0.4229
 2727DOPG   C3B54587  16.913  10.597  18.129  0.1767 -0.2438  0.2735
 2727DOPG   C4B54588  16.820  10.271  18.310  0.2115 -0.2409 -0.2565
 2728DOPG   GL054589  15.370  14.727  19.713 -0.0406 -0.0187 -0.1022
 2728DOPG   PO454590  15.171  15.159  19.474  0.3314 -0.1751  0.2670
 2728DOPG   GL154591  15.339  14.779  19.213  0.0973 -0.0280  0.0397
 2728DOPG   GL254592  15.095  14.735  18.921  0.2521 -0.2855  0.1273
 2728DOPG   C1A54593  15.546  14.415  19.319  0.1977 -0.0207  0.1937
 2728DOPG   D2A54594  15.831  14.098  19.491 -0.0461 -0.1487  0.1501
 2728DOPG   C3A54595  16.000  14.235  19.845  0.1903 -0.0989 -0.2251
 2728DOPG   C4A54596  16.469  14.307  20.006 -0.1625  0.1885 -0.1242
 2728DOPG   C1B54597  15.438  14.566  18.726  0.0975 -0.0877  0.3575
 2728DOPG   D2B54598  15.846  14.561  18.538  0.0828 -0.1167 -0.2343
 2728DOPG   C3B54599  16.160  14.425  18.593  0.0885 -0.2812  0.0519
 2728DOPG   C4B54600  16.402  14.054  18.665  0.0648 -0.2198 -0.3961
 2729DOPG   GL054601  14.292  14.097  20.395  0.0008  0.0672 -0.1116
 2729DOPG   PO454602  13.988  13.913  20.151  0.0372 -0.1161  0.1191
 2729DOPG   GL154603  14.274  13.777  20.010  0.1983  0.0011  0.4465
 2729DOPG   GL254604  14.543  13.834  20.087  0.4938  0.1552  0.3912
 2729DOPG   C1A54605  14.520  13.562  19.709  0.3227 -0.1640  0.1895
 2729DOPG   D2A54606  14.696  13.535  19.308 -0.1094  0.1831 -0.1974
 2729DOPG   C3A54607  15.112  13.539  19.236 -0.0929 -0.1586 -0.2433
 2729DOPG   C4A54608  15.502  13.806  19.096 -0.1886  0.0755 -0.0046
 2729DOPG   C1B54609  14.556  13.693  20.496 -0.0626  0.0173  0.1141
 2729DOPG   D2B54610  14.704  13.448  20.805 -0.1329 -0.0181  0.0496
 2729DOPG   C3B54611  14.879  13.039  20.589 -0.3272 -0.0028 -0.0340
 2729DOPG   C4B54612  15.158  12.599  20.683  0.1442 -0.0614  0.0213
 2730DOPG   GL054613  14.814  14.720  20.585  0.0187 -0.1141  0.4999
 2730DOPG   PO454614  14.838  14.304  20.454 -0.1370  0.3331  0.0362
 2730DOPG   GL154615  15.112  14.116  20.112 -0.1021 -0.1725  0.2054
 2730DOPG   GL254616  15.297  14.270  19.937  0.3671 -0.1404 -0.2220
 2730DOPG   C1A54617  14.952  13.750  19.859  0.2707 -0.0176 -0.0722
 2730DOPG   D2A54618  15.002  13.360  19.673 -0.0585  0.0784  0.1894
 2730DOPG   C3A54619  14.929  12.904  19.888  0.1852  0.1019  0.3457
 2730DOPG   C4A54620  15.070  12.542  19.810 -0.1509  0.0473 -0.0302
 2730DOPG   C1B54621  15.569  13.895  20.063  0.1839 -0.2371  0.1554
 2730DOPG   D2B54622  15.718  13.575  20.381 -0.1327 -0.1526  0.1503
 2730DOPG   C3B54623  15.632  13.226  20.537  0.0159 -0.0815  0.0460
 2730DOPG   C4B54624  15.436  12.871  20.369 -0.0275 -0.0067 -0.2534
 2731DOPG   GL054625  22.336  18.947  18.157 -0.3014 -0.0243 -0.0247
 2731DOPG   PO454626  22.206  18.502  18.044  0.0627  0.0659  0.0693
 2731DOPG   GL154627  22.189  18.553  18.455 -0.1426 -0.1343  0.1163
 2731DOPG   GL254628  22.378  18.491  18.544  0.0988 -0.1627  0.2179
 2731DOPG   C1A54629  21.776  18.566  18.749 -0.0492  0.0700 -0.2503
 2731DOPG   D2A54630  21.739  18.338  19.067 -0.0312 -0.0257 -0.0163
 2731DOPG   C3A54631  21.951  17.905  19.146 -0.1018  0.2423  0.0846
 2731DOPG   C4A54632  21.937  17.452  19.207  0.1711 -0.4326  0.3760
 2731DOPG   C1B54633  22.751  18.676  18.767  0.2069 -0.1833 -0.3454
 2731DOPG   D2B54634  23.026  18.827  19.141  0.1926 -0.1042  0.3062
 2731DOPG   C3B54635  23.135  19.308  19.218 -0.0872  0.0558  0.0746
 2731DOPG   C4B54636  22.924  19.652  19.162 -0.0225 -0.0507 -0.0559
 2732DOPG   GL054637  15.245  16.578  19.305 -0.3221 -0.3434  0.2487
 2732DOPG   PO454638  15.537  16.398  19.031 -0.2900  0.0577  0.0903
 2732DOPG   GL154639  15.409  16.343  18.578  0.1765  0.2177 -0.1452
 2732DOPG   GL254640  15.544  16.155  18.562  0.0024  0.0864  0.1277
 2732DOPG   C1A54641  15.113  16.234  18.203  0.3642  0.0202  0.2972
 2732DOPG   D2A54642  14.859  15.988  17.913 -0.3061 -0.1855 -0.0381
 2732DOPG   C3A54643  14.935  15.676  17.638 -0.0386 -0.0164 -0.0485
 2732DOPG   C4A54644  15.043  15.712  17.207  0.0676  0.3471 -0.1311
 2732DOPG   C1B54645  15.537  15.950  18.103  0.3057 -0.0506 -0.3364
 2732DOPG   D2B54646  15.354  15.923  17.688 -0.2706  0.1066  0.2555
 2732DOPG   C3B54647  15.626  16.264  17.484  0.2323 -0.3372 -0.0883
 2732DOPG   C4B54648  15.968  16.524  17.371 -0.0631  0.3663  0.3034
 2733DOPG   GL054649  12.830  18.221  19.245 -0.0218  0.1874  0.0550
 2733DOPG   PO454650  12.870  18.105  19.571 -0.0152 -0.1210 -0.1014
 2733DOPG   GL154651  12.468  18.219  19.727  0.1272  0.2161 -0.2753
 2733DOPG   GL254652  12.355  18.435  19.896  0.0128 -0.1430  0.0541
 2733DOPG   C1A54653  11.963  18.207  19.662 -0.0605 -0.0254 -0.0336
 2733DOPG   D2A54654  11.700  17.990  19.450  0.1511  0.0417  0.3334
 2733DOPG   C3A54655  11.446  17.605  19.603  0.0553 -0.1323  0.0561
 2733DOPG   C4A54656  11.417  17.224  19.808  0.0570  0.1293  0.3904
 2733DOPG   C1B54657  11.922  18.652  19.815 -0.0776 -0.1379 -0.0685
 2733DOPG   D2B54658  11.539  18.534  20.070  0.1589  0.0094 -0.1834
 2733DOPG   C3B54659  11.304  18.406  19.864 -0.3564  0.1544 -0.0188
 2733DOPG   C4B54660  10.822  18.387  19.685  0.1752  0.0403 -0.1800
 2734DOPG   GL054661  10.575  16.612  18.433 -0.4021  0.0690  0.0623
 2734DOPG   PO454662  10.161  16.504  18.750  0.2348  0.2259 -0.0666
 2734DOPG   GL154663  10.469  16.793  18.897  0.0253  0.2539  0.0936
 2734DOPG   GL254664  10.581  16.630  19.129 -0.0990  0.0954  0.0697
 2734DOPG   C1A54665  10.770  17.116  19.046  0.1531 -0.0305 -0.4703
 2734DOPG   D2A54666  10.995  17.230  19.387 -0.1727 -0.3673 -0.2299
 2734DOPG   C3A54667  10.895  17.281  19.865 -0.0495 -0.2655  0.2178
 2734DOPG   C4A54668  10.698  17.264  20.304 -0.0956  0.5105  0.0388
 2734DOPG   C1B54669  10.876  16.724  19.484 -0.0588 -0.1020 -0.1533
 2734DOPG   D2B54670  11.093  16.783  19.887 -0.1411 -0.3094 -0.1964
 2734DOPG   C3B54671  10.903  16.762  20.219 -0.0227 -0.1630  0.0036
 2734DOPG   C4B54672  10.850  16.960  20.625 -0.1933 -0.0233 -0.0234
 2735DOPG   GL054673  15.761  12.429  16.511  0.1441  0.3862 -0.2211
 2735DOPG   PO454674  15.483  12.640  16.739 -0.2668  0.1218  0.0474
 2735DOPG   GL154675  15.364  12.933  17.152  0.0923 -0.3583 -0.0020
 2735DOPG   GL254676  15.382  13.306  17.267 -0.0057 -0.0223 -0.0058
 2735DOPG   C1A54677  15.120  13.040  17.540 -0.1790  0.0091 -0.2264
 2735DOPG   D2A54678  15.234  13.139  17.947  0.0997  0.3270  0.0149
 2735DOPG   C3A54679  15.052  13.355  18.246 -0.3203  0.0433 -0.2233
 2735DOPG   C4A54680  14.832  13.738  18.301 -0.1597 -0.1086 -0.2592
 2735DOPG   C1B54681  15.172  13.538  17.657  0.1739 -0.0037  0.0119
 2735DOPG   D2B54682  14.979  13.690  17.855 -0.0138 -0.1811 -0.0580
 2735DOPG   C3B54683  14.714  14.092  17.948  0.4235  0.0120 -0.1144
 2735DOPG   C4B54684  14.398  14.403  17.896  0.0390 -0.2339  0.0731
 2736DOPG   GL054685  11.720  15.656  18.838  0.2319 -0.1735  0.1326
 2736DOPG   PO454686  12.229  15.546  18.836 -0.0708 -0.1225  0.0868
 2736DOPG   GL154687  11.986  15.271  18.651  0.0903 -0.0556 -0.1756
 2736DOPG   GL254688  12.112  14.922  18.710 -0.2931 -0.1778 -0.0204
 2736DOPG   C1A54689  12.044  15.066  18.211 -0.0777 -0.0052  0.0507
 2736DOPG   D2A54690  12.382  14.956  17.959 -0.3058  0.1733  0.4378
 2736DOPG   C3A54691  12.264  15.077  17.513  0.0695 -0.1357  0.1013
 2736DOPG   C4A54692  12.316  15.422  17.349  0.0478 -0.2789 -0.0838
 2736DOPG   C1B54693  12.448  14.998  18.477  0.0819 -0.2237  0.1625
 2736DOPG   D2B54694  12.709  14.669  18.258  0.2047 -0.0893  0.0049
 2736DOPG   C3B54695  12.895  14.312  18.091  0.0181 -0.1267 -0.0608
 2736DOPG   C4B54696  13.023  13.841  18.107  0.0111  0.2173  0.0648
 2737DOPG   GL054697  21.008  20.497  17.733 -0.1586 -0.3381  0.2743
 2737DOPG   PO454698  21.278  20.796  17.822  0.1943  0.1476  0.5255
 2737DOPG   GL154699  21.575  21.107  17.880 -0.2491 -0.1988 -0.1328
 2737DOPG   GL254700  21.629  21.249  17.626  0.1171  0.2232 -0.0521
 2737DOPG   C1A54701  21.908  21.465  17.952 -0.3361 -0.1486 -0.1007
 2737DOPG   D2A54702  22.079  21.635  18.235 -0.2280 -0.2358 -0.0785
 2737DOPG   C3A54703  22.153  22.000  18.205 -0.4665 -0.0352 -0.1364
 2737DOPG   C4A54704  21.779  22.302  18.036  0.3242 -0.4175 -0.0351
 2737DOPG   C1B54705  21.989  21.513  17.395 -0.0372 -0.2751 -0.2548
 2737DOPG   D2B54706  21.979  21.850  17.069  0.1807 -0.3324  0.2998
 2737DOPG   C3B54707  22.305  22.065  17.220 -0.0573  0.0142 -0.1997
 2737DOPG   C4B54708  22.766  21.933  17.410 -0.3169  0.0631  0.0401
 2738DOPG   GL054709  11.220  21.451  17.451 -0.2185 -0.1745 -0.1055
 2738DOPG   PO454710  11.038  21.813  17.651 -0.0475 -0.1363 -0.1978
 2738DOPG   GL154711  11.098  22.201  17.667  0.0708  0.0638 -0.2238
 2738DOPG   GL254712  11.414  22.207  17.741  0.1732  0.3662  0.0306
 2738DOPG   C1A54713  11.046  22.601  17.745  0.0748  0.4563  0.1098
 2738DOPG   D2A54714  10.923  22.895  17.538  0.1966  0.2466  0.2795
 2738DOPG   C3A54715  10.534  23.174  17.431 -0.1344  0.0824  0.1410
 2738DOPG   C4A54716  10.332  23.640  17.562 -0.2406 -0.0262 -0.4029
 2738DOPG   C1B54717  11.642  22.604  17.849  0.1245 -0.1281 -0.2389
 2738DOPG   D2B54718  12.017  22.603  17.619 -0.2334 -0.2702  0.2207
 2738DOPG   C3B54719  12.367  22.663  17.823  0.1289  0.1293 -0.1660
 2738DOPG   C4B54720  12.571  22.409  18.203  0.0572 -0.0075  0.4855
 2739DOPG   GL054721  18.604  15.995  19.705  0.3076  0.3129  0.1938
 2739DOPG   PO454722  18.429  16.404  19.512  0.2376  0.1062 -0.0524
 2739DOPG   GL154723  18.633  16.764  19.331 -0.3207 -0.0792 -0.1896
 2739DOPG   GL254724  18.971  16.721  19.429  0.2680 -0.2527 -0.0196
 2739DOPG   C1A54725  18.795  16.875  18.910 -0.0839  0.1181 -0.0444
 2739DOPG   D2A54726  18.780  17.017  18.562  0.1135 -0.1274  0.0180
 2739DOPG   C3A54727  19.066  17.288  18.624 -0.0449 -0.0247 -0.4060
 2739DOPG   C4A54728  19.500  17.470  18.445 -0.1461 -0.0724  0.0754
 2739DOPG   C1B54729  19.084  17.077  19.330  0.0488  0.0323 -0.1218
 2739DOPG   D2B54730  19.536  17.218  19.482 -0.1291  0.0095  0.0060
 2739DOPG   C3B54731  19.854  17.078  19.639  0.1733  0.0218 -0.0672
 2739DOPG   C4B54732  20.302  17.117  19.435 -0.0250  0.0992 -0.1812
 2740DOPG   GL054733  12.357  21.260  16.990  0.2248 -0.0140 -0.0498
 2740DOPG   PO454734  12.248  21.588  17.314  0.3460 -0.0208 -0.0708
 2740DOPG   GL154735  12.563  21.839  17.604 -0.3706  0.1905 -0.0974
 2740DOPG   GL254736  12.403  22.078  17.568  0.0748  0.1733 -0.0148
 2740DOPG   C1A54737  12.465  21.976  18.046  0.0237 -0.1125 -0.1383
 2740DOPG   D2A54738  12.480  22.010  18.481  0.0284  0.3488  0.1776
 2740DOPG   C3A54739  12.500  21.740  18.646 -0.1671  0.0217  0.2908
 2740DOPG   C4A54740  12.502  21.813  19.082  0.2780  0.1972 -0.0419
 2740DOPG   C1B54741  12.352  22.464  17.294 -0.1319  0.1248 -0.1370
 2740DOPG   D2B54742  12.517  22.910  17.393 -0.1058  0.1738  0.1134
 2740DOPG   C3B54743  12.529  23.179  17.746 -0.0538  0.3265  0.4142
 2740DOPG   C4B54744  12.907  23.403  17.827  0.2116  0.3716  0.3283
 2741DOPG   GL054745   5.024  22.890  22.317 -0.2271 -0.2428 -0.0664
 2741DOPG   PO454746   4.909  22.428  22.385 -0.0483  0.5388  0.1473
 2741DOPG   GL154747   5.340  22.526  22.093 -0.1514 -0.1487 -0.3134
 2741DOPG   GL254748   5.277  22.305  21.911 -0.0920 -0.3690  0.1250
 2741DOPG   C1A54749   5.720  22.286  22.187 -0.1763 -0.0450  0.1730
 2741DOPG   D2A54750   6.022  22.225  22.549 -0.1646 -0.3248  0.0282
 2741DOPG   C3A54751   6.377  22.159  22.459  0.1882 -0.0565  0.1772
 2741DOPG   C4A54752   6.726  22.136  22.165 -0.0655  0.0247 -0.3065
 2741DOPG   C1B54753   5.609  21.931  21.713 -0.2562  0.1086 -0.0284
 2741DOPG   D2B54754   5.832  21.871  21.356 -0.2356  0.1558 -0.0803
 2741DOPG   C3B54755   6.202  21.994  21.344  0.0575 -0.3288  0.2736
 2741DOPG   C4B54756   6.641  21.989  21.438  0.0163  0.3107 -0.2096
 2742DOPG   GL054757  17.047  12.721  18.853  0.0397 -0.0188 -0.2819
 2742DOPG   PO454758  16.832  13.133  18.975 -0.0092 -0.2663  0.1391
 2742DOPG   GL154759  16.835  12.849  19.274 -0.0080 -0.1781  0.2877
 2742DOPG   GL254760  16.720  13.034  19.550 -0.0649 -0.3319 -0.0421
 2742DOPG   C1A54761  16.986  12.686  19.734 -0.1055 -0.0668 -0.1352
 2742DOPG   D2A54762  16.810  12.562  20.033 -0.2132  0.0387 -0.2393
 2742DOPG   C3A54763  16.598  12.169  20.043  0.4979 -0.3948  0.0761
 2742DOPG   C4A54764  16.233  11.902  19.792  0.1377 -0.2845  0.1563
 2742DOPG   C1B54765  16.769  13.078  20.013 -0.1010 -0.0638  0.3409
 2742DOPG   D2B54766  16.848  12.816  20.435  0.1952 -0.1073 -0.0000
 2742DOPG   C3B54767  16.935  12.340  20.469 -0.2310  0.1293 -0.2541
 2742DOPG   C4B54768  17.166  12.139  20.233  0.1214  0.0128 -0.0770
 2743DOPG   GL054769  10.179  21.298  17.260  0.2244  0.2133 -0.3474
 2743DOPG   PO454770  10.287  21.734  17.264  0.1375 -0.0275  0.1022
 2743DOPG   GL154771  10.349  22.124  17.454 -0.0822 -0.1518 -0.1072
 2743DOPG   GL254772  10.000  22.215  17.469 -0.2040  0.2635  0.0533
 2743DOPG   C1A54773  10.540  22.590  17.617  0.2146 -0.1116 -0.5025
 2743DOPG   D2A54774  10.687  22.913  17.923 -0.0585  0.1932 -0.3475
 2743DOPG   C3A54775  10.994  23.086  17.977 -0.3096 -0.3050  0.1325
 2743DOPG   C4A54776  11.300  23.034  17.854 -0.3915  0.0074  0.0638
 2743DOPG   C1B54777   9.994  22.612  17.585 -0.0390 -0.1841 -0.1718
 2743DOPG   D2B54778  10.107  22.950  17.808  0.0118 -0.3488 -0.2903
 2743DOPG   C3B54779  10.194  23.002  18.258  0.1594  0.1877  0.1694
 2743DOPG   C4B54780  10.223  22.726  18.688  0.0026  0.2861  0.0307
 2744DOPG   GL054781  20.027  20.427  17.622  0.0965  0.0488  0.0142
 2744DOPG   PO454782  20.122  20.794  17.923 -0.1120  0.2469  0.3551
 2744DOPG   GL154783  19.937  21.092  18.003  0.2228  0.0686 -0.2535
 2744DOPG   GL254784  19.698  21.189  18.027  0.0077 -0.0553  0.1229
 2744DOPG   C1A54785  19.983  21.403  18.376 -0.1492  0.0384  0.0945
 2744DOPG   D2A54786  20.271  21.640  18.511 -0.2716 -0.2220 -0.0628
 2744DOPG   C3A54787  20.583  21.924  18.362 -0.1002  0.0419  0.1717
 2744DOPG   C4A54788  20.789  22.230  18.039  0.0711  0.0948  0.2414
 2744DOPG   C1B54789  19.569  21.031  18.462  0.2166 -0.2688 -0.0346
 2744DOPG   D2B54790  19.615  21.257  18.844 -0.0310 -0.0648 -0.0795
 2744DOPG   C3B54791  19.822  21.064  19.209 -0.1969  0.0861  0.1079
 2744DOPG   C4B54792  20.045  21.070  19.533 -0.1614  0.2328  0.0414
 2745DOPG   GL054793  11.608  10.864  18.712  0.0972 -0.2445  0.1829
 2745DOPG   PO454794  11.907  10.911  19.076  0.0685 -0.0593  0.0623
 2745DOPG   GL154795  11.902  11.091  19.475 -0.0362 -0.3090 -0.0085
 2745DOPG   GL254796  12.052  10.968  19.627 -0.3184  0.0976 -0.1335
 2745DOPG   C1A54797  11.879  11.526  19.790 -0.0017  0.5297 -0.1167
 2745DOPG   D2A54798  11.650  11.943  19.690  0.0810 -0.1377 -0.0185
 2745DOPG   C3A54799  11.658  12.393  19.951 -0.1279 -0.0765  0.3185
 2745DOPG   C4A54800  11.506  12.485  20.401  0.1556 -0.0376 -0.2076
 2745DOPG   C1B54801  12.189  11.258  20.044  0.2826  0.0184  0.2880
 2745DOPG   D2B54802  12.052  11.647  20.202  0.0274 -0.0339  0.1571
 2745DOPG   C3B54803  11.690  11.905  20.189  0.0794  0.4593 -0.1838
 2745DOPG   C4B54804  11.288  11.940  20.436  0.0636 -0.2036 -0.2258
 2746DOPG   GL054805  17.259  13.153  18.554  0.3110 -0.0150 -0.5204
 2746DOPG   PO454806  16.827  13.049  18.432  0.2547  0.0016  0.0135
 2746DOPG   GL154807  16.397  13.152  18.539  0.1565 -0.0011 -0.1139
 2746DOPG   GL254808  16.327  12.914  18.380 -0.0112 -0.4642  0.1330
 2746DOPG   C1A54809  16.063  13.058  18.909  0.0256 -0.1806 -0.0740
 2746DOPG   D2A54810  15.846  13.159  19.335 -0.0828 -0.0019 -0.1339
 2746DOPG   C3A54811  15.902  12.895  19.650  0.2809 -0.1199 -0.0025
 2746DOPG   C4A54812  15.650  12.704  19.943  0.1301  0.0715 -0.1938
 2746DOPG   C1B54813  16.049  12.702  18.494 -0.0153  0.1203  0.2559
 2746DOPG   D2B54814  15.642  12.726  18.786  0.2130  0.1202 -0.3155
 2746DOPG   C3B54815  15.212  12.741  18.943 -0.2097  0.0811  0.4292
 2746DOPG   C4B54816  14.979  12.969  19.198  0.1912  0.3043  0.1497
 2747DOPG   GL054817  21.277  18.933  17.598 -0.0701 -0.1771  0.0913
 2747DOPG   PO454818  21.307  18.745  17.973  0.2045  0.0524 -0.2249
 2747DOPG   GL154819  21.560  18.774  18.407  0.0700  0.2139 -0.1626
 2747DOPG   GL254820  21.875  18.977  18.401 -0.1147 -0.1366 -0.0312
 2747DOPG   C1A54821  21.481  18.950  18.792 -0.2577 -0.0457 -0.1926
 2747DOPG   D2A54822  21.451  18.758  19.181  0.2767  0.0244 -0.0945
 2747DOPG   C3A54823  21.834  18.822  19.388 -0.0153  0.0763  0.1948
 2747DOPG   C4A54824  21.974  18.649  19.781 -0.0512  0.2410 -0.1130
 2747DOPG   C1B54825  21.854  19.241  18.766  0.0210 -0.4660  0.3214
 2747DOPG   D2B54826  21.614  19.531  19.061 -0.0673  0.0257 -0.1041
 2747DOPG   C3B54827  21.519  19.277  19.392 -0.2434  0.1082 -0.0603
 2747DOPG   C4B54828  21.578  19.497  19.813 -0.2139  0.2961  0.0478
 2748DOPG   GL054829  23.339  19.640  18.752  0.2743 -0.1343  0.1506
 2748DOPG   PO454830  23.519  20.063  18.617  0.1635 -0.1070  0.1945
 2748DOPG   GL154831  23.403  20.029  19.103 -0.0099 -0.1352 -0.4596
 2748DOPG   GL254832  23.378  19.739  19.323  0.2144 -0.2506  0.2499
 2748DOPG   C1A54833  23.061  20.066  19.432 -0.2996  0.1993  0.0864
 2748DOPG   D2A54834  22.771  20.496  19.595  0.4240 -0.0048  0.0611
 2748DOPG   C3A54835  22.445  20.446  19.899 -0.3646 -0.2316  0.2676
 2748DOPG   C4A54836  22.138  20.397  20.016  0.3759  0.1092 -0.1359
 2748DOPG   C1B54837  23.174  19.499  19.628  0.0507  0.0377 -0.0466
 2748DOPG   D2B54838  22.971  19.664  19.940  0.3633 -0.0388  0.4931
 2748DOPG   C3B54839  22.911  20.082  19.926 -0.4638  0.2686 -0.0962
 2748DOPG   C4B54840  22.985  20.425  20.202 -0.2430 -0.0143  0.0859
 2749DOPG   GL054841  10.981  11.197  17.094  0.3419  0.0792 -0.3090
 2749DOPG   PO454842  11.317  11.376  17.318  0.0635  0.3247 -0.3887
 2749DOPG   GL154843  11.257  11.797  17.206  0.1133  0.0512 -0.0499
 2749DOPG   GL254844  10.991  11.708  17.036  0.1311 -0.0661  0.0051
 2749DOPG   C1A54845  11.303  12.159  16.879 -0.2573  0.2798 -0.0498
 2749DOPG   D2A54846  11.381  12.528  16.575  0.0572  0.2323  0.5638
 2749DOPG   C3A54847  11.729  12.645  16.303 -0.1610  0.0579  0.1791
 2749DOPG   C4A54848  11.834  12.983  16.076  0.1050 -0.1988 -0.1121
 2749DOPG   C1B54849  10.859  12.166  17.162 -0.1337  0.0169 -0.0410
 2749DOPG   D2B54850  10.566  12.598  17.156 -0.4117  0.0615  0.0027
 2749DOPG   C3B54851  10.591  13.009  16.909  0.0191  0.4616  0.1288
 2749DOPG   C4B54852  10.649  13.314  16.596 -0.2103  0.0067  0.1138
 2750DOPG   GL054853  19.048  19.759  18.340  0.2981 -0.1730  0.1434
 2750DOPG   PO454854  19.251  19.672  17.897  0.2809  0.2211  0.1403
 2750DOPG   GL154855  19.535  19.606  18.220 -0.2476 -0.2802 -0.1158
 2750DOPG   GL254856  19.578  19.757  18.529 -0.1133  0.1912 -0.1128
 2750DOPG   C1A54857  19.677  19.318  18.667 -0.0398  0.1069  0.0471
 2750DOPG   D2A54858  19.586  18.879  18.860  0.0829 -0.0746  0.2013
 2750DOPG   C3A54859  19.910  18.563  19.042 -0.1297 -0.0257 -0.3886
 2750DOPG   C4A54860  19.791  18.349  19.306  0.1039 -0.1090 -0.1652
 2750DOPG   C1B54861  19.233  19.473  18.649 -0.0634 -0.3001 -0.1463
 2750DOPG   D2B54862  19.207  19.144  18.394 -0.1249 -0.0350 -0.0777
 2750DOPG   C3B54863  19.340  18.735  18.446  0.1727 -0.0752 -0.2226
 2750DOPG   C4B54864  19.669  18.439  18.650 -0.0764 -0.2875 -0.3744
 2751DOPG   GL054865  16.780  17.155  20.095 -0.0508 -0.1502 -0.1018
 2751DOPG   PO454866  16.860  17.155  20.510  0.0651 -0.0428  0.0200
 2751DOPG   GL154867  16.813  16.956  20.864 -0.1962 -0.1002  0.3531
 2751DOPG   GL254868  16.931  16.729  20.857 -0.0348  0.4055 -0.0455
 2751DOPG   C1A54869  16.842  16.937  21.337  0.5778  0.4095  0.1544
 2751DOPG   D2A54870  17.056  16.800  21.684 -0.0166 -0.0987  0.0969
 2751DOPG   C3A54871  17.197  17.018  22.063  0.0059 -0.1110  0.0475
 2751DOPG   C4A54872  17.256  17.477  22.113  0.3199  0.3459 -0.0524
 2751DOPG   C1B54873  17.075  16.507  21.274  0.0113  0.1574  0.0665
 2751DOPG   D2B54874  17.345  16.275  21.605  0.0506 -0.0721  0.0481
 2751DOPG   C3B54875  17.221  15.988  21.838 -0.4581  0.0178  0.2237
 2751DOPG   C4B54876  16.988  15.762  21.556  0.1803 -0.0811 -0.1440
 2752DOPG   GL054877  18.085  18.273  19.791 -0.0682  0.0525  0.1532
 2752DOPG   PO454878  18.169  18.218  19.443 -0.0475 -0.2000  0.3184
 2752DOPG   GL154879  18.522  18.418  19.630  0.3148 -0.0959  0.2337
 2752DOPG   GL254880  18.587  18.754  19.617 -0.1562  0.0020 -0.1906
 2752DOPG   C1A54881  18.921  18.443  19.908  0.2288 -0.4089  0.0108
 2752DOPG   D2A54882  19.231  18.422  20.338 -0.4380 -0.0681 -0.0440
 2752DOPG   C3A54883  19.647  18.540  20.207 -0.0748 -0.3595  0.0785
 2752DOPG   C4A54884  19.845  18.446  19.825  0.0096 -0.1783  0.2035
 2752DOPG   C1B54885  19.036  18.970  19.615 -0.1847  0.1128  0.1972
 2752DOPG   D2B54886  19.484  19.167  19.728  0.0028  0.3091 -0.1730
 2752DOPG   C3B54887  19.689  19.027  20.169  0.0623  0.4073 -0.2253
 2752DOPG   C4B54888  19.753  18.851  20.535 -0.0618 -0.1274  0.0291
 2753DOPG   GL054889  10.910  22.085  16.732  0.0678  0.0397 -0.3194
 2753DOPG   PO454890  10.660  21.761  16.700 -0.1153  0.0607  0.3563
 2753DOPG   GL154891  10.453  22.073  16.495 -0.0834 -0.1994  0.0445
 2753DOPG   GL254892  10.392  22.252  16.799  0.1255 -0.3536 -0.2147
 2753DOPG   C1A54893  10.371  22.496  16.200 -0.0511  0.0265  0.1711
 2753DOPG   D2A54894  10.108  22.755  16.117 -0.0025 -0.0057 -0.0230
 2753DOPG   C3A54895   9.761  23.020  16.289 -0.3293 -0.3009  0.1858
 2753DOPG   C4A54896   9.406  23.022  16.039  0.0565  0.0206  0.0894
 2753DOPG   C1B54897  10.627  22.558  16.578  0.0168 -0.1563 -0.0386
 2753DOPG   D2B54898  10.639  23.006  16.379 -0.2976  0.1743  0.1514
 2753DOPG   C3B54899  11.102  23.251  16.274 -0.1925  0.3679 -0.3441
 2753DOPG   C4B54900  11.144  23.584  15.956  0.1479  0.1851 -0.0266
 2754DOPG   GL054901  18.550  13.302  16.813 -0.3832  0.1949 -0.2308
 2754DOPG   PO454902  18.340  13.512  17.082  0.1356 -0.2172  0.2010
 2754DOPG   GL154903  18.582  13.209  17.296  0.0557  0.2310  0.0143
 2754DOPG   GL254904  18.352  13.019  17.297  0.0203  0.0074  0.0091
 2754DOPG   C1A54905  18.862  12.938  17.505  0.0325 -0.1535 -0.0806
 2754DOPG   D2A54906  19.145  12.966  17.861 -0.2399 -0.1603 -0.0715
 2754DOPG   C3A54907  19.372  12.572  17.762 -0.4772  0.2247  0.0638
 2754DOPG   C4A54908  19.853  12.288  17.766 -0.1353  0.0002 -0.0328
 2754DOPG   C1B54909  18.600  12.783  16.985  0.0093  0.0828  0.0450
 2754DOPG   D2B54910  18.846  12.399  16.793  0.0500  0.0901 -0.0093
 2754DOPG   C3B54911  18.705  12.013  16.852 -0.3310 -0.0336 -0.1385
 2754DOPG   C4B54912  18.644  11.534  16.920  0.0854  0.2291  0.2066
 2755DOPG   GL054913  24.796  19.695  18.670 -0.0567  0.0414 -0.0952
 2755DOPG   PO454914  24.799  19.526  18.277 -0.0147  0.0501 -0.0408
 2755DOPG   GL154915  25.239  19.842  18.385  0.0103 -0.1005  0.1325
 2755DOPG   GL254916  25.165  20.092  18.650  0.0351  0.1176  0.0629
 2755DOPG   C1A54917  25.680  19.791  18.405 -0.0236 -0.1435 -0.2105
 2755DOPG   D2A54918  26.025  19.768  18.777  0.3552 -0.2176 -0.0456
 2755DOPG   C3A54919  26.071  20.145  19.025  0.1230 -0.0788  0.2056
 2755DOPG   C4A54920  25.828  20.158  19.369  0.1391 -0.0631 -0.2168
 2755DOPG   C1B54921  25.505  20.188  18.920  0.0595 -0.0807 -0.0495
 2755DOPG   D2B54922  25.278  20.265  19.320 -0.0937  0.0776  0.0941
 2755DOPG   C3B54923  24.836  20.506  19.334  0.2737 -0.1624 -0.0315
 2755DOPG   C4B54924  24.501  20.669  19.399 -0.2431 -0.2676  0.1333
 2756DOPG   GL054925  13.927  15.157  20.810 -0.2484  0.1096  0.0948
 2756DOPG   PO454926  14.273  15.113  20.472 -0.0179 -0.1160 -0.0152
 2756DOPG   GL154927  14.488  14.893  20.897  0.0071 -0.0477  0.1374
 2756DOPG   GL254928  14.252  14.739  21.068 -0.0231  0.2835 -0.0786
 2756DOPG   C1A54929  14.635  15.004  21.329  0.0642  0.3022 -0.1934
 2756DOPG   D2A54930  14.876  14.773  21.621 -0.0058  0.2147  0.1145
 2756DOPG   C3A54931  14.942  14.382  21.430  0.4392  0.2135 -0.0973
 2756DOPG   C4A54932  15.204  14.082  21.339 -0.0843 -0.0344 -0.1697
 2756DOPG   C1B54933  14.212  14.394  21.337  0.0575  0.2678 -0.1907
 2756DOPG   D2B54934  14.575  14.031  21.487 -0.0838  0.0909 -0.1028
 2756DOPG   C3B54935  14.560  14.052  21.984 -0.0783 -0.0066 -0.2329
 2756DOPG   C4B54936  14.421  14.225  22.362  0.0302  0.0416 -0.2462
 2757DOPG   GL054937  18.978  16.016  20.200  0.3622  0.0668  0.5328
 2757DOPG   PO454938  18.811  15.738  20.075 -0.0173 -0.0330  0.1938
 2757DOPG   GL154939  19.173  15.705  20.488 -0.3121 -0.1436 -0.1582
 2757DOPG   GL254940  19.392  15.927  20.584  0.3047 -0.2651 -0.0494
 2757DOPG   C1A54941  19.405  15.550  20.868  0.2449 -0.3617 -0.0407
 2757DOPG   D2A54942  19.709  15.193  21.051 -0.0600 -0.1157 -0.1182
 2757DOPG   C3A54943  19.512  14.991  21.328  0.2283 -0.1731  0.1178
 2757DOPG   C4A54944  19.244  14.687  21.582 -0.2666  0.0857  0.2176
 2757DOPG   C1B54945  19.725  16.166  20.720 -0.1754  0.1723 -0.1060
 2757DOPG   D2B54946  20.119  16.189  20.681  0.0820  0.2150  0.0878
 2757DOPG   C3B54947  20.288  16.563  20.749 -0.0608 -0.2872  0.0958
 2757DOPG   C4B54948  20.510  17.037  20.699  0.3436 -0.1986  0.0880
 2758DOPG   GL054949   9.230  14.450  17.649 -0.1766  0.0429 -0.1502
 2758DOPG   PO454950   9.079  14.379  18.081 -0.0039 -0.1118 -0.1084
 2758DOPG   GL154951   8.754  14.007  18.286 -0.0333  0.0739 -0.0329
 2758DOPG   GL254952   8.605  14.066  18.594  0.1596 -0.3775 -0.2509
 2758DOPG   C1A54953   8.326  13.939  18.211  0.0602 -0.4252  0.1108
 2758DOPG   D2A54954   7.892  14.092  18.214 -0.1902  0.3889 -0.1025
 2758DOPG   C3A54955   7.487  14.080  17.867  0.2634  0.1454  0.0498
 2758DOPG   C4A54956   7.060  14.169  17.799  0.0166  0.0525 -0.2904
 2758DOPG   C1B54957   8.192  14.060  18.768 -0.0726 -0.0479  0.0215
 2758DOPG   D2B54958   7.757  13.850  18.681 -0.3474  0.1670  0.1875
 2758DOPG   C3B54959   7.424  14.086  18.392  0.0315 -0.2152  0.2209
 2758DOPG   C4B54960   7.146  13.926  18.253 -0.0282  0.2984 -0.0237
 2759DOPG   GL054961  15.505  20.866  17.947 -0.2262 -0.6419 -0.4143
 2759DOPG   PO454962  15.608  20.872  17.453 -0.1504 -0.3069  0.1358
 2759DOPG   GL154963  15.805  21.278  17.281 -0.3134  0.4918 -0.0182
 2759DOPG   GL254964  15.720  21.337  17.609  0.0241 -0.0185  0.2132
 2759DOPG   C1A54965  15.736  21.804  17.297 -0.0606  0.2538  0.0354
 2759DOPG   D2A54966  15.923  22.108  17.032 -0.1439  0.1528 -0.0194
 2759DOPG   C3A54967  16.006  22.359  16.677 -0.0397  0.0118  0.3721
 2759DOPG   C4A54968  16.068  22.527  16.281 -0.0880  0.3012  0.3156
 2759DOPG   C1B54969  15.669  21.689  17.826 -0.0700  0.0394  0.5146
 2759DOPG   D2B54970  15.894  21.863  18.066  0.3165  0.3766  0.0155
 2759DOPG   C3B54971  16.185  22.096  17.973 -0.0175 -0.2158 -0.1042
 2759DOPG   C4B54972  16.610  22.205  18.243 -0.0062 -0.1832  0.0359
 2760DOPG   GL054973  14.898  20.720  16.109  0.2175 -0.3160  0.1813
 2760DOPG   PO454974  15.234  20.943  16.157  0.0346  0.3030  0.0873
 2760DOPG   GL154975  15.247  21.367  16.030 -0.3152  0.1140 -0.2158
 2760DOPG   GL254976  15.139  21.627  16.092 -0.0255 -0.1289 -0.0226
 2760DOPG   C1A54977  15.418  21.620  15.601 -0.0909  0.3896 -0.0741
 2760DOPG   D2A54978  15.563  22.014  15.370 -0.1376  0.2375  0.0904
 2760DOPG   C3A54979  15.277  22.316  15.383 -0.0949 -0.0528 -0.2135
 2760DOPG   C4A54980  15.028  22.468  15.108 -0.2158 -0.0542 -0.1238
 2760DOPG   C1B54981  15.369  22.042  15.859 -0.2187 -0.0274 -0.1138
 2760DOPG   D2B54982  15.517  22.540  15.995  0.0967  0.1912 -0.1515
 2760DOPG   C3B54983  15.187  22.723  16.328  0.3337  0.0516 -0.1003
 2760DOPG   C4B54984  15.141  22.769  16.810  0.0346 -0.3335 -0.0078
 2761DOPG   GL054985  28.103  17.816  20.046  0.3806  0.0085 -0.0680
 2761DOPG   PO454986  27.928  18.098  19.956  0.4987 -0.1538 -0.0887
 2761DOPG   GL154987  27.498  17.836  19.901 -0.0383 -0.4752  0.0772
 2761DOPG   GL254988  27.220  17.765  20.188  0.1025  0.0339  0.1621
 2761DOPG   C1A54989  27.131  17.585  19.718  0.1926 -0.1014 -0.2422
 2761DOPG   D2A54990  26.776  17.683  19.522  0.0843 -0.0700 -0.3748
 2761DOPG   C3A54991  26.766  18.124  19.389 -0.2640  0.5504  0.2165
 2761DOPG   C4A54992  26.580  18.465  19.263  0.2202 -0.1053 -0.0669
 2761DOPG   C1B54993  26.974  18.061  19.886  0.2012  0.2067  0.1708
 2761DOPG   D2B54994  26.456  18.102  19.733  0.0129  0.1736  0.0832
 2761DOPG   C3B54995  26.319  17.941  19.409  0.1923 -0.1179  0.0707
 2761DOPG   C4B54996  26.275  17.736  19.013 -0.0080 -0.0545 -0.1379
 2762DOPG   GL054997  26.932  14.464  18.585  0.3969 -0.2067  0.1323
 2762DOPG   PO454998  26.490  14.678  18.754 -0.0142 -0.2236  0.2379
 2762DOPG   GL154999  26.332  14.973  18.524  0.3428  0.0572  0.1714
 2762DOPG   GL255000  26.191  14.988  18.215 -0.1029  0.1723  0.2403
 2762DOPG   C1A55001  25.849  15.004  18.481  0.0222  0.1638 -0.1374
 2762DOPG   D2A55002  25.598  14.986  18.133 -0.3325 -0.1764  0.0869
 2762DOPG   C3A55003  25.356  15.411  18.030  0.1161  0.0112  0.4876
 2762DOPG   C4A55004  24.992  15.789  17.986  0.1647  0.1368 -0.0685
 2762DOPG   C1B55005  26.005  15.366  18.117  0.1723 -0.3490  0.0767
 2762DOPG   D2B55006  26.122  15.655  17.817  0.0572 -0.0925  0.2014
 2762DOPG   C3B55007  25.769  15.936  17.945 -0.2506 -0.1009  0.1417
 2762DOPG   C4B55008  25.388  16.136  17.933  0.4453  0.3227 -0.1436
 2763DOPG   GL055009  25.833  16.427  21.798 -0.0054 -0.3121  0.0811
 2763DOPG   PO455010  25.562  16.454  21.553 -0.1511 -0.4637 -0.0662
 2763DOPG   GL155011  25.239  16.508  21.329 -0.4160  0.1663  0.1029
 2763DOPG   GL255012  25.224  16.826  21.294  0.3924  0.0713  0.1986
 2763DOPG   C1A55013  24.948  16.340  20.999  0.0913  0.2631  0.0351
 2763DOPG   D2A55014  24.675  16.060  20.664 -0.1899  0.3569 -0.2103
 2763DOPG   C3A55015  24.701  16.054  20.274  0.1196 -0.0425  0.2535
 2763DOPG   C4A55016  24.815  15.560  20.028  0.4021 -0.1583 -0.0135
 2763DOPG   C1B55017  25.084  16.760  20.828  0.0648 -0.2849 -0.1499
 2763DOPG   D2B55018  24.775  16.654  20.579  0.1204  0.3041  0.1800
 2763DOPG   C3B55019  24.544  16.775  20.335  0.2482  0.0358 -0.3135
 2763DOPG   C4B55020  24.243  17.108  20.161 -0.2090  0.0075  0.2428
 2764DOPG   GL055021  25.491  14.185  16.890  0.0369  0.3703 -0.0572
 2764DOPG   PO455022  25.951  14.173  17.018 -0.2310 -0.0746 -0.0380
 2764DOPG   GL155023  25.822  14.335  17.349  0.0575  0.0792 -0.3118
 2764DOPG   GL255024  25.845  14.215  17.643  0.2003 -0.2286 -0.0694
 2764DOPG   C1A55025  25.783  14.788  17.648 -0.1380  0.1554  0.1644
 2764DOPG   D2A55026  25.365  14.903  17.602  0.0287  0.1126  0.2554
 2764DOPG   C3A55027  25.222  15.322  17.578 -0.0255 -0.3508 -0.3412
 2764DOPG   C4A55028  25.133  15.783  17.518  0.4101 -0.1691  0.2115
 2764DOPG   C1B55029  25.815  14.455  17.992 -0.0474  0.0998  0.0055
 2764DOPG   D2B55030  25.567  14.550  18.503  0.0001  0.1112  0.0528
 2764DOPG   C3B55031  25.276  14.940  18.599  0.2006 -0.0870 -0.0296
 2764DOPG   C4B55032  24.853  15.012  18.484  0.0452 -0.0553  0.1643
 2765DOPG   GL055033  23.462  19.136  21.044 -0.0168 -0.0773  0.3498
 2765DOPG   PO455034  23.537  19.477  21.243  0.1596 -0.0161  0.0830
 2765DOPG   GL155035  23.923  19.584  20.986  0.1747  0.0425  0.1483
 2765DOPG   GL255036  23.946  19.948  21.012  0.1291  0.2735  0.0725
 2765DOPG   C1A55037  23.821  19.642  20.586  0.0860 -0.3499 -0.2408
 2765DOPG   D2A55038  23.728  19.876  20.174 -0.0198  0.6021 -0.3080
 2765DOPG   C3A55039  24.043  20.218  20.010 -0.0777 -0.0330 -0.2888
 2765DOPG   C4A55040  24.362  20.637  20.069  0.0620 -0.0412  0.2208
 2765DOPG   C1B55041  24.287  19.867  20.669  0.1922  0.1367 -0.2923
 2765DOPG   D2B55042  24.477  20.206  20.346  0.0556 -0.2804  0.0483
 2765DOPG   C3B55043  24.538  20.173  19.956 -0.0121 -0.0442 -0.0121
 2765DOPG   C4B55044  24.332  20.171  19.472 -0.0235  0.3225 -0.2539
 2766DOPG   GL055045  25.265  15.258  15.047 -0.1387 -0.0174 -0.0977
 2766DOPG   PO455046  25.765  15.321  15.200 -0.0000 -0.2067  0.1029
 2766DOPG   GL155047  25.532  15.688  15.447  0.0479  0.0637  0.0379
 2766DOPG   GL255048  25.651  15.872  15.777 -0.1695 -0.1200  0.3466
 2766DOPG   C1A55049  25.152  15.740  15.753 -0.3240  0.0141 -0.3339
 2766DOPG   D2A55050  24.974  15.855  16.189  0.0112  0.3486  0.0846
 2766DOPG   C3A55051  24.909  15.503  16.478  0.0230  0.1316 -0.0264
 2766DOPG   C4A55052  24.956  15.316  16.815  0.1139 -0.0397 -0.1676
 2766DOPG   C1B55053  25.452  16.140  16.135  0.2450 -0.2774 -0.1283
 2766DOPG   D2B55054  25.349  15.952  16.555  0.0962  0.2724 -0.5443
 2766DOPG   C3B55055  25.490  16.111  16.980  0.2254  0.3197  0.1302
 2766DOPG   C4B55056  25.155  16.238  17.282  0.0689 -0.0086 -0.0150
 2767DOPG   GL055057  27.740  18.076  20.832  0.0194  0.2203 -0.0253
 2767DOPG   PO455058  27.350  17.824  20.725  0.0633 -0.1650 -0.2496
 2767DOPG   GL155059  26.873  17.908  20.744  0.2545 -0.3033  0.0661
 2767DOPG   GL255060  26.785  18.318  20.635  0.1581 -0.0335  0.2318
 2767DOPG   C1A55061  26.734  17.961  20.315  0.1173 -0.2827 -0.1518
 2767DOPG   D2A55062  26.507  17.630  20.048 -0.1797  0.1607  0.0540
 2767DOPG   C3A55063  26.264  17.339  20.297 -0.1207  0.1260 -0.2419
 2767DOPG   C4A55064  25.873  17.504  20.663  0.2808  0.4682  0.2013
 2767DOPG   C1B55065  26.918  18.522  20.266  0.1944  0.0534 -0.1073
 2767DOPG   D2B55066  27.288  18.685  20.189 -0.1760  0.1647  0.1961
 2767DOPG   C3B55067  27.269  18.846  19.699  0.0812  0.1094  0.0873
 2767DOPG   C4B55068  26.987  18.671  19.390 -0.1096  0.0343 -0.0957
 2768DOPG   GL055069  26.818  15.936  20.701 -0.2713 -0.3290 -0.1634
 2768DOPG   PO455070  26.733  16.448  20.816  0.0506  0.0674 -0.0657
 2768DOPG   GL155071  26.555  16.430  20.429 -0.2495  0.1764 -0.0835
 2768DOPG   GL255072  26.509  16.142  20.201  0.2011  0.1790 -0.1309
 2768DOPG   C1A55073  26.326  16.722  20.203  0.0298 -0.0259 -0.2548
 2768DOPG   D2A55074  25.994  16.978  20.051 -0.2892  0.0093  0.3574
 2768DOPG   C3A55075  25.622  17.215  20.141  0.1222  0.0638 -0.2613
 2768DOPG   C4A55076  25.621  17.617  20.257 -0.2642  0.0330  0.0886
 2768DOPG   C1B55077  26.012  16.109  20.405 -0.3117 -0.2368 -0.0887
 2768DOPG   D2B55078  25.580  16.162  20.230  0.3899 -0.0791 -0.2711
 2768DOPG   C3B55079  25.365  16.329  19.870  0.1350  0.0295 -0.0752
 2768DOPG   C4B55080  25.392  16.817  19.878 -0.2688  0.2164 -0.3584
 2769DOPG   GL055081  25.086  13.441  16.660  0.2057 -0.1972 -0.1599
 2769DOPG   PO455082  25.136  13.963  16.611 -0.0750 -0.1796  0.3278
 2769DOPG   GL155083  24.962  14.253  16.829  0.1132  0.0163  0.1387
 2769DOPG   GL255084  24.697  14.261  16.747  0.2008 -0.1358 -0.2418
 2769DOPG   C1A55085  24.849  14.139  17.184 -0.0355  0.3136  0.1998
 2769DOPG   D2A55086  24.513  13.991  17.564 -0.2898  0.1422  0.0569
 2769DOPG   C3A55087  24.498  14.369  17.814 -0.2397  0.1898 -0.0469
 2769DOPG   C4A55088  24.304  14.669  17.727 -0.1178 -0.1033 -0.2812
 2769DOPG   C1B55089  24.881  14.743  16.669  0.2077 -0.0884  0.1897
 2769DOPG   D2B55090  25.288  14.998  16.555 -0.0351  0.2647  0.1134
 2769DOPG   C3B55091  25.679  14.982  16.704 -0.2674 -0.1412  0.0861
 2769DOPG   C4B55092  25.981  14.928  17.119  0.0884  0.1905 -0.1388
 2770DOPG   GL055093  28.586  18.249  17.935 -0.1122  0.3919 -0.0702
 2770DOPG   PO455094  28.113  18.353  18.019  0.0085 -0.0496 -0.0288
 2770DOPG   GL155095  27.913  18.138  18.354  0.0309  0.0768  0.2117
 2770DOPG   GL255096  27.686  18.340  18.350 -0.0537  0.0359 -0.1294
 2770DOPG   C1A55097  27.552  17.858  18.595  0.1577 -0.2552 -0.1091
 2770DOPG   D2A55098  27.292  17.783  19.049  0.3465  0.0575 -0.1013
 2770DOPG   C3A55099  27.040  17.529  19.131  0.0149 -0.2847 -0.3037
 2770DOPG   C4A55100  26.877  17.178  19.376 -0.0987  0.0483  0.0318
 2770DOPG   C1B55101  27.518  18.739  18.500 -0.0570 -0.2672  0.2211
 2770DOPG   D2B55102  27.115  18.942  18.393 -0.1248  0.1553 -0.1061
 2770DOPG   C3B55103  27.049  18.595  18.093 -0.0984  0.0045 -0.0771
 2770DOPG   C4B55104  26.999  18.233  17.829 -0.2143  0.2005 -0.0179
 2771DOPG   GL055105  27.274  20.325  20.524 -0.3245 -0.1884 -0.3659
 2771DOPG   PO455106  27.403  19.915  20.327  0.2224 -0.0303  0.1778
 2771DOPG   GL155107  26.987  19.718  20.344 -0.0599  0.0059  0.0874
 2771DOPG   GL255108  26.971  20.030  20.122  0.2114 -0.0801 -0.1365
 2771DOPG   C1A55109  26.609  19.497  20.128  0.0774 -0.5316 -0.2139
 2771DOPG   D2A55110  26.245  19.365  19.933  0.1886  0.3211  0.0346
 2771DOPG   C3A55111  25.841  19.278  20.145 -0.0309 -0.1794  0.1631
 2771DOPG   C4A55112  25.699  19.549  20.523 -0.0501 -0.0896 -0.0239
 2771DOPG   C1B55113  26.884  19.743  19.839 -0.0763 -0.1811  0.2164
 2771DOPG   D2B55114  26.619  19.453  19.554 -0.2072 -0.3217 -0.0170
 2771DOPG   C3B55115  26.626  19.015  19.716 -0.2118  0.1750  0.0969
 2771DOPG   C4B55116  26.234  18.698  19.684  0.0574 -0.2409 -0.2862
 2772DOPG   GL055117  27.330  15.886  20.295  0.1349  0.1419  0.2401
 2772DOPG   PO455118  27.191  15.981  19.865  0.0127 -0.2117 -0.1569
 2772DOPG   GL155119  26.821  16.179  19.731  0.1858 -0.2913  0.1638
 2772DOPG   GL255120  26.602  15.900  19.683 -0.1885 -0.2168  0.3099
 2772DOPG   C1A55121  26.390  16.389  19.705  0.1876  0.0510 -0.2206
 2772DOPG   D2A55122  26.101  16.356  19.404 -0.1995 -0.1794 -0.1642
 2772DOPG   C3A55123  25.758  16.190  19.612 -0.2588 -0.0782 -0.1520
 2772DOPG   C4A55124  25.536  15.856  19.765 -0.1627  0.1784  0.1067
 2772DOPG   C1B55125  26.566  15.962  19.283 -0.1082  0.0897 -0.2393
 2772DOPG   D2B55126  26.629  15.842  18.881  0.1918  0.0341 -0.0903
 2772DOPG   C3B55127  26.254  15.565  18.703 -0.0206  0.2862 -0.1199
 2772DOPG   C4B55128  25.876  15.586  18.922 -0.1518 -0.1969 -0.0661
 2773DOPG   GL055129  27.154  15.271  19.081  0.0825  0.0967 -0.1083
 2773DOPG   PO455130  27.143  15.696  18.918  0.1453 -0.2526 -0.3758
 2773DOPG   GL155131  27.080  16.112  18.845 -0.0172  0.2890  0.1307
 2773DOPG   GL255132  27.069  16.272  19.073 -0.0777  0.0474  0.3939
 2773DOPG   C1A55133  26.816  16.321  18.608 -0.2320  0.4494 -0.0825
 2773DOPG   D2A55134  26.465  16.520  18.465 -0.3033  0.2964 -0.1846
 2773DOPG   C3A55135  26.213  16.332  18.038  0.0039 -0.0537 -0.2230
 2773DOPG   C4A55136  26.250  16.110  17.590  0.0362  0.0181  0.2461
 2773DOPG   C1B55137  26.675  16.409  19.140  0.2057  0.3034 -0.0884
 2773DOPG   D2B55138  26.460  16.813  19.183 -0.1830 -0.0571  0.0989
 2773DOPG   C3B55139  26.119  16.908  18.792 -0.3020 -0.1160 -0.0590
 2773DOPG   C4B55140  26.019  17.288  18.647 -0.0702 -0.2809 -0.0430
 2774DOPG   GL055141  27.651  18.485  20.522  0.0389  0.1310 -0.1516
 2774DOPG   PO455142  27.626  18.907  20.539  0.1252  0.2473 -0.0799
 2774DOPG   GL155143  27.295  18.842  20.650  0.2646 -0.2012  0.0690
 2774DOPG   GL255144  27.170  19.053  20.845 -0.0973  0.0548  0.0306
 2774DOPG   C1A55145  26.798  18.797  20.641 -0.3124 -0.1332 -0.0939
 2774DOPG   D2A55146  26.597  18.935  20.298  0.2703 -0.1090 -0.0025
 2774DOPG   C3A55147  26.212  18.871  20.246 -0.0300  0.1792 -0.2522
 2774DOPG   C4A55148  25.858  18.601  20.054 -0.0056  0.0407 -0.2434
 2774DOPG   C1B55149  27.096  19.250  20.373  0.2373  0.2366  0.1897
 2774DOPG   D2B55150  27.029  19.108  20.015 -0.0408 -0.1249 -0.0446
 2774DOPG   C3B55151  27.141  19.310  19.648 -0.0111 -0.0167  0.0360
 2774DOPG   C4B55152  27.036  19.628  19.312  0.1760  0.1228  0.1602
 2775DOPG   GL055153  26.374  16.750  21.102 -0.0064  0.1000 -0.1672
 2775DOPG   PO455154  26.468  17.127  21.323  0.0331 -0.3394  0.2378
 2775DOPG   GL155155  26.547  17.506  21.008 -0.2260  0.0908 -0.3245
 2775DOPG   GL255156  26.353  17.517  20.819  0.1427 -0.0886  0.3026
 2775DOPG   C1A55157  26.733  17.450  20.538 -0.0380  0.2672 -0.4075
 2775DOPG   D2A55158  26.890  17.271  20.081 -0.3154  0.2807  0.0798
 2775DOPG   C3A55159  26.532  17.107  19.928  0.1097 -0.0194  0.0449
 2775DOPG   C4A55160  26.304  16.873  19.653  0.2831 -0.2827  0.0809
 2775DOPG   C1B55161  26.260  17.921  20.552 -0.3328  0.0753  0.2614
 2775DOPG   D2B55162  26.122  17.929  20.120  0.1276 -0.3484 -0.2217
 2775DOPG   C3B55163  25.692  18.113  20.033  0.1674 -0.0158 -0.0322
 2775DOPG   C4B55164  25.383  18.420  20.112  0.0585  0.0620  0.1510
 2776DOPG   GL055165  27.717  18.079  17.866 -0.1166  0.2703 -0.1185
 2776DOPG   PO455166  27.818  17.657  17.585  0.3578 -0.1359  0.1367
 2776DOPG   GL155167  27.442  17.464  17.804 -0.1249  0.0774  0.0978
 2776DOPG   GL255168  27.222  17.642  17.884  0.0022  0.0081  0.0291
 2776DOPG   C1A55169  27.132  17.320  17.569 -0.0608 -0.1207  0.4922
 2776DOPG   D2A55170  27.101  17.040  17.169  0.1955  0.1824 -0.0692
 2776DOPG   C3A55171  27.046  16.629  17.115  0.0084  0.0032 -0.2382
 2776DOPG   C4A55172  26.691  16.405  17.150  0.1415  0.0661  0.0672
 2776DOPG   C1B55173  26.837  17.749  18.094  0.0425 -0.2572 -0.0144
 2776DOPG   D2B55174  26.742  18.177  18.319 -0.1388 -0.0138 -0.0609
 2776DOPG   C3B55175  26.328  18.383  18.320  0.1480  0.3416  0.1927
 2776DOPG   C4B55176  25.776  18.249  18.336  0.5969 -0.1210 -0.0811
 2777DOPG   GL055177  26.459  14.846  19.277 -0.3464  0.0250 -0.1591
 2777DOPG   PO455178  26.082  14.691  19.459  0.0504 -0.1009  0.0607
 2777DOPG   GL155179  25.859  14.922  19.790  0.4584  0.1347 -0.3828
 2777DOPG   GL255180  25.413  14.904  19.945  0.2092 -0.1350  0.1624
 2777DOPG   C1A55181  25.536  15.344  19.795  0.2264  0.2527 -0.0001
 2777DOPG   D2A55182  25.202  15.434  19.780 -0.1778  0.2425 -0.0151
 2777DOPG   C3A55183  24.927  15.652  19.509  0.1845  0.2516 -0.0516
 2777DOPG   C4A55184  24.669  15.635  19.121 -0.2015  0.0463  0.2399
 2777DOPG   C1B55185  25.045  14.954  19.756  0.1004  0.1042 -0.1160
 2777DOPG   D2B55186  24.719  15.220  19.409 -0.1893 -0.0841  0.1601
 2777DOPG   C3B55187  24.285  15.464  19.529  0.1258  0.0412  0.2360
 2777DOPG   C4B55188  23.854  15.385  19.695  0.0058 -0.1660  0.0432
 2778DOPG   GL055189  26.993  15.121  19.563  0.1355 -0.0350 -0.2439
 2778DOPG   PO455190  26.629  15.387  19.748 -0.1156 -0.0063 -0.2872
 2778DOPG   GL155191  26.260  15.558  19.586 -0.1865  0.0697  0.1544
 2778DOPG   GL255192  26.031  15.475  19.792  0.1473 -0.0856 -0.0329
 2778DOPG   C1A55193  25.994  15.719  19.371 -0.1060  0.1548 -0.0066
 2778DOPG   D2A55194  25.500  15.594  19.291  0.1038 -0.0465 -0.4115
 2778DOPG   C3A55195  25.203  15.707  19.043 -0.1553 -0.0565  0.0773
 2778DOPG   C4A55196  24.889  15.857  18.770  0.1507 -0.0984 -0.0686
 2778DOPG   C1B55197  26.000  15.939  19.928 -0.1445  0.1380  0.0578
 2778DOPG   D2B55198  25.959  16.459  19.978  0.2044 -0.1152  0.0924
 2778DOPG   C3B55199  25.673  16.622  20.279 -0.1412  0.0852 -0.2076
 2778DOPG   C4B55200  25.496  16.609  20.611  0.2313  0.0135  0.2870
 2779DOPG   GL055201  23.319  16.216  18.163  0.2714 -0.0639 -0.4823
 2779DOPG   PO455202  23.615  16.472  18.189 -0.0608  0.0330 -0.0630
 2779DOPG   GL155203  23.871  16.109  18.238  0.0055 -0.0405  0.3007
 2779DOPG   GL255204  23.809  15.937  18.457 -0.0243 -0.0109 -0.1875
 2779DOPG   C1A55205  24.209  15.957  18.025 -0.0087 -0.0231 -0.2638
 2779DOPG   D2A55206  24.565  16.016  17.758  0.1555  0.2655 -0.3120
 2779DOPG   C3A55207  24.690  15.643  17.614  0.1500 -0.0483  0.0572
 2779DOPG   C4A55208  24.755  15.466  17.262  0.2215  0.0024 -0.1077
 2779DOPG   C1B55209  24.191  15.585  18.306 -0.2356 -0.1683  0.1873
 2779DOPG   D2B55210  24.413  15.338  17.940  0.0469 -0.2052  0.0189
 2779DOPG   C3B55211  24.839  15.279  18.035 -0.2917 -0.2332 -0.1963
 2779DOPG   C4B55212  25.096  15.009  17.965 -0.3072  0.1103  0.0431
 2780DOPG   GL055213  22.169  16.437  17.152 -0.0350  0.1374  0.0311
 2780DOPG   PO455214  21.938  16.045  17.190  0.0774 -0.0133 -0.1441
 2780DOPG   GL155215  22.016  15.801  16.876 -0.1211 -0.0924 -0.1589
 2780DOPG   GL255216  21.767  15.571  16.849 -0.1534  0.3258  0.1849
 2780DOPG   C1A55217  22.272  15.478  16.822  0.2232  0.2523 -0.2373
 2780DOPG   D2A55218  22.229  15.038  16.745  0.0927 -0.0320 -0.5764
 2780DOPG   C3A55219  22.492  14.693  17.084  0.2674  0.0222  0.0274
 2780DOPG   C4A55220  22.893  14.533  17.094  0.1561  0.1278  0.0018
 2780DOPG   C1B55221  21.898  15.294  16.588  0.0205  0.0884  0.0825
 2780DOPG   D2B55222  21.889  14.905  16.327  0.0500  0.1953 -0.1405
 2780DOPG   C3B55223  22.281  14.960  16.116 -0.1062  0.0376  0.0330
 2780DOPG   C4B55224  22.579  14.883  15.681 -0.0407  0.1233  0.0551
 2781DOPG   GL055225  22.732  17.211  18.653 -0.0468  0.3728  0.1574
 2781DOPG   PO455226  22.903  16.947  18.368 -0.2701 -0.0946 -0.0610
 2781DOPG   GL155227  23.039  16.855  18.829  0.0298 -0.2057  0.0348
 2781DOPG   GL255228  23.332  16.601  19.075 -0.2002  0.0331 -0.0228
 2781DOPG   C1A55229  22.971  17.003  19.166  0.1737 -0.2373  0.2416
 2781DOPG   D2A55230  22.882  17.128  19.651  0.1352  0.0545  0.1462
 2781DOPG   C3A55231  22.539  17.106  19.624 -0.0871  0.1013  0.0754
 2781DOPG   C4A55232  22.328  17.430  19.731  0.2387  0.0728  0.0236
 2781DOPG   C1B55233  23.651  16.165  19.156 -0.1356  0.0091  0.0928
 2781DOPG   D2B55234  24.055  16.200  18.843 -0.0554  0.1010  0.3002
 2781DOPG   C3B55235  24.439  16.042  18.955  0.0871 -0.2995  0.0587
 2781DOPG   C4B55236  24.731  16.141  19.254  0.0989  0.1778 -0.0041
 2782DOPG   GL055237  22.164  15.898  17.737  0.1054 -0.2693  0.1191
 2782DOPG   PO455238  22.498  15.895  18.030  0.2422  0.3241 -0.0900
 2782DOPG   GL155239  22.708  15.621  17.926  0.0459  0.0752  0.1818
 2782DOPG   GL255240  22.973  15.808  17.848  0.0492  0.2507  0.0989
 2782DOPG   C1A55241  22.919  15.248  17.709 -0.2471 -0.1274  0.1133
 2782DOPG   D2A55242  22.929  14.970  17.374 -0.4302 -0.1573  0.3259
 2782DOPG   C3A55243  23.284  14.961  17.008  0.2884  0.1457 -0.3478
 2782DOPG   C4A55244  23.460  14.748  16.690  0.0735 -0.1465 -0.0155
 2782DOPG   C1B55245  23.282  15.722  17.588  0.1422  0.1615 -0.2622
 2782DOPG   D2B55246  23.463  15.713  17.072 -0.3471  0.1366 -0.1536
 2782DOPG   C3B55247  23.512  15.405  16.852  0.1902 -0.2294  0.1726
 2782DOPG   C4B55248  23.538  15.218  16.466  0.4478  0.0010  0.2081
 2783DOPG   GL055249  25.366  18.284  18.143  0.0149 -0.1608 -0.3107
 2783DOPG   PO455250  25.254  17.883  17.977 -0.2970  0.0338 -0.2841
 2783DOPG   GL155251  25.560  17.564  18.008  0.1719  0.1484 -0.1683
 2783DOPG   GL255252  25.528  17.503  18.292  0.0606  0.0175  0.2555
 2783DOPG   C1A55253  26.018  17.345  18.036  0.0498  0.0185 -0.0721
 2783DOPG   D2A55254  26.279  17.142  17.772 -0.1411 -0.1698  0.0518
 2783DOPG   C3A55255  26.593  17.253  17.973 -0.2170  0.2578  0.4007
 2783DOPG   C4A55256  26.944  17.257  18.191  0.1785 -0.1609  0.0093
 2783DOPG   C1B55257  25.858  17.770  18.424 -0.0774 -0.2751 -0.1915
 2783DOPG   D2B55258  25.947  18.034  18.747 -0.1315  0.1764  0.4419
 2783DOPG   C3B55259  25.935  18.550  18.676  0.0703 -0.0502 -0.1338
 2783DOPG   C4B55260  25.682  18.949  18.472 -0.2705  0.0707  0.0637
 2784DOPG   GL055261  23.156  17.617  18.578 -0.2201 -0.2294  0.0332
 2784DOPG   PO455262  23.264  17.341  18.343  0.0867  0.0026 -0.1051
 2784DOPG   GL155263  23.474  17.211  18.772  0.0006 -0.0706  0.1788
 2784DOPG   GL255264  23.854  16.924  18.616 -0.6001  0.0718  0.1294
 2784DOPG   C1A55265  23.538  17.044  19.124 -0.0132 -0.0263 -0.0194
 2784DOPG   D2A55266  23.526  17.115  19.575 -0.2729  0.2376  0.0318
 2784DOPG   C3A55267  23.847  17.021  19.852  0.0471 -0.0472  0.0836
 2784DOPG   C4A55268  24.087  16.654  19.965  0.2770 -0.3970 -0.2183
 2784DOPG   C1B55269  23.904  16.676  19.033  0.1144 -0.1978  0.0512
 2784DOPG   D2B55270  23.713  16.642  19.393 -0.0584  0.1940  0.0756
 2784DOPG   C3B55271  23.806  16.330  19.686 -0.0120  0.1565  0.2111
 2784DOPG   C4B55272  23.865  16.171  20.078 -0.1237  0.1081  0.0420
 2785DOPG   GL055273  24.195  16.447  17.946 -0.1629  0.2468 -0.0547
 2785DOPG   PO455274  24.540  16.550  17.681  0.2336  0.1677 -0.0373
 2785DOPG   GL155275  24.822  16.754  17.964 -0.1060  0.0025  0.0205
 2785DOPG   GL255276  25.188  16.623  18.037 -0.3160 -0.1361 -0.2569
 2785DOPG   C1A55277  24.861  16.731  18.413 -0.3466 -0.1065  0.0652
 2785DOPG   D2A55278  24.802  16.469  18.814  0.1822 -0.4198  0.0691
 2785DOPG   C3A55279  24.870  16.601  19.267 -0.0672  0.1266  0.0525
 2785DOPG   C4A55280  25.020  16.648  19.674 -0.0466  0.0792 -0.0660
 2785DOPG   C1B55281  25.414  16.494  18.251 -0.1403 -0.1006  0.2653
 2785DOPG   D2B55282  25.386  16.445  18.658 -0.2489  0.1886  0.2639
 2785DOPG   C3B55283  25.263  16.221  19.036  0.1511  0.1606  0.0483
 2785DOPG   C4B55284  25.214  16.147  19.402  0.0327 -0.2116  0.3164
 2786DOPG   GL055285  23.593  16.617  17.604 -0.2482 -0.1273 -0.0885
 2786DOPG   PO455286  24.018  16.598  17.485  0.1897  0.1968 -0.2650
 2786DOPG   GL155287  24.098  16.165  17.560  0.0125  0.0057 -0.0879
 2786DOPG   GL255288  23.827  15.986  17.636  0.0362  0.2083  0.1207
 2786DOPG   C1A55289  24.405  15.936  17.265  0.1108  0.0581  0.1463
 2786DOPG   D2A55290  24.759  16.142  17.000  0.1429 -0.1580 -0.0211
 2786DOPG   C3A55291  25.065  15.865  16.946  0.1379  0.4042  0.1390
 2786DOPG   C4A55292  25.343  15.662  17.141 -0.1029  0.4172 -0.0376
 2786DOPG   C1B55293  24.164  15.614  17.555 -0.2659  0.0623 -0.1203
 2786DOPG   D2B55294  24.211  15.302  17.201  0.2263 -0.2284  0.1045
 2786DOPG   C3B55295  24.467  15.511  16.882  0.4761 -0.1072 -0.0047
 2786DOPG   C4B55296  24.590  15.911  16.548 -0.3560  0.0718  0.1034
 2787DOPG   GL055297  23.710  19.305  18.985  0.1310  0.3207 -0.0994
 2787DOPG   PO455298  23.814  19.713  18.887 -0.0574  0.3299 -0.1938
 2787DOPG   GL155299  23.903  19.943  19.273 -0.2126  0.1733  0.0948
 2787DOPG   GL255300  24.195  19.661  19.422  0.2132 -0.2132 -0.1502
 2787DOPG   C1A55301  23.823  20.271  19.492  0.0489 -0.0673 -0.0287
 2787DOPG   D2A55302  23.593  20.592  19.399 -0.1197  0.2412  0.0471
 2787DOPG   C3A55303  23.857  20.766  19.247  0.0965 -0.1827  0.0906
 2787DOPG   C4A55304  23.920  20.945  18.808 -0.3820 -0.0162 -0.0024
 2787DOPG   C1B55305  24.629  19.576  19.602  0.0764  0.0987  0.2483
 2787DOPG   D2B55306  24.946  19.379  19.838  0.1908  0.1873 -0.1197
 2787DOPG   C3B55307  25.356  19.191  19.664 -0.3583 -0.3169 -0.1304
 2787DOPG   C4B55308  25.807  19.015  19.738  0.1938  0.0582  0.1539
 2788DOPG   GL055309  23.858  17.446  18.003 -0.1363 -0.1868 -0.0018
 2788DOPG   PO455310  24.145  17.282  18.427 -0.1253  0.0405  0.0989
 2788DOPG   GL155311  24.402  17.108  18.863  0.0015 -0.3620 -0.2097
 2788DOPG   GL255312  24.302  16.820  18.846  0.2143 -0.0941 -0.3715
 2788DOPG   C1A55313  24.543  17.077  19.331  0.4688  0.1102 -0.2332
 2788DOPG   D2A55314  24.859  17.253  19.530 -0.4062 -0.3810  0.1320
 2788DOPG   C3A55315  25.280  17.004  19.410 -0.0713 -0.1309  0.1440
 2788DOPG   C4A55316  25.497  16.597  19.455 -0.1328  0.3084 -0.2019
 2788DOPG   C1B55317  24.385  16.535  19.115 -0.0249  0.2894 -0.1058
 2788DOPG   D2B55318  24.161  16.381  19.423 -0.2956  0.1290 -0.0115
 2788DOPG   C3B55319  24.357  16.336  19.708 -0.1326 -0.1598 -0.2437
 2788DOPG   C4B55320  24.697  16.420  19.949  0.0513  0.3508 -0.3008
 2789DOPG   GL055321  24.405  18.291  18.388 -0.1689 -0.0954  0.0814
 2789DOPG   PO455322  24.408  18.720  18.463 -0.0044  0.0205  0.0325
 2789DOPG   GL155323  24.448  18.679  18.937  0.1687  0.2280  0.0272
 2789DOPG   GL255324  24.184  18.468  19.042 -0.0344 -0.0740  0.0420
 2789DOPG   C1A55325  24.755  18.438  19.339  0.1537 -0.1627  0.0508
 2789DOPG   D2A55326  24.887  18.070  19.331 -0.0039 -0.1282 -0.2789
 2789DOPG   C3A55327  24.952  17.746  19.683  0.2386  0.3907 -0.0417
 2789DOPG   C4A55328  24.565  17.418  19.880  0.1268 -0.0134 -0.1235
 2789DOPG   C1B55329  23.871  18.406  19.447  0.0336 -0.2878 -0.0725
 2789DOPG   D2B55330  23.609  18.318  19.735 -0.1729  0.1973 -0.2098
 2789DOPG   C3B55331  23.567  17.923  19.963  0.0036  0.1398 -0.2070
 2789DOPG   C4B55332  23.704  17.572  19.844  0.0428 -0.1345  0.3436
 2790DOPG   GL055333  25.272  19.327  18.329 -0.2936  0.1327  0.1930
 2790DOPG   PO455334  25.112  19.339  18.809  0.2180 -0.0022 -0.0803
 2790DOPG   GL155335  25.247  19.284  19.153 -0.3689 -0.0212  0.2074
 2790DOPG   GL255336  25.088  19.432  19.374 -0.1144 -0.0213  0.1478
 2790DOPG   C1A55337  25.761  19.374  19.365 -0.3173 -0.1426 -0.3374
 2790DOPG   D2A55338  25.737  19.532  19.735 -0.0687 -0.0136 -0.2520
 2790DOPG   C3A55339  25.873  19.882  19.853 -0.3476 -0.0323 -0.0686
 2790DOPG   C4A55340  25.926  20.323  19.999 -0.0700  0.2862  0.1227
 2790DOPG   C1B55341  25.288  19.757  19.586 -0.2293  0.0092  0.0467
 2790DOPG   D2B55342  25.475  20.177  19.806  0.0852  0.2324 -0.0358
 2790DOPG   C3B55343  25.253  20.571  19.760  0.1730 -0.0763  0.2548
 2790DOPG   C4B55344  24.864  20.887  19.725 -0.1659 -0.2679  0.1013
 2791DOPG   GL055345  23.969  17.999  18.260 -0.2649  0.1453 -0.0037
 2791DOPG   PO455346  24.067  18.060  18.736  0.1641 -0.1752  0.1391
 2791DOPG   GL155347  24.120  17.963  19.151  0.0807 -0.0182  0.0541
 2791DOPG   GL255348  24.386  18.035  19.378 -0.0739 -0.2154  0.1164
 2791DOPG   C1A55349  23.930  17.928  19.626 -0.2713  0.0729 -0.2210
 2791DOPG   D2A55350  23.991  18.136  20.075  0.2435  0.0115  0.0581
 2791DOPG   C3A55351  23.560  18.351  20.249 -0.3119 -0.3587 -0.1548
 2791DOPG   C4A55352  23.286  18.288  20.477  0.2600  0.0924 -0.5510
 2791DOPG   C1B55353  24.490  17.981  19.769 -0.0198  0.1100 -0.1592
 2791DOPG   D2B55354  24.635  17.801  20.165  0.1007 -0.1802  0.1803
 2791DOPG   C3B55355  24.494  17.492  20.464  0.1345  0.2488  0.0529
 2791DOPG   C4B55356  24.766  17.139  20.558 -0.0556 -0.0643  0.0236
 2792DOPG   GL055357  21.943  17.432  18.485 -0.3288  0.1340  0.4505
 2792DOPG   PO455358  22.299  17.524  18.543 -0.4030  0.0104  0.2044
 2792DOPG   GL155359  22.356  17.381  18.913  0.2693  0.1687 -0.1166
 2792DOPG   GL255360  22.391  17.023  19.073 -0.1294  0.2281  0.0212
 2792DOPG   C1A55361  22.689  17.403  19.287 -0.3623 -0.0747  0.1469
 2792DOPG   D2A55362  22.794  17.604  19.729  0.0707  0.1904 -0.0310
 2792DOPG   C3A55363  22.673  17.409  20.068  0.1448 -0.0254 -0.2610
 2792DOPG   C4A55364  22.837  16.971  20.152  0.1446 -0.0516  0.0789
 2792DOPG   C1B55365  22.100  17.041  19.350  0.2765 -0.2085 -0.0348
 2792DOPG   D2B55366  22.059  17.040  19.774  0.0260  0.1854 -0.0187
 2792DOPG   C3B55367  22.414  16.758  19.978 -0.1253 -0.1401  0.0994
 2792DOPG   C4B55368  22.380  16.413  20.267 -0.0619 -0.0420  0.0617
 2793DOPG   GL055369  24.816  18.625  17.384  0.0919  0.4003 -0.0375
 2793DOPG   PO455370  25.132  18.691  17.068 -0.2113  0.0143 -0.2306
 2793DOPG   GL155371  25.227  18.743  16.646 -0.0534  0.2238  0.2762
 2793DOPG   GL255372  25.002  18.996  16.601  0.0784 -0.1187  0.0903
 2793DOPG   C1A55373  25.095  18.748  16.194  0.1697  0.0832 -0.2857
 2793DOPG   D2A55374  25.227  18.731  15.813  0.2028  0.0019  0.1854
 2793DOPG   C3A55375  25.687  18.701  15.760  0.0384 -0.0190 -0.2831
 2793DOPG   C4A55376  26.017  18.971  15.757  0.2007  0.2799 -0.2720
 2793DOPG   C1B55377  25.308  19.127  16.334  0.0165 -0.1519  0.0941
 2793DOPG   D2B55378  25.591  18.900  16.188 -0.0008 -0.2726 -0.3961
 2793DOPG   C3B55379  25.748  18.496  16.253 -0.2457  0.1431  0.2237
 2793DOPG   C4B55380  25.720  18.190  16.484  0.1455  0.0273  0.1283
 2794DOPG   GL055381  23.541  16.357  18.655  0.3346  0.1881  0.1234
 2794DOPG   PO455382  24.071  16.526  18.454 -0.0805  0.0895 -0.0753
 2794DOPG   GL155383  24.432  16.204  18.427 -0.0345 -0.2157  0.1430
 2794DOPG   GL255384  24.619  16.288  18.247  0.2313  0.0127  0.0237
 2794DOPG   C1A55385  24.626  15.806  18.341 -0.0802  0.1513 -0.0472
 2794DOPG   D2A55386  24.683  15.456  18.502 -0.2014 -0.0262 -0.0804
 2794DOPG   C3A55387  25.120  15.418  18.503 -0.0479 -0.0055  0.1054
 2794DOPG   C4A55388  25.616  15.508  18.450 -0.1740  0.1623 -0.4323
 2794DOPG   C1B55389  24.977  16.226  18.378 -0.0571 -0.3544  0.0190
 2794DOPG   D2B55390  25.288  15.919  18.441 -0.1186 -0.0889 -0.2943
 2794DOPG   C3B55391  25.719  16.031  18.668 -0.0714 -0.0430  0.0694
 2794DOPG   C4B55392  25.783  16.129  19.119  0.2644  0.2577 -0.1514
 2795DOPG   GL055393  24.791  17.672  18.091  0.3281  0.1805 -0.1323
 2795DOPG   PO455394  25.146  17.741  18.505  0.3900 -0.4347 -0.2845
 2795DOPG   GL155395  25.158  18.024  18.841 -0.1031  0.2093 -0.1404
 2795DOPG   GL255396  25.090  18.290  18.702  0.1712 -0.0809  0.4591
 2795DOPG   C1A55397  25.419  17.976  19.221 -0.0395 -0.1003 -0.3637
 2795DOPG   D2A55398  25.804  17.946  19.354  0.1874 -0.3814 -0.0067
 2795DOPG   C3A55399  25.956  17.589  19.590 -0.0805  0.2423  0.3322
 2795DOPG   C4A55400  25.978  17.460  19.894 -0.0888  0.1387  0.0647
 2795DOPG   C1B55401  25.498  18.425  18.791 -0.1438  0.2199 -0.0050
 2795DOPG   D2B55402  25.815  18.408  19.137  0.4811  0.0899 -0.0068
 2795DOPG   C3B55403  25.939  18.698  19.247 -0.1442 -0.3747 -0.0126
 2795DOPG   C4B55404  26.205  19.158  19.457 -0.2522 -0.0992  0.2126
 2796DOPG   GL055405  24.076  20.030  16.862  0.4128 -0.1728  0.0460
 2796DOPG   PO455406  24.150  20.041  17.352 -0.1869  0.2057 -0.1101
 2796DOPG   GL155407  24.531  20.053  17.541  0.3569  0.0421  0.3367
 2796DOPG   GL255408  24.705  20.296  17.678 -0.2813 -0.1185 -0.1026
 2796DOPG   C1A55409  24.975  19.984  17.291 -0.2450 -0.3830  0.1048
 2796DOPG   D2A55410  25.353  19.653  17.225  0.0476 -0.1957 -0.0992
 2796DOPG   C3A55411  25.301  19.243  16.942 -0.1366  0.2182 -0.0275
 2796DOPG   C4A55412  25.659  18.994  16.763  0.1172  0.0885  0.0676
 2796DOPG   C1B55413  24.648  20.494  17.225 -0.3261  0.5830  0.1777
 2796DOPG   D2B55414  24.970  20.263  16.807  0.2060 -0.0721 -0.1607
 2796DOPG   C3B55415  25.374  20.142  16.959 -0.0633  0.1497 -0.0434
 2796DOPG   C4B55416  25.733  19.906  17.021 -0.0794  0.0982  0.1786
 2797DOPG   GL055417  24.596  18.166  18.910 -0.4051  0.2860 -0.3041
 2797DOPG   PO455418  24.649  17.860  18.650 -0.0234  0.5025  0.2331
 2797DOPG   GL155419  24.865  17.552  18.883  0.0901  0.3655  0.1423
 2797DOPG   GL255420  25.197  17.536  19.043  0.1902  0.0541 -0.1257
 2797DOPG   C1A55421  24.903  17.095  18.988 -0.0854  0.0605  0.3089
 2797DOPG   D2A55422  25.275  16.871  18.920 -0.1514  0.0437 -0.3004
 2797DOPG   C3A55423  25.596  17.150  19.048 -0.1945  0.1816  0.2682
 2797DOPG   C4A55424  25.748  17.589  18.997  0.1084  0.0483  0.0861
 2797DOPG   C1B55425  25.414  17.480  19.387  0.1498 -0.1095  0.0846
 2797DOPG   D2B55426  25.669  17.144  19.600 -0.5997 -0.2284 -0.0653
 2797DOPG   C3B55427  25.937  16.878  19.301 -0.1960 -0.0664  0.1372
 2797DOPG   C4B55428  25.832  16.570  18.958 -0.4228 -0.2484 -0.1690
 2798DOPG   GL055429   3.486  19.445  17.316  0.3813  0.1574 -0.2458
 2798DOPG   PO455430   3.518  18.924  17.095  0.3813  0.3412 -0.1477
 2798DOPG   GL155431   3.715  18.557  16.993  0.0029 -0.0698  0.1853
 2798DOPG   GL255432   3.999  18.512  17.105 -0.2097 -0.1503  0.0700
 2798DOPG   C1A55433   3.901  18.234  16.653 -0.1749 -0.0837  0.1312
 2798DOPG   D2A55434   4.257  18.065  16.441  0.0203 -0.0412 -0.1446
 2798DOPG   C3A55435   4.762  18.163  16.650 -0.0506  0.1280  0.0027
 2798DOPG   C4A55436   5.013  18.298  17.017 -0.2953 -0.2257  0.1488
 2798DOPG   C1B55437   4.367  18.270  16.959  0.1487  0.0619  0.1345
 2798DOPG   D2B55438   4.686  17.934  17.161  0.1867  0.0796  0.0521
 2798DOPG   C3B55439   5.009  17.784  16.863  0.1258 -0.1549  0.2694
 2798DOPG   C4B55440   5.348  17.950  16.613 -0.1437  0.0422 -0.0031
 2799DOPG   GL055441   6.468  16.112  14.565  0.0356 -0.1399  0.0480
 2799DOPG   PO455442   6.325  16.084  15.021 -0.1767 -0.2483 -0.0504
 2799DOPG   GL155443   6.539  16.170  15.388 -0.2829  0.1916  0.1815
 2799DOPG   GL255444   6.618  15.849  15.430 -0.0204  0.2076 -0.0702
 2799DOPG   C1A55445   7.009  16.167  15.471 -0.0478  0.0184  0.3148
 2799DOPG   D2A55446   7.192  16.438  15.771 -0.5362 -0.0671  0.0644
 2799DOPG   C3A55447   7.413  16.850  15.684  0.2819  0.0863 -0.0104
 2799DOPG   C4A55448   7.547  17.155  15.873 -0.0424 -0.0759 -0.0988
 2799DOPG   C1B55449   6.843  15.792  15.755  0.0538 -0.1740  0.2642
 2799DOPG   D2B55450   6.988  15.940  16.162  0.1396 -0.0374 -0.0171
 2799DOPG   C3B55451   7.362  16.011  16.212 -0.2137  0.3945 -0.2864
 2799DOPG   C4B55452   7.746  16.029  15.986 -0.1005  0.1956 -0.3563
 2800DOPG   GL055453   5.380  13.363  16.309  0.2650  0.1982 -0.0814
 2800DOPG   PO455454   5.287  13.696  15.930  0.1086  0.2168  0.1037
 2800DOPG   GL155455   5.713  13.793  15.983  0.1233 -0.4960  0.2610
 2800DOPG   GL255456   5.723  13.431  16.015 -0.0098  0.0053  0.2581
 2800DOPG   C1A55457   6.071  13.851  15.777 -0.2551  0.0807 -0.1470
 2800DOPG   D2A55458   6.496  13.643  15.919  0.1771 -0.0042  0.2803
 2800DOPG   C3A55459   6.798  13.974  16.027 -0.4054 -0.0053  0.0594
 2800DOPG   C4A55460   6.673  14.405  16.158 -0.1391 -0.4766 -0.1022
 2800DOPG   C1B55461   6.136  13.485  16.179 -0.2442 -0.2800  0.3457
 2800DOPG   D2B55462   6.435  13.592  16.475  0.1199  0.0032 -0.0009
 2800DOPG   C3B55463   6.655  13.288  16.629  0.2178 -0.1444 -0.1729
 2800DOPG   C4B55464   6.726  13.157  17.094 -0.0420 -0.0203  0.0394
 2801DOPG   GL055465   6.248  14.476  14.997 -0.3726  0.0095 -0.2028
 2801DOPG   PO455466   6.659  14.720  14.769  0.0812  0.4108 -0.2702
 2801DOPG   GL155467   6.804  14.831  15.122  0.0858  0.0455 -0.3651
 2801DOPG   GL255468   6.576  14.720  15.340  0.1083  0.2498  0.1842
 2801DOPG   C1A55469   6.980  14.679  15.615  0.2645 -0.3136 -0.2136
 2801DOPG   D2A55470   6.969  14.810  16.051 -0.1460  0.0094 -0.1304
 2801DOPG   C3A55471   6.622  14.928  16.212  0.2964  0.0291 -0.0013
 2801DOPG   C4A55472   6.241  14.727  16.412 -0.2471 -0.2620 -0.1782
 2801DOPG   C1B55473   6.435  14.829  15.755 -0.0485  0.1334  0.0458
 2801DOPG   D2B55474   6.172  15.066  15.946  0.2876  0.2909 -0.1046
 2801DOPG   C3B55475   6.319  15.410  16.194  0.0847 -0.0964 -0.4100
 2801DOPG   C4B55476   6.406  15.227  16.523 -0.1709  0.2746  0.0071
 2802DOPG   GL055477   5.349  12.661  16.089 -0.0686 -0.0741 -0.0939
 2802DOPG   PO455478   5.336  12.836  16.386  0.2323 -0.0817 -0.1592
 2802DOPG   GL155479   5.641  12.515  16.576  0.1132  0.3326  0.0225
 2802DOPG   GL255480   5.588  12.485  16.995 -0.0450  0.0442 -0.0076
 2802DOPG   C1A55481   6.087  12.614  16.416  0.0849  0.1793 -0.0544
 2802DOPG   D2A55482   6.232  13.046  16.484  0.0797  0.0176 -0.1033
 2802DOPG   C3A55483   5.886  13.431  16.599 -0.1336 -0.1132 -0.0610
 2802DOPG   C4A55484   5.899  13.820  16.581 -0.3222  0.2584 -0.1135
 2802DOPG   C1B55485   5.842  12.878  17.234  0.3845 -0.0303  0.0843
 2802DOPG   D2B55486   5.785  13.323  17.555 -0.1214 -0.1937  0.2961
 2802DOPG   C3B55487   6.102  13.608  17.299 -0.4059 -0.0069 -0.2402
 2802DOPG   C4B55488   6.276  13.561  16.959 -0.0198 -0.0678 -0.0764
 2803DOPG   GL055489   3.649  20.072  14.825 -0.1696 -0.0639  0.2777
 2803DOPG   PO455490   3.999  19.889  14.611 -0.0627  0.1906 -0.1208
 2803DOPG   GL155491   4.255  19.531  14.430  0.0750  0.1647  0.0894
 2803DOPG   GL255492   4.497  19.730  14.497  0.1497 -0.1322 -0.0478
 2803DOPG   C1A55493   4.425  19.222  14.139 -0.2943 -0.0347 -0.0428
 2803DOPG   D2A55494   4.740  19.014  13.860  0.1353 -0.0010 -0.0416
 2803DOPG   C3A55495   5.008  19.260  13.568 -0.0736 -0.0886 -0.0215
 2803DOPG   C4A55496   5.243  19.213  13.268 -0.2626  0.1780  0.1809
 2803DOPG   C1B55497   4.730  19.400  14.584 -0.0336  0.2436 -0.1746
 2803DOPG   D2B55498   5.089  19.261  14.785 -0.1862  0.1052  0.0846
 2803DOPG   C3B55499   5.285  18.993  15.248  0.1506  0.0208 -0.2433
 2803DOPG   C4B55500   5.468  18.755  15.640 -0.1096  0.4342  0.0013
 2804DOPG   GL055501   5.557  14.018  15.612  0.0663 -0.3357  0.3071
 2804DOPG   PO455502   5.551  14.317  15.311 -0.1541  0.1624 -0.3138
 2804DOPG   GL155503   5.894  14.350  15.498 -0.2281 -0.1028 -0.3493
 2804DOPG   GL255504   6.071  14.201  15.363 -0.3006 -0.3768 -0.2288
 2804DOPG   C1A55505   5.964  14.370  15.987 -0.1785 -0.0501  0.1908
 2804DOPG   D2A55506   5.960  14.278  16.410 -0.0763 -0.3174  0.0052
 2804DOPG   C3A55507   5.717  14.329  16.768 -0.3590 -0.0457 -0.0287
 2804DOPG   C4A55508   5.580  14.516  17.151  0.1974 -0.3110 -0.0884
 2804DOPG   C1B55509   6.363  14.262  15.759 -0.4289 -0.0307  0.3879
 2804DOPG   D2B55510   6.337  14.008  16.207  0.3551  0.0081  0.0678
 2804DOPG   C3B55511   6.624  14.064  16.531 -0.0278 -0.0847 -0.0506
 2804DOPG   C4B55512   6.789  13.772  16.773  0.1279 -0.3594  0.0091
 2805DOPG   GL055513   4.941  15.492  17.730 -0.3193  0.0473 -0.0702
 2805DOPG   PO455514   5.333  15.387  17.519 -0.1534  0.0493 -0.1043
 2805DOPG   GL155515   5.494  15.887  17.596  0.2187 -0.1193 -0.0449
 2805DOPG   GL255516   5.297  16.081  17.505 -0.2489 -0.1178 -0.0560
 2805DOPG   C1A55517   5.662  16.228  17.851  0.0661  0.1623 -0.0534
 2805DOPG   D2A55518   5.664  16.490  18.242  0.1712  0.1288  0.0075
 2805DOPG   C3A55519   5.788  16.908  18.228  0.3443 -0.0015  0.3325
 2805DOPG   C4A55520   5.822  17.431  17.961 -0.1795  0.2758 -0.1191
 2805DOPG   C1B55521   5.404  16.409  17.319  0.0588 -0.2028 -0.2764
 2805DOPG   D2B55522   5.524  16.809  17.104 -0.0237 -0.0446  0.1954
 2805DOPG   C3B55523   5.185  17.070  16.993  0.0465  0.1241  0.1309
 2805DOPG   C4B55524   4.723  17.144  16.911  0.2361  0.1613  0.1451
 2806DOPG   GL055525   5.984  16.515  15.037 -0.0856  0.1017  0.0799
 2806DOPG   PO455526   6.200  16.498  15.389 -0.1907  0.2835 -0.1714
 2806DOPG   GL155527   6.087  16.993  15.495  0.0100 -0.0127 -0.0856
 2806DOPG   GL255528   5.779  17.064  15.652  0.0191  0.1605  0.0716
 2806DOPG   C1A55529   6.509  17.124  15.578 -0.2331 -0.3307 -0.0627
 2806DOPG   D2A55530   6.857  17.238  15.266  0.1504  0.0658 -0.2688
 2806DOPG   C3A55531   7.234  16.894  15.218  0.0268  0.2796  0.2555
 2806DOPG   C4A55532   7.323  16.509  15.270  0.0655 -0.1238 -0.0487
 2806DOPG   C1B55533   5.800  17.524  15.692  0.1757 -0.1504 -0.2276
 2806DOPG   D2B55534   5.870  17.787  15.946  0.1854  0.0579  0.1234
 2806DOPG   C3B55535   5.738  17.903  16.324  0.3390 -0.0099 -0.0934
 2806DOPG   C4B55536   5.616  18.344  16.380 -0.3562 -0.2453  0.2069
 2807DOPG   GL055537   3.896  19.054  15.738 -0.1545  0.1926  0.1230
 2807DOPG   PO455538   3.542  19.014  16.102 -0.2980  0.2691 -0.2105
 2807DOPG   GL155539   4.013  18.893  16.172 -0.4643  0.1393 -0.2015
 2807DOPG   GL255540   3.908  18.559  16.238 -0.0360 -0.2207  0.1346
 2807DOPG   C1A55541   4.319  18.616  16.043  0.1471  0.0637 -0.2094
 2807DOPG   D2A55542   4.508  18.304  15.788 -0.2451  0.1869 -0.1085
 2807DOPG   C3A55543   4.627  18.258  15.328  0.0218 -0.1179  0.1429
 2807DOPG   C4A55544   4.838  18.076  14.973  0.0544 -0.1611 -0.3985
 2807DOPG   C1B55545   3.940  18.269  15.992  0.1986  0.2314  0.1394
 2807DOPG   D2B55546   4.111  17.943  15.954 -0.1769  0.2722 -0.3166
 2807DOPG   C3B55547   4.556  17.845  15.997  0.0821  0.0231 -0.2667
 2807DOPG   C4B55548   4.988  17.697  16.283  0.3919 -0.1239  0.0094
 2808DOPG   GL055549   4.389  21.325  21.101 -0.1391  0.3752  0.1911
 2808DOPG   PO455550   4.173  20.987  21.310  0.1200 -0.3289  0.1693
 2808DOPG   GL155551   4.562  20.859  21.374 -0.0910  0.1207  0.0405
 2808DOPG   GL255552   4.846  21.118  21.337  0.1540  0.0250  0.4113
 2808DOPG   C1A55553   4.996  20.645  21.304  0.1862 -0.0590  0.1480
 2808DOPG   D2A55554   5.499  20.682  21.344  0.1639 -0.0106 -0.1965
 2808DOPG   C3A55555   5.708  20.749  20.934 -0.0681 -0.0695  0.1427
 2808DOPG   C4A55556   5.945  20.783  20.574  0.1700 -0.0856  0.3730
 2808DOPG   C1B55557   5.023  20.870  21.725 -0.0251 -0.0101  0.0146
 2808DOPG   D2B55558   5.393  20.553  21.860  0.0801 -0.0915 -0.2694
 2808DOPG   C3B55559   5.555  20.243  21.573  0.1305  0.1798 -0.2657
 2808DOPG   C4B55560   5.854  20.230  21.221  0.1057 -0.1726  0.2975
 2809DOPG   GL055561   5.852  15.531  15.852  0.1104  0.0027 -0.1164
 2809DOPG   PO455562   5.649  15.910  15.754  0.1266  0.3933 -0.2066
 2809DOPG   GL155563   5.647  16.334  16.050 -0.1311  0.0425 -0.0610
 2809DOPG   GL255564   5.864  16.648  15.919  0.0771 -0.2659  0.0265
 2809DOPG   C1A55565   6.061  16.333  16.236 -0.0250  0.0780  0.1869
 2809DOPG   D2A55566   6.386  16.370  16.587 -0.0862  0.2639 -0.0264
 2809DOPG   C3A55567   6.797  16.236  16.442 -0.1214  0.2046 -0.0907
 2809DOPG   C4A55568   7.075  16.372  16.787 -0.0511  0.0920 -0.0511
 2809DOPG   C1B55569   6.174  16.936  15.937 -0.0293  0.0003 -0.0444
 2809DOPG   D2B55570   6.178  17.317  15.957  0.2573 -0.1382  0.1496
 2809DOPG   C3B55571   6.468  17.587  16.170  0.0017 -0.0608  0.6230
 2809DOPG   C4B55572   6.965  17.737  16.273 -0.3276 -0.1416  0.0377
 2810DOPG   GL055573   5.305  13.122  15.913  0.0483  0.7362 -0.0120
 2810DOPG   PO455574   5.532  12.903  15.669 -0.0315  0.1945  0.1263
 2810DOPG   GL155575   5.821  13.067  15.717  0.1593 -0.4189  0.2949
 2810DOPG   GL255576   6.013  12.922  15.373 -0.0416 -0.3516  0.1874
 2810DOPG   C1A55577   6.197  13.031  15.983  0.1360  0.0586  0.0721
 2810DOPG   D2A55578   6.578  13.106  16.152 -0.1401 -0.1086 -0.3943
 2810DOPG   C3A55579   6.956  12.849  16.305  0.1526  0.1972 -0.1941
 2810DOPG   C4A55580   7.020  12.970  16.739 -0.2511 -0.2905 -0.0307
 2810DOPG   C1B55581   6.429  13.015  15.154  0.0465 -0.4589 -0.1650
 2810DOPG   D2B55582   6.866  13.030  14.919 -0.0879  0.0417 -0.2091
 2810DOPG   C3B55583   7.294  13.237  15.073 -0.2441  0.0615 -0.3969
 2810DOPG   C4B55584   7.697  13.002  15.261 -0.0621 -0.5207  0.2828
 2811DOPG   GL055585   4.914  15.755  15.789  0.4153  0.1044 -0.4301
 2811DOPG   PO455586   4.618  15.983  16.007  0.3042 -0.2044 -0.0724
 2811DOPG   GL155587   4.768  16.384  16.033  0.1146 -0.2946  0.0650
 2811DOPG   GL255588   5.060  16.479  16.201 -0.0222 -0.0131  0.1967
 2811DOPG   C1A55589   4.659  16.781  15.997  0.1101 -0.0448  0.0631
 2811DOPG   D2A55590   4.987  17.143  15.979  0.2632 -0.0033  0.0941
 2811DOPG   C3A55591   4.891  17.560  15.763  0.0220 -0.2136 -0.0301
 2811DOPG   C4A55592   4.889  17.980  15.676 -0.2929  0.0203 -0.0129
 2811DOPG   C1B55593   5.168  16.884  16.417 -0.0990  0.0568  0.0712
 2811DOPG   D2B55594   5.226  17.311  16.506 -0.0030 -0.0670 -0.0815
 2811DOPG   C3B55595   5.611  17.487  16.535 -0.3796 -0.0490 -0.0025
 2811DOPG   C4B55596   6.012  17.516  16.419  0.2112  0.2556 -0.0673
 2812DOPG   GL055597   5.710  15.943  16.402 -0.4324 -0.0955 -0.0443
 2812DOPG   PO455598   5.370  16.161  16.576 -0.0505  0.1299 -0.3941
 2812DOPG   GL155599   5.548  16.433  16.691 -0.2292 -0.2434  0.2661
 2812DOPG   GL255600   5.638  16.624  16.452 -0.0243 -0.1046 -0.1777
 2812DOPG   C1A55601   5.980  16.580  16.900  0.1222  0.1206  0.1394
 2812DOPG   D2A55602   6.422  16.666  16.946 -0.0766  0.3138 -0.2076
 2812DOPG   C3A55603   6.834  16.782  17.186  0.1418 -0.0743  0.2836
 2812DOPG   C4A55604   6.859  17.006  17.570 -0.6691  0.0756  0.2782
 2812DOPG   C1B55605   6.148  16.811  16.437 -0.0669  0.1726  0.0087
 2812DOPG   D2B55606   6.397  17.092  16.738 -0.2728 -0.2150  0.1367
 2812DOPG   C3B55607   6.418  17.091  17.261  0.1490 -0.0980  0.1893
 2812DOPG   C4B55608   6.237  16.875  17.484 -0.3081 -0.1487 -0.0892
 2813DOPG   GL055609   5.042  12.221  15.932 -0.1553 -0.1553  0.1467
 2813DOPG   PO455610   5.376  12.110  16.216  0.1431  0.1844 -0.1625
 2813DOPG   GL155611   5.846  12.162  16.255  0.1694 -0.1192  0.0010
 2813DOPG   GL255612   5.976  12.064  16.533  0.0443  0.1101 -0.0424
 2813DOPG   C1A55613   6.219  12.085  16.104 -0.0468 -0.2009  0.1280
 2813DOPG   D2A55614   6.381  11.799  15.844  0.0571  0.4181  0.0395
 2813DOPG   C3A55615   6.212  11.634  15.483  0.1256 -0.3416  0.0764
 2813DOPG   C4A55616   6.434  11.419  15.160 -0.1891 -0.1656  0.0309
 2813DOPG   C1B55617   6.349  12.202  16.564 -0.0198 -0.1466 -0.1054
 2813DOPG   D2B55618   6.772  12.397  16.477 -0.0205 -0.3184 -0.0780
 2813DOPG   C3B55619   7.073  12.186  16.417  0.2706 -0.0536 -0.2212
 2813DOPG   C4B55620   7.411  11.961  16.521  0.0252  0.1316 -0.0992
 2814DOPG   GL055621   7.082  17.328  14.344  0.0425 -0.0762 -0.0722
 2814DOPG   PO455622   6.879  17.473  14.731 -0.2212 -0.3915 -0.1577
 2814DOPG   GL155623   6.642  17.828  14.765 -0.0227 -0.1956  0.4329
 2814DOPG   GL255624   6.291  17.697  14.683  0.0357  0.1486  0.3017
 2814DOPG   C1A55625   6.834  18.200  14.800  0.1141  0.3077  0.0319
 2814DOPG   D2A55626   6.679  18.597  15.079  0.3742  0.2370  0.2846
 2814DOPG   C3A55627   6.925  18.937  14.899  0.0629  0.1820  0.0329
 2814DOPG   C4A55628   6.785  19.267  14.661 -0.1991 -0.6092 -0.1033
 2814DOPG   C1B55629   6.248  18.033  14.884 -0.3151  0.0778 -0.3702
 2814DOPG   D2B55630   6.212  18.340  15.179 -0.0872 -0.1338 -0.0168
 2814DOPG   C3B55631   6.278  18.179  15.562 -0.0544  0.1016  0.1301
 2814DOPG   C4B55632   6.321  17.703  15.681  0.1791 -0.1690  0.2354
 2815DOPG   GL055633   4.962  16.656  15.688  0.1029 -0.1194  0.1501
 2815DOPG   PO455634   5.310  16.684  15.807 -0.0535  0.1199 -0.0620
 2815DOPG   GL155635   5.452  17.062  15.977 -0.1788  0.2919  0.0351
 2815DOPG   GL255636   5.658  17.071  16.181  0.0419 -0.1433 -0.0467
 2815DOPG   C1A55637   5.403  17.506  16.036 -0.4712 -0.1783 -0.2048
 2815DOPG   D2A55638   5.319  17.885  15.874 -0.2332  0.0614  0.1628
 2815DOPG   C3A55639   5.557  17.907  15.515 -0.0893  0.2826 -0.2560
 2815DOPG   C4A55640   5.923  17.998  15.303 -0.4194  0.2145 -0.0166
 2815DOPG   C1B55641   5.752  17.068  16.672 -0.1132 -0.1524 -0.3076
 2815DOPG   D2B55642   5.961  17.082  17.046  0.2752  0.1639 -0.1595
 2815DOPG   C3B55643   6.154  17.498  17.022  0.5044  0.1227 -0.4050
 2815DOPG   C4B55644   6.121  17.941  17.421 -0.2626  0.2380 -0.0249
 2816DOPG   GL055645   7.357  19.639  17.664  0.2668  0.1508  0.2179
 2816DOPG   PO455646   7.063  19.545  17.288 -0.0952 -0.0133  0.0627
 2816DOPG   GL155647   6.876  19.170  17.442 -0.0325  0.3063 -0.0605
 2816DOPG   GL255648   6.980  18.950  17.116 -0.0465 -0.0677 -0.0442
 2816DOPG   C1A55649   6.690  18.924  17.634 -0.3071  0.0636  0.0412
 2816DOPG   D2A55650   6.757  18.464  17.775  0.2169  0.1172 -0.1993
 2816DOPG   C3A55651   6.662  18.350  18.060 -0.0155 -0.1637 -0.3188
 2816DOPG   C4A55652   6.271  18.132  18.289 -0.0000  0.0725 -0.1377
 2816DOPG   C1B55653   6.687  18.951  16.759 -0.3035 -0.0824 -0.3156
 2816DOPG   D2B55654   6.664  18.783  16.346  0.2540  0.2062  0.1244
 2816DOPG   C3B55655   6.726  19.080  16.024 -0.1864 -0.2374  0.0836
 2816DOPG   C4B55656   6.929  19.344  15.747  0.3315 -0.0460  0.1641
 2817DOPG   GL055657   9.155  14.922  17.769 -0.0572 -0.0828 -0.1111
 2817DOPG   PO455658   8.897  15.312  17.829 -0.0528  0.1277 -0.3951
 2817DOPG   GL155659   8.373  15.311  17.932  0.1947  0.3879 -0.1619
 2817DOPG   GL255660   8.159  15.071  17.974 -0.1436 -0.3473  0.2356
 2817DOPG   C1A55661   8.022  15.465  18.253  0.0514  0.0116  0.1408
 2817DOPG   D2A55662   7.533  15.611  18.214  0.2230 -0.0005 -0.1825
 2817DOPG   C3A55663   7.374  15.895  18.496  0.0546  0.3186  0.4103
 2817DOPG   C4A55664   6.984  15.900  18.589 -0.0980  0.1718  0.0887
 2817DOPG   C1B55665   7.793  15.423  17.782 -0.0177  0.0360 -0.0674
 2817DOPG   D2B55666   7.564  15.891  17.694  0.3309  0.0179 -0.0903
 2817DOPG   C3B55667   7.228  16.003  17.508  0.2551 -0.2035  0.1216
 2817DOPG   C4B55668   7.009  16.344  17.293 -0.1072  0.0625 -0.0600
 2818DOPG   GL055669   6.165  20.934  16.653 -0.3192 -0.0509  0.2499
 2818DOPG   PO455670   5.858  20.637  16.636 -0.0722  0.1474  0.0608
 2818DOPG   GL155671   5.640  20.338  16.492  0.1106 -0.1240  0.0830
 2818DOPG   GL255672   5.444  20.215  16.318  0.0872  0.1309 -0.0269
 2818DOPG   C1A55673   5.854  19.974  16.343 -0.1422 -0.0831 -0.0628
 2818DOPG   D2A55674   6.224  19.869  16.093 -0.0737  0.0487 -0.0674
 2818DOPG   C3A55675   6.389  20.283  15.998  0.1244  0.1125  0.1003
 2818DOPG   C4A55676   6.744  20.547  15.827  0.0773 -0.0316 -0.0581
 2818DOPG   C1B55677   5.340  19.809  16.364  0.3630 -0.0253 -0.2263
 2818DOPG   D2B55678   5.109  19.521  16.232 -0.0288 -0.1459  0.1413
 2818DOPG   C3B55679   5.320  19.270  16.579  0.2971 -0.1976 -0.1342
 2818DOPG   C4B55680   5.585  18.856  16.517 -0.1839  0.0613  0.1241
 2819DOPG   GL055681   3.762  19.907  17.765 -0.2973  0.0668 -0.2276
 2819DOPG   PO455682   4.162  19.692  18.018 -0.1927 -0.1821 -0.2135
 2819DOPG   GL155683   4.332  19.321  18.143  0.0951 -0.0718 -0.0345
 2819DOPG   GL255684   4.720  19.471  18.202 -0.0184  0.0473 -0.2371
 2819DOPG   C1A55685   4.592  19.056  18.404 -0.0473 -0.0996 -0.2575
 2819DOPG   D2A55686   5.025  18.860  18.368 -0.3045  0.1807 -0.1203
 2819DOPG   C3A55687   5.120  18.526  18.612 -0.4203  0.3071 -0.2011
 2819DOPG   C4A55688   5.107  18.222  18.864 -0.0336  0.3580 -0.1620
 2819DOPG   C1B55689   4.952  19.171  17.989  0.2065  0.1720  0.0453
 2819DOPG   D2B55690   5.076  18.694  17.887 -0.1016  0.3181 -0.2254
 2819DOPG   C3B55691   5.142  18.305  18.109  0.1269  0.0388 -0.1039
 2819DOPG   C4B55692   5.106  18.003  18.431  0.0349 -0.2896 -0.1185
 2820DOPG   GL055693   8.246  18.126  17.148 -0.0213  0.0748 -0.1131
 2820DOPG   PO455694   7.931  18.161  17.390 -0.2585  0.0789  0.0611
 2820DOPG   GL155695   7.580  17.960  17.263  0.0823 -0.0133  0.2989
 2820DOPG   GL255696   7.319  18.122  17.129 -0.0081 -0.0920 -0.1703
 2820DOPG   C1A55697   7.354  17.662  16.952 -0.1970  0.2069  0.3248
 2820DOPG   D2A55698   6.910  17.557  16.703  0.3935 -0.5624 -0.0359
 2820DOPG   C3A55699   6.777  17.303  16.440  0.0766  0.1002 -0.0728
 2820DOPG   C4A55700   6.682  17.045  16.039 -0.0184 -0.3227 -0.1941
 2820DOPG   C1B55701   6.931  17.906  17.098  0.1908 -0.0558 -0.2173
 2820DOPG   D2B55702   6.500  17.829  17.007  0.0337  0.2964 -0.0743
 2820DOPG   C3B55703   6.439  17.682  16.659  0.0848 -0.1795  0.0091
 2820DOPG   C4B55704   6.230  17.964  16.456  0.1884  0.2011  0.4406
 2821DOPG   GL055705   8.893  13.463  16.047 -0.2973  0.3644 -0.2085
 2821DOPG   PO455706   8.841  13.817  15.925 -0.1867 -0.0110 -0.1493
 2821DOPG   GL155707   8.706  14.131  15.679 -0.1213 -0.0825 -0.0499
 2821DOPG   GL255708   8.379  14.003  15.823  0.1031  0.5294  0.1032
 2821DOPG   C1A55709   8.577  14.108  15.324 -0.1469 -0.1980 -0.0872
 2821DOPG   D2A55710   8.125  14.242  15.306 -0.1560  0.1618  0.0878
 2821DOPG   C3A55711   7.752  14.486  15.456  0.1730  0.3876 -0.0585
 2821DOPG   C4A55712   7.472  14.808  15.345  0.2424  0.2069 -0.0884
 2821DOPG   C1B55713   8.141  13.656  15.923 -0.3928  0.2735  0.0953
 2821DOPG   D2B55714   7.860  13.334  16.008 -0.1012  0.1419  0.2470
 2821DOPG   C3B55715   7.693  13.053  15.725  0.3441  0.2812 -0.1126
 2821DOPG   C4B55716   7.667  12.624  15.617  0.1594 -0.1295  0.1383
 2822DOPG   GL055717   9.324  17.598  16.807 -0.0985  0.1445  0.1799
 2822DOPG   PO455718   9.001  17.417  16.639 -0.0338 -0.2146 -0.1973
 2822DOPG   GL155719   9.016  17.206  16.308 -0.2120  0.0698 -0.1093
 2822DOPG   GL255720   8.746  17.016  16.435  0.2905 -0.2746 -0.0533
 2822DOPG   C1A55721   8.838  17.064  15.966 -0.3311  0.0479 -0.0433
 2822DOPG   D2A55722   8.722  16.929  15.571 -0.0726 -0.2287  0.3097
 2822DOPG   C3A55723   8.448  17.087  15.279 -0.1606  0.1958 -0.1837
 2822DOPG   C4A55724   8.075  17.205  15.119  0.2362  0.1714  0.3115
 2822DOPG   C1B55725   8.374  17.029  16.173  0.2077  0.1607 -0.0994
 2822DOPG   D2B55726   8.441  17.430  15.883 -0.1313 -0.2220  0.0080
 2822DOPG   C3B55727   8.789  17.464  15.625  0.4902 -0.0599  0.3229
 2822DOPG   C4B55728   8.953  17.336  15.189  0.0774 -0.2415  0.1520
 2823DOPG   GL055729   4.211  19.888  15.721 -0.0723  0.0028  0.0705
 2823DOPG   PO455730   4.199  19.455  15.942 -0.0034  0.0914  0.1583
 2823DOPG   GL155731   4.557  19.148  16.026  0.1589  0.2000  0.0299
 2823DOPG   GL255732   4.720  19.267  15.639 -0.3092  0.1606 -0.0484
 2823DOPG   C1A55733   5.038  19.017  16.224 -0.0354 -0.2482  0.1505
 2823DOPG   D2A55734   5.300  18.686  16.084 -0.1015 -0.2448  0.1703
 2823DOPG   C3A55735   5.196  18.346  15.784 -0.2177 -0.0680 -0.2078
 2823DOPG   C4A55736   5.153  18.236  15.333 -0.1380 -0.1808 -0.0844
 2823DOPG   C1B55737   5.076  19.316  15.753  0.1720  0.1276 -0.4588
 2823DOPG   D2B55738   5.508  19.213  16.045  0.2351  0.1134 -0.1730
 2823DOPG   C3B55739   5.779  19.391  16.393  0.1197  0.1438 -0.0196
 2823DOPG   C4B55740   6.175  19.443  16.650 -0.3052 -0.0860  0.0520
 2824DOPG   GL055741   8.992  17.004  17.102  0.0246  0.2572 -0.0868
 2824DOPG   PO455742   8.624  17.140  16.888  0.0263  0.2803  0.1540
 2824DOPG   GL155743   8.190  17.216  16.585  0.0936 -0.2348 -0.2317
 2824DOPG   GL255744   7.882  17.361  16.729  0.1739  0.2835  0.1542
 2824DOPG   C1A55745   7.845  17.015  16.248  0.4586  0.2970  0.4365
 2824DOPG   D2A55746   7.635  16.558  16.063 -0.3058 -0.3097  0.0590
 2824DOPG   C3A55747   7.743  16.473  15.646 -0.1076 -0.0534 -0.3672
 2824DOPG   C4A55748   7.796  16.831  15.364  0.0357 -0.0529 -0.3551
 2824DOPG   C1B55749   7.459  17.192  16.845  0.3414 -0.1505 -0.3282
 2824DOPG   D2B55750   6.995  17.036  16.812  0.1085 -0.1350  0.1409
 2824DOPG   C3B55751   6.726  16.737  16.519 -0.1372 -0.3591 -0.3521
 2824DOPG   C4B55752   6.479  16.586  16.083  0.1402 -0.0634  0.0445
 2825DOPG   GL055753   8.649  15.355  17.329  0.2402 -0.2105 -0.0267
 2825DOPG   PO455754   8.476  15.657  17.016  0.4370 -0.3636  0.0045
 2825DOPG   GL155755   8.006  15.488  16.963  0.1017 -0.1402 -0.0647
 2825DOPG   GL255756   8.078  15.484  17.277  0.1338  0.1492  0.2264
 2825DOPG   C1A55757   7.658  15.653  16.744  0.0399  0.3736 -0.2841
 2825DOPG   D2A55758   7.256  15.884  16.725  0.3076  0.0165 -0.3290
 2825DOPG   C3A55759   6.917  15.648  16.670 -0.1088 -0.1277 -0.0277
 2825DOPG   C4A55760   6.517  15.553  16.972 -0.0926  0.0202 -0.2011
 2825DOPG   C1B55761   7.905  15.891  17.203  0.0458  0.0120 -0.1150
 2825DOPG   D2B55762   7.534  15.980  17.077 -0.0145 -0.1192 -0.1808
 2825DOPG   C3B55763   7.505  16.328  17.036  0.2298  0.2226  0.2652
 2825DOPG   C4B55764   7.372  16.714  17.113 -0.0344 -0.0484 -0.1634
 2826DOPG   GL055765   9.249  12.340  17.300  0.2512 -0.0551 -0.3562
 2826DOPG   PO455766   9.286  12.631  17.600  0.3360 -0.0451 -0.0103
 2826DOPG   GL155767   8.960  12.276  17.704  0.0764  0.1014 -0.1421
 2826DOPG   GL255768   8.797  12.004  17.549 -0.0004 -0.1029 -0.0633
 2826DOPG   C1A55769   8.467  12.216  17.876 -0.0842 -0.2033  0.1837
 2826DOPG   D2A55770   8.082  12.219  17.743  0.3238 -0.0512 -0.0833
 2826DOPG   C3A55771   7.764  12.345  17.766  0.0936  0.1833  0.0486
 2826DOPG   C4A55772   7.440  12.241  17.468 -0.0183 -0.1488  0.2242
 2826DOPG   C1B55773   8.421  11.816  17.620  0.3496  0.1197 -0.0203
 2826DOPG   D2B55774   8.218  11.818  18.092  0.1444 -0.0488  0.1131
 2826DOPG   C3B55775   8.258  11.339  18.219  0.2423  0.1665 -0.3390
 2826DOPG   C4B55776   8.567  11.064  18.441 -0.0734  0.1161 -0.2308
 2827DOPG   GL055777   8.067  18.409  16.488 -0.1480  0.1964  0.3183
 2827DOPG   PO455778   7.861  18.247  16.860 -0.1445  0.2423  0.0874
 2827DOPG   GL155779   7.672  17.891  16.679  0.1231  0.3230 -0.2673
 2827DOPG   GL255780   7.377  18.036  16.586  0.2448  0.0983  0.0463
 2827DOPG   C1A55781   7.475  17.507  16.456  0.0019  0.0664  0.0583
 2827DOPG   D2A55782   7.217  17.254  16.273 -0.1513  0.3892 -0.0072
 2827DOPG   C3A55783   7.116  16.891  16.188 -0.2008 -0.5137 -0.0117
 2827DOPG   C4A55784   7.159  16.512  16.272 -0.2852  0.1506  0.2711
 2827DOPG   C1B55785   7.290  18.102  16.206 -0.0121  0.3354  0.2383
 2827DOPG   D2B55786   7.341  18.334  15.850  0.2842  0.1634  0.1052
 2827DOPG   C3B55787   7.141  18.177  15.443  0.0024 -0.0898  0.2909
 2827DOPG   C4B55788   6.830  17.927  15.214  0.1290  0.1542 -0.1498
 2828DOPG   GL055789   4.735  20.305  12.852  0.1985  0.0332 -0.1178
 2828DOPG   PO455790   4.593  20.652  13.078 -0.1762  0.0740  0.0197
 2828DOPG   GL155791   4.773  20.454  13.410  0.0917  0.0121  0.2100
 2828DOPG   GL255792   4.904  20.260  13.438  0.0709  0.1837  0.0083
 2828DOPG   C1A55793   5.189  20.780  13.563  0.2361 -0.0653 -0.2099
 2828DOPG   D2A55794   5.754  20.679  13.519  0.3336  0.1808 -0.2226
 2828DOPG   C3A55795   6.093  20.446  13.262 -0.2852 -0.0156  0.1355
 2828DOPG   C4A55796   6.184  20.077  13.224  0.1280 -0.1401 -0.0686
 2828DOPG   C1B55797   5.384  20.311  13.573  0.0225  0.1277  0.1880
 2828DOPG   D2B55798   5.727  19.990  13.468 -0.0092 -0.0756  0.3380
 2828DOPG   C3B55799   5.871  19.808  13.749  0.2041 -0.1654 -0.0106
 2828DOPG   C4B55800   5.914  19.417  13.992  0.0633  0.0901 -0.0870
 2829DOPG   GL055801   8.906  13.821  16.414  0.1364  0.1693 -0.1173
 2829DOPG   PO455802   8.535  13.708  16.387 -0.2501  0.0347 -0.1207
 2829DOPG   GL155803   8.164  13.822  16.456 -0.0090 -0.0648 -0.1663
 2829DOPG   GL255804   7.965  13.560  16.561  0.0515  0.0082 -0.0549
 2829DOPG   C1A55805   7.737  13.819  16.216  0.0130 -0.0924 -0.2905
 2829DOPG   D2A55806   7.531  13.779  15.868 -0.1383  0.1741 -0.0519
 2829DOPG   C3A55807   7.337  14.127  15.612 -0.0912  0.3295  0.1027
 2829DOPG   C4A55808   7.117  14.362  15.241  0.0305  0.0792  0.0835
 2829DOPG   C1B55809   7.725  13.576  16.897  0.2694  0.0843 -0.1733
 2829DOPG   D2B55810   7.264  13.451  16.937  0.0714  0.0002 -0.1783
 2829DOPG   C3B55811   6.990  13.617  17.208  0.2019  0.3260 -0.1012
 2829DOPG   C4B55812   6.789  13.439  17.509 -0.0086  0.0867 -0.2240
 2830DOPG   GL055813   8.213  17.969  16.674 -0.0795 -0.4169  0.0338
 2830DOPG   PO455814   8.110  17.828  16.328  0.2372  0.0517 -0.1262
 2830DOPG   GL155815   8.351  17.999  15.980 -0.1149 -0.2574 -0.5099
 2830DOPG   GL255816   8.267  18.280  15.746 -0.1353 -0.4194  0.0941
 2830DOPG   C1A55817   8.795  18.265  15.946 -0.2930 -0.1998 -0.1284
 2830DOPG   D2A55818   9.148  18.588  15.773 -0.1120  0.0218  0.1207
 2830DOPG   C3A55819   9.549  18.592  15.813  0.0960  0.0077  0.1495
 2830DOPG   C4A55820   9.830  18.523  15.435  0.0050 -0.2644 -0.3761
 2830DOPG   C1B55821   8.477  18.167  15.423 -0.0359 -0.1526 -0.1570
 2830DOPG   D2B55822   8.752  17.926  15.134  0.0258  0.3466  0.1554
 2830DOPG   C3B55823   9.221  18.091  14.932  0.1147 -0.0790 -0.4454
 2830DOPG   C4B55824   9.608  18.330  14.922  0.1275 -0.0545  0.0546
 2831DOPG   GL055825   9.313  12.793  17.116  0.1155 -0.1108 -0.1149
 2831DOPG   PO455826   8.881  12.582  17.073 -0.0483  0.1094 -0.4057
 2831DOPG   GL155827   8.552  12.475  17.394 -0.0045 -0.0878 -0.0152
 2831DOPG   GL255828   8.249  12.423  17.270  0.0311 -0.0933 -0.0139
 2831DOPG   C1A55829   8.340  12.733  17.653  0.4148 -0.0967 -0.1662
 2831DOPG   D2A55830   8.017  12.834  17.957  0.0770  0.0043 -0.3895
 2831DOPG   C3A55831   7.921  13.203  18.106 -0.3310  0.0966 -0.0438
 2831DOPG   C4A55832   8.047  13.548  18.379  0.0792  0.0265  0.2945
 2831DOPG   C1B55833   7.917  12.694  17.409 -0.0016  0.3709  0.0267
 2831DOPG   D2B55834   7.491  12.828  17.509  0.1340 -0.1328  0.0662
 2831DOPG   C3B55835   7.350  12.669  17.846 -0.3279 -0.1182 -0.1040
 2831DOPG   C4B55836   7.572  12.646  18.250  0.1810  0.0609  0.0801
 2832DOPG   GL055837   8.727  16.029  17.912  0.0705  0.0740  0.1132
 2832DOPG   PO455838   8.677  16.304  17.602  0.1008  0.0641 -0.2279
 2832DOPG   GL155839   8.438  16.285  17.244  0.1481  0.4587 -0.2840
 2832DOPG   GL255840   8.291  16.104  17.291  0.0074  0.0093 -0.0490
 2832DOPG   C1A55841   8.163  16.415  16.951  0.1928  0.0638  0.1245
 2832DOPG   D2A55842   7.908  16.049  16.753  0.1994 -0.3274 -0.0392
 2832DOPG   C3A55843   7.646  16.358  16.585  0.1818 -0.1937  0.3297
 2832DOPG   C4A55844   7.491  16.784  16.540 -0.2002 -0.0374  0.1521
 2832DOPG   C1B55845   7.817  16.270  17.429  0.0127  0.1287 -0.1680
 2832DOPG   D2B55846   7.428  16.565  17.636  0.1336  0.1166 -0.0415
 2832DOPG   C3B55847   7.022  16.419  17.826  0.1462 -0.2401  0.1563
 2832DOPG   C4B55848   6.900  16.217  18.162 -0.0190  0.1372  0.0537
 2833DOPG   GL055849   7.647  19.286  16.398 -0.0941 -0.2644 -0.0822
 2833DOPG   PO455850   7.344  19.187  16.384  0.0298 -0.0705 -0.0253
 2833DOPG   GL155851   7.175  18.829  16.292  0.0092 -0.0973  0.0405
 2833DOPG   GL255852   7.415  18.542  16.256  0.2462  0.0099  0.1928
 2833DOPG   C1A55853   6.921  18.419  16.085  0.2895 -0.0580  0.2186
 2833DOPG   D2A55854   6.663  17.997  15.922 -0.0466 -0.0812  0.1649
 2833DOPG   C3A55855   6.815  17.627  15.619  0.1668 -0.2163  0.1376
 2833DOPG   C4A55856   6.989  17.239  15.731  0.3904 -0.0401 -0.0188
 2833DOPG   C1B55857   7.232  18.841  15.829 -0.1905  0.2431  0.0551
 2833DOPG   D2B55858   7.102  18.794  15.352  0.1744 -0.2620  0.0597
 2833DOPG   C3B55859   6.754  18.491  15.524  0.0439  0.3070 -0.0431
 2833DOPG   C4B55860   6.459  18.738  15.803 -0.0735  0.0279  0.0600
 2834DOPG   GL055861   8.872  14.282  16.199 -0.1869  0.2128 -0.0236
 2834DOPG   PO455862   8.470  14.199  16.276  0.0086 -0.0027  0.0875
 2834DOPG   GL155863   8.002  14.304  16.203 -0.0987 -0.0653  0.0001
 2834DOPG   GL255864   7.980  14.512  16.399  0.0575  0.1610 -0.1112
 2834DOPG   C1A55865   7.844  14.173  15.909  0.2101 -0.2318 -0.1783
 2834DOPG   D2A55866   7.912  13.864  15.516 -0.0719 -0.1325  0.0142
 2834DOPG   C3A55867   7.934  13.434  15.470 -0.4109 -0.3571 -0.2383
 2834DOPG   C4A55868   8.074  13.279  15.189 -0.3036  0.1109  0.0894
 2834DOPG   C1B55869   7.646  14.659  16.168  0.0763 -0.0648 -0.0710
 2834DOPG   D2B55870   7.453  14.906  15.932  0.2454  0.2916  0.2289
 2834DOPG   C3B55871   7.255  15.269  16.079 -0.0049 -0.0342  0.0990
 2834DOPG   C4B55872   7.331  15.567  16.318  0.2667  0.0455  0.0789
 2835DOPG   GL055873   9.457  16.421  17.014 -0.0577 -0.0368 -0.0616
 2835DOPG   PO455874   9.478  16.802  17.082  0.2549  0.2451  0.3570
 2835DOPG   GL155875   9.177  16.823  16.634  0.0053  0.1435 -0.1541
 2835DOPG   GL255876   9.457  16.982  16.451 -0.0529 -0.0796 -0.2375
 2835DOPG   C1A55877   9.028  16.631  16.255  0.0787 -0.1396 -0.0824
 2835DOPG   D2A55878   9.055  16.583  15.788 -0.3299 -0.1634  0.0425
 2835DOPG   C3A55879   9.430  16.638  15.511 -0.1500  0.3474 -0.0708
 2835DOPG   C4A55880   9.614  16.258  15.237  0.0491  0.1531  0.0551
 2835DOPG   C1B55881   9.681  17.251  15.993  0.1165  0.0199  0.0770
 2835DOPG   D2B55882   9.747  17.092  15.603 -0.4053 -0.0466  0.0959
 2835DOPG   C3B55883   9.807  17.441  15.326  0.0768  0.0635 -0.0848
 2835DOPG   C4B55884   9.613  17.696  14.901 -0.0263  0.2205  0.4471
 2836DOPG   GL055885  16.837  24.869  16.859 -0.0013  0.0997  0.3412
 2836DOPG   PO455886  17.065  24.559  16.676 -0.1068  0.1142 -0.1773
 2836DOPG   GL155887  16.798  24.168  16.707 -0.0136  0.1961 -0.1015
 2836DOPG   GL255888  16.997  23.725  16.793 -0.1715  0.0961 -0.2227
 2836DOPG   C1A55889  16.401  24.066  16.945  0.0874 -0.3378 -0.1076
 2836DOPG   D2A55890  16.091  23.799  17.112 -0.0311  0.0647  0.0616
 2836DOPG   C3A55891  16.055  23.564  17.415  0.0129  0.2656  0.0881
 2836DOPG   C4A55892  15.926  23.350  17.867 -0.1012 -0.2300  0.0239
 2836DOPG   C1B55893  16.626  23.668  16.755  0.0038  0.1433  0.2031
 2836DOPG   D2B55894  16.291  23.406  16.854  0.1181  0.1113  0.1692
 2836DOPG   C3B55895  16.241  23.068  17.140 -0.0795 -0.0086  0.3184
 2836DOPG   C4B55896  16.575  22.857  17.246 -0.0507  0.1561 -0.1437
 2837DOPG   GL055897  15.867  24.946  16.396 -0.1664 -0.4948  0.0294
 2837DOPG   PO455898  16.017  24.769  16.632  0.0703 -0.1784  0.1674
 2837DOPG   GL155899  16.026  24.365  16.611  0.0288  0.0136  0.5217
 2837DOPG   GL255900  16.321  24.191  16.487 -0.0346  0.0038 -0.1341
 2837DOPG   C1A55901  15.740  24.106  16.959 -0.0861  0.3544  0.0491
 2837DOPG   D2A55902  15.529  23.688  17.014 -0.0124  0.1106  0.1256
 2837DOPG   C3A55903  15.114  23.736  16.846 -0.2272  0.3980 -0.2606
 2837DOPG   C4A55904  14.714  23.679  16.809  0.2904  0.0948 -0.2423
 2837DOPG   C1B55905  16.313  23.781  16.419 -0.3226 -0.0192  0.0713
 2837DOPG   D2B55906  16.556  23.315  16.391  0.2045  0.5170  0.0146
 2837DOPG   C3B55907  16.248  22.983  16.088  0.0313 -0.0484  0.2762
 2837DOPG   C4B55908  15.824  22.950  16.075  0.0521 -0.1932  0.0463
 2838DOPG   GL055909  16.103  20.897  17.592 -0.0129  0.0098  0.1491
 2838DOPG   PO455910  16.199  21.424  17.599 -0.4729 -0.3817 -0.1128
 2838DOPG   GL155911  16.152  21.761  17.516 -0.1643  0.1991  0.1873
 2838DOPG   GL255912  16.254  21.692  17.185  0.1696 -0.0471  0.1028
 2838DOPG   C1A55913  16.208  22.124  17.474  0.0834  0.2414  0.3387
 2838DOPG   D2A55914  16.059  22.513  17.366 -0.0189 -0.1948  0.2634
 2838DOPG   C3A55915  15.683  22.657  17.530  0.2079 -0.0245 -0.1521
 2838DOPG   C4A55916  15.293  22.899  17.500 -0.1804 -0.0377 -0.0683
 2838DOPG   C1B55917  16.345  21.866  16.743  0.3604  0.1286 -0.0848
 2838DOPG   D2B55918  16.501  22.273  16.418 -0.3730 -0.1327  0.2580
 2838DOPG   C3B55919  16.671  22.706  16.311 -0.1786  0.0052  0.3305
 2838DOPG   C4B55920  16.811  23.023  16.763  0.1660  0.0566  0.0425
 2839DOPG   GL055921  24.998  13.225  18.595 -0.0250  0.1095 -0.2044
 2839DOPG   PO455922  24.839  13.050  18.272  0.2139 -0.1475 -0.0969
 2839DOPG   GL155923  24.548  13.253  18.414  0.2126 -0.2068  0.1722
 2839DOPG   GL255924  24.448  13.411  18.648 -0.2791  0.0822  0.1425
 2839DOPG   C1A55925  24.255  13.470  18.226  0.1099  0.2760  0.1969
 2839DOPG   D2A55926  23.898  13.320  18.131 -0.2573 -0.0194 -0.2006
 2839DOPG   C3A55927  23.634  13.653  18.100  0.0959 -0.1873  0.0568
 2839DOPG   C4A55928  23.695  14.109  17.890 -0.0376 -0.0851 -0.1624
 2839DOPG   C1B55929  24.121  13.639  18.695 -0.1764 -0.2129 -0.0180
 2839DOPG   D2B55930  23.752  13.501  18.580  0.1450 -0.2586 -0.1009
 2839DOPG   C3B55931  23.384  13.711  18.677  0.2350  0.0665  0.4147
 2839DOPG   C4B55932  23.320  14.115  18.794  0.0096  0.0433 -0.3514
 2840DOPG   GL055933  21.989  12.132  17.487  0.1970 -0.1539  0.0304
 2840DOPG   PO455934  21.964  11.874  17.068 -0.5071  0.2287 -0.0231
 2840DOPG   GL155935  21.683  12.119  16.896 -0.1191 -0.2607  0.0712
 2840DOPG   GL255936  21.883  12.356  16.959  0.2490 -0.0540  0.2935
 2840DOPG   C1A55937  21.272  12.113  16.994 -0.2867  0.3329 -0.0063
 2840DOPG   D2A55938  20.842  12.331  17.019 -0.3510 -0.0187 -0.1518
 2840DOPG   C3A55939  20.619  12.563  17.258 -0.1670  0.2293 -0.0637
 2840DOPG   C4A55940  20.362  12.936  17.279  0.0465 -0.1567  0.1884
 2840DOPG   C1B55941  21.559  12.579  16.820  0.1579 -0.2798 -0.1813
 2840DOPG   D2B55942  21.144  12.504  16.704 -0.1194  0.0142 -0.0571
 2840DOPG   C3B55943  20.994  12.292  16.326 -0.1139  0.0037 -0.1043
 2840DOPG   C4B55944  20.796  12.038  16.042 -0.3062 -0.0007  0.0151
 2841DOPG   GL055945  15.306  13.116  11.396  0.1051 -0.0575 -0.1018
 2841DOPG   PO455946  15.685  13.281  11.657  0.2368  0.0933  0.0718
 2841DOPG   GL155947  15.615  13.518  11.951 -0.0710  0.1612 -0.0424
 2841DOPG   GL255948  15.403  13.797  11.951 -0.2549  0.1811 -0.1277
 2841DOPG   C1A55949  15.816  13.660  12.310 -0.3973  0.0502  0.2163
 2841DOPG   D2A55950  16.082  13.591  12.640  0.1686 -0.1555 -0.1043
 2841DOPG   C3A55951  15.925  13.669  13.042 -0.3568 -0.0004  0.0723
 2841DOPG   C4A55952  15.739  13.552  13.479 -0.1235  0.0220  0.1025
 2841DOPG   C1B55953  15.516  14.109  12.253  0.0448 -0.0071 -0.1123
 2841DOPG   D2B55954  15.394  14.351  12.605  0.2571 -0.3335 -0.1444
 2841DOPG   C3B55955  15.392  14.578  13.054 -0.2894  0.2327  0.1901
 2841DOPG   C4B55956  15.223  14.390  13.401  0.1530  0.1274  0.2437
 2842DOPG   GL055957  15.433  19.820  11.111  0.1158  0.0120  0.0002
 2842DOPG   PO455958  15.077  19.618  11.017 -0.2963 -0.2347 -0.2081
 2842DOPG   GL155959  14.847  19.360  11.325  0.0445  0.2291  0.1065
 2842DOPG   GL255960  15.162  19.371  11.544  0.1239 -0.2760 -0.0348
 2842DOPG   C1A55961  14.711  19.195  11.623  0.0482 -0.1159 -0.2935
 2842DOPG   D2A55962  14.300  19.184  11.670 -0.1165  0.1660 -0.3421
 2842DOPG   C3A55963  14.137  19.196  12.113 -0.1588  0.1244  0.3765
 2842DOPG   C4A55964  14.311  19.639  12.397  0.1314 -0.2440  0.1845
 2842DOPG   C1B55965  15.037  19.384  11.925  0.0110  0.1210  0.5228
 2842DOPG   D2B55966  14.601  19.215  12.179  0.0168  0.0080  0.0412
 2842DOPG   C3B55967  14.509  19.224  12.615 -0.2770  0.2241 -0.2084
 2842DOPG   C4B55968  14.333  19.386  12.984  0.0008 -0.1600 -0.0077
 2843DOPG   GL055969   9.441  25.307  14.607  0.1473  0.1546 -0.2635
 2843DOPG   PO455970   9.591  25.200  14.938  0.0460  0.0563  0.2572
 2843DOPG   GL155971   9.833  24.743  15.057  0.4842 -0.0413 -0.3186
 2843DOPG   GL255972   9.860  24.676  14.752  0.3131  0.1121  0.0570
 2843DOPG   C1A55973   9.851  24.386  15.373  0.0154 -0.0786 -0.0487
 2843DOPG   D2A55974   9.447  24.216  15.474 -0.0371  0.1523 -0.1962
 2843DOPG   C3A55975   9.387  23.785  15.258 -0.0025  0.1797 -0.5108
 2843DOPG   C4A55976   9.389  23.492  15.053 -0.1140 -0.0332  0.3730
 2843DOPG   C1B55977  10.262  24.486  14.967 -0.0165  0.2139 -0.2492
 2843DOPG   D2B55978  10.318  24.753  15.296  0.2174 -0.1574 -0.1376
 2843DOPG   C3B55979  10.027  24.742  15.633 -0.0522 -0.1460 -0.1120
 2843DOPG   C4B55980   9.645  24.569  15.841 -0.4007  0.2535 -0.0140
 2844DOPG   GL055981  19.787  13.838  12.744 -0.1825  0.0672 -0.1597
 2844DOPG   PO455982  19.664  13.381  12.822  0.1040 -0.0835 -0.0015
 2844DOPG   GL155983  19.299  13.707  12.799 -0.1188  0.2816 -0.5527
 2844DOPG   GL255984  19.149  13.867  12.551 -0.0015  0.2023  0.0388
 2844DOPG   C1A55985  18.996  13.901  13.135  0.1161  0.0655  0.1556
 2844DOPG   D2A55986  18.837  13.924  13.569 -0.3595  0.0022  0.1028
 2844DOPG   C3A55987  18.577  14.288  13.594 -0.2556  0.0289 -0.0791
 2844DOPG   C4A55988  18.296  14.208  13.865  0.3374 -0.1191  0.0547
 2844DOPG   C1B55989  19.486  14.200  12.873  0.2635 -0.1554 -0.2955
 2844DOPG   D2B55990  19.787  14.302  13.169  0.1860  0.0779  0.1539
 2844DOPG   C3B55991  19.691  14.645  13.483 -0.1671  0.1690  0.1400
 2844DOPG   C4B55992  19.252  14.755  13.504  0.4163 -0.1949  0.1126
 2845DOPG   GL055993  15.886   8.565  14.441  0.0398  0.0714 -0.1625
 2845DOPG   PO455994  15.735   8.913  14.512  0.2041  0.0862  0.0079
 2845DOPG   GL155995  15.417   9.043  14.725  0.2551 -0.2583  0.2173
 2845DOPG   GL255996  15.491   9.179  14.987  0.1038  0.2619 -0.2810
 2845DOPG   C1A55997  15.153   8.861  15.068  0.2390  0.0713 -0.0554
 2845DOPG   D2A55998  15.004   9.225  15.294  0.1763  0.0444 -0.0240
 2845DOPG   C3A55999  15.010   9.403  15.713  0.1696 -0.1646  0.5976
 2845DOPG   C4A56000  15.325   9.447  15.962  0.0571 -0.2915 -0.1909
 2845DOPG   C1B56001  15.880   9.047  15.099  0.0461 -0.2726 -0.0508
 2845DOPG   D2B56002  16.386   9.086  15.057  0.1234 -0.1819  0.3667
 2845DOPG   C3B56003  16.410   9.253  15.459 -0.1553  0.0250  0.1164
 2845DOPG   C4B56004  16.242   9.493  15.851 -0.2463  0.2066 -0.1223
 2846DOPG   GL056005   9.233  11.544  12.650  0.0510 -0.1354  0.1351
 2846DOPG   PO456006   9.455  11.706  12.949  0.1075 -0.3007 -0.3516
 2846DOPG   GL156007   9.022  11.508  13.127  0.2630  0.2065 -0.3764
 2846DOPG   GL256008   9.070  11.184  13.288  0.2117  0.0297 -0.0060
 2846DOPG   C1A56009   8.822  11.647  13.506 -0.0359 -0.0088  0.3242
 2846DOPG   D2A56010   8.931  11.572  13.982 -0.1731  0.0676  0.1656
 2846DOPG   C3A56011   8.981  12.027  14.225  0.0574  0.1565 -0.0349
 2846DOPG   C4A56012   8.799  12.435  14.298 -0.0880  0.3607  0.4815
 2846DOPG   C1B56013   9.281  11.269  13.721  0.1869 -0.1256  0.1432
 2846DOPG   D2B56014   9.694  11.376  13.616 -0.0713 -0.2232  0.0808
 2846DOPG   C3B56015   9.767  11.818  13.619  0.0384  0.1332 -0.1453
 2846DOPG   C4B56016  10.038  12.215  13.416 -0.0083  0.0846  0.1520
 2847DOPG   GL056017  17.673  24.184  15.227  0.1155 -0.3185  0.0520
 2847DOPG   PO456018  17.765  23.735  15.116 -0.2032  0.0266  0.0346
 2847DOPG   GL156019  17.554  23.359  15.208  0.0587 -0.0823  0.0837
 2847DOPG   GL256020  17.329  23.268  15.097  0.1251  0.1637 -0.1008
 2847DOPG   C1A56021  17.662  23.006  15.414 -0.0860  0.2317 -0.3428
 2847DOPG   D2A56022  17.587  22.770  15.814  0.6018 -0.2126  0.0536
 2847DOPG   C3A56023  17.946  22.579  15.998 -0.1999  0.1672 -0.0010
 2847DOPG   C4A56024  18.265  22.163  16.062  0.0856  0.0456 -0.2365
 2847DOPG   C1B56025  17.291  22.840  15.158  0.2093 -0.2589 -0.3423
 2847DOPG   D2B56026  17.222  22.465  15.490  0.0771  0.0118 -0.1070
 2847DOPG   C3B56027  17.305  22.028  15.351 -0.2221  0.1065  0.0554
 2847DOPG   C4B56028  17.659  21.875  15.241  0.0968 -0.1787  0.0563
 2848DOPG   GL056029   9.454  23.062  13.202  0.0188 -0.0176 -0.0978
 2848DOPG   PO456030   9.601  23.508  13.292  0.0600  0.2438 -0.1449
 2848DOPG   GL156031   9.907  23.454  13.579 -0.1098 -0.0723 -0.2060
 2848DOPG   GL256032   9.818  23.197  13.740 -0.2330 -0.0368  0.0612
 2848DOPG   C1A56033  10.297  23.198  13.476  0.1221  0.1050  0.0481
 2848DOPG   D2A56034  10.561  22.871  13.540  0.5316 -0.0562  0.1531
 2848DOPG   C3A56035  10.386  22.470  13.779 -0.3105 -0.0692 -0.1539
 2848DOPG   C4A56036  10.540  22.074  13.759  0.0133  0.0342 -0.0303
 2848DOPG   C1B56037   9.749  23.086  14.205 -0.0337 -0.3492 -0.0578
 2848DOPG   D2B56038   9.782  22.699  14.498 -0.0234  0.2204 -0.1070
 2848DOPG   C3B56039  10.176  22.516  14.674 -0.0118 -0.0235 -0.2136
 2848DOPG   C4B56040  10.550  22.320  14.637  0.1012 -0.0912 -0.1930
 2849DOPG   GL056041  14.552  21.491  12.029 -0.1360  0.1565  0.1135
 2849DOPG   PO456042  14.507  21.153  11.766  0.0232  0.1057 -0.0266
 2849DOPG   GL156043  14.415  21.006  12.154 -0.1424 -0.0498 -0.0647
 2849DOPG   GL256044  14.639  21.121  12.332 -0.0724 -0.0029  0.3902
 2849DOPG   C1A56045  14.613  20.613  12.556  0.1027 -0.0994 -0.0201
 2849DOPG   D2A56046  14.429  20.381  12.919 -0.1748 -0.0946 -0.3316
 2849DOPG   C3A56047  13.980  20.274  13.079  0.2157 -0.1288  0.0175
 2849DOPG   C4A56048  13.544  20.313  13.206 -0.1221 -0.0407 -0.0049
 2849DOPG   C1B56049  14.993  20.970  12.569  0.3044  0.1449 -0.1352
 2849DOPG   D2B56050  15.261  21.157  12.803 -0.1090 -0.1710 -0.0338
 2849DOPG   C3B56051  15.604  20.895  13.041  0.0081 -0.1869  0.2138
 2849DOPG   C4B56052  15.921  20.997  13.336  0.0790  0.0303 -0.0149
 2850DOPG   GL056053  14.602  14.170  11.864 -0.1599  0.0387  0.3304
 2850DOPG   PO456054  14.561  13.738  11.673 -0.0022  0.0544  0.0693
 2850DOPG   GL156055  14.775  13.582  12.058  0.0978  0.0224  0.0074
 2850DOPG   GL256056  14.774  13.813  12.166  0.1481  0.1400 -0.2649
 2850DOPG   C1A56057  14.745  13.490  12.506 -0.0815 -0.0665 -0.0003
 2850DOPG   D2A56058  15.018  13.567  12.816  0.1252 -0.2205 -0.1107
 2850DOPG   C3A56059  15.080  13.176  13.133 -0.1136 -0.1397  0.1261
 2850DOPG   C4A56060  15.074  12.732  13.199 -0.2003 -0.0298 -0.0577
 2850DOPG   C1B56061  15.107  13.945  12.476  0.3350  0.0243 -0.2339
 2850DOPG   D2B56062  15.150  14.050  12.869 -0.0311  0.0637  0.0650
 2850DOPG   C3B56063  15.356  13.818  13.186  0.2487 -0.0232 -0.0114
 2850DOPG   C4B56064  15.244  13.542  13.414 -0.2289  0.1717  0.1535
 2851DOPG   GL056065  14.650  19.050  11.054 -0.3570  0.1017 -0.1777
 2851DOPG   PO456066  15.075  18.928  11.008 -0.1654  0.2623 -0.0150
 2851DOPG   GL156067  15.004  18.794  11.387 -0.3308  0.2568  0.1922
 2851DOPG   GL256068  14.808  18.783  11.468 -0.0385  0.0706  0.0375
 2851DOPG   C1A56069  15.114  18.873  11.805 -0.3658 -0.1784  0.2561
 2851DOPG   D2A56070  15.111  18.792  12.236  0.0048 -0.1308 -0.0098
 2851DOPG   C3A56071  14.853  18.568  12.343 -0.2514  0.0606  0.2418
 2851DOPG   C4A56072  14.538  18.295  12.090 -0.2693  0.0652 -0.1524
 2851DOPG   C1B56073  14.633  18.768  11.884  0.4869  0.1483 -0.2503
 2851DOPG   D2B56074  14.391  18.751  12.291 -0.0764  0.3803 -0.0575
 2851DOPG   C3B56075  14.172  18.329  12.408 -0.0463  0.0920  0.2117
 2851DOPG   C4B56076  13.756  18.286  12.617  0.0579 -0.0513  0.0163
 2852DOPG   GL056077  12.698  21.528  12.222  0.0052  0.0870  0.0087
 2852DOPG   PO456078  13.068  21.337  12.265  0.2852 -0.0659 -0.3135
 2852DOPG   GL156079  12.952  21.578  12.648  0.0618 -0.0979  0.0285
 2852DOPG   GL256080  12.780  21.917  12.635  0.3385 -0.0315 -0.0651
 2852DOPG   C1A56081  12.929  21.452  13.038 -0.1938 -0.1426 -0.3310
 2852DOPG   D2A56082  12.734  21.602  13.466  0.0071 -0.4348  0.0351
 2852DOPG   C3A56083  12.300  21.646  13.507 -0.0770  0.2750 -0.0524
 2852DOPG   C4A56084  11.958  21.630  13.289 -0.0718 -0.1966  0.0090
 2852DOPG   C1B56085  12.549  21.758  12.991 -0.1699  0.0282 -0.0354
 2852DOPG   D2B56086  12.313  21.355  13.089  0.1701  0.2114 -0.0359
 2852DOPG   C3B56087  12.119  21.185  13.453 -0.0482 -0.0656  0.0353
 2852DOPG   C4B56088  11.872  21.381  13.799  0.0327  0.2111 -0.5832
 2853DOPG   GL056089  11.021  25.350  16.686 -0.1518 -0.0418 -0.3312
 2853DOPG   PO456090  11.164  25.249  16.284  0.0830 -0.1843  0.1495
 2853DOPG   GL156091  11.222  24.930  16.241 -0.2190  0.2392  0.1105
 2853DOPG   GL256092  11.372  24.773  16.505  0.4446  0.0342 -0.2694
 2853DOPG   C1A56093  10.999  24.601  16.111  0.0792 -0.1548 -0.0548
 2853DOPG   D2A56094  10.988  24.163  16.042 -0.0754 -0.0243 -0.1348
 2853DOPG   C3A56095  10.751  23.926  16.329  0.4742 -0.2624  0.1712
 2853DOPG   C4A56096  10.632  23.481  16.251 -0.0224  0.0207 -0.4263
 2853DOPG   C1B56097  10.991  24.395  16.564 -0.0426 -0.1336  0.3318
 2853DOPG   D2B56098  11.111  23.914  16.566 -0.1165  0.1974 -0.1163
 2853DOPG   C3B56099  10.814  23.590  16.731  0.0426 -0.3208 -0.1301
 2853DOPG   C4B56100  10.803  23.099  16.874 -0.0069  0.2701 -0.1118
 2854DOPG   GL056101   5.266  21.975  12.188  0.0698  0.2825 -0.2872
 2854DOPG   PO456102   4.960  21.831  12.356 -0.2773 -0.1054 -0.3350
 2854DOPG   GL156103   5.170  21.629  12.543  0.0387  0.0461  0.1240
 2854DOPG   GL256104   4.992  21.406  12.647 -0.0381 -0.2517  0.0676
 2854DOPG   C1A56105   5.505  21.624  12.917  0.1889  0.0452 -0.0555
 2854DOPG   D2A56106   5.812  21.301  12.946  0.1589  0.0995 -0.0406
 2854DOPG   C3A56107   6.192  21.456  13.124 -0.0575 -0.0647  0.0653
 2854DOPG   C4A56108   6.607  21.625  13.252  0.0020 -0.1980  0.4176
 2854DOPG   C1B56109   5.410  21.143  12.618  0.0747 -0.1974  0.0063
 2854DOPG   D2B56110   5.797  20.942  12.594  0.3299  0.0159  0.0708
 2854DOPG   C3B56111   5.953  20.864  12.990  0.2460 -0.1298 -0.0016
 2854DOPG   C4B56112   6.293  20.953  12.954 -0.2907 -0.1186  0.3003
 2855DOPG   GL056113  22.278  14.850  14.197 -0.1848  0.5200 -0.1060
 2855DOPG   PO456114  22.183  14.422  14.084 -0.0631  0.0267  0.2615
 2855DOPG   GL156115  22.047  14.552  14.511  0.1301 -0.0374 -0.0714
 2855DOPG   GL256116  22.193  14.503  14.821  0.0242 -0.0475  0.4923
 2855DOPG   C1A56117  21.696  14.610  14.694  0.0283 -0.1852 -0.0311
 2855DOPG   D2A56118  21.295  14.683  14.795 -0.2708 -0.1518  0.2933
 2855DOPG   C3A56119  21.143  14.632  15.124 -0.0870  0.0881 -0.0982
 2855DOPG   C4A56120  21.060  14.589  15.479 -0.3068  0.1114 -0.2908
 2855DOPG   C1B56121  22.018  14.627  15.110 -0.0644 -0.1778  0.4061
 2855DOPG   D2B56122  21.721  14.990  15.017  0.2087  0.2030 -0.2210
 2855DOPG   C3B56123  21.331  15.219  15.153  0.1405  0.0450  0.1428
 2855DOPG   C4B56124  21.240  15.174  15.578 -0.3427  0.0615  0.3584
 2856DOPG   GL056125  19.756  22.733  13.171 -0.0434  0.4248 -0.0365
 2856DOPG   PO456126  19.634  22.528  13.554 -0.0279 -0.0559  0.0499
 2856DOPG   GL156127  19.871  22.096  13.678 -0.0240  0.1771  0.1537
 2856DOPG   GL256128  19.747  21.900  13.592 -0.1146 -0.2159 -0.0025
 2856DOPG   C1A56129  20.199  22.066  13.958  0.0440  0.0256 -0.1939
 2856DOPG   D2A56130  20.649  22.054  14.113  0.2860  0.2795 -0.1396
 2856DOPG   C3A56131  20.822  21.713  13.892 -0.0047  0.0437 -0.4670
 2856DOPG   C4A56132  21.013  21.383  13.943 -0.1432  0.1477  0.3302
 2856DOPG   C1B56133  20.071  21.633  13.773  0.3808  0.5342 -0.1879
 2856DOPG   D2B56134  20.007  21.540  14.209 -0.0533  0.0297 -0.0077
 2856DOPG   C3B56135  19.844  21.891  14.416  0.0849  0.0493 -0.1896
 2856DOPG   C4B56136  19.580  22.164  14.591 -0.1813 -0.1076  0.0762
 2857DOPG   GL056137   8.273   8.639  14.768  0.2222 -0.0619 -0.0769
 2857DOPG   PO456138   8.255   9.012  14.861 -0.0020  0.4128  0.2255
 2857DOPG   GL156139   8.517   9.216  15.170 -0.0119  0.0801 -0.2775
 2857DOPG   GL256140   8.804   9.148  15.237  0.1002 -0.0347 -0.1878
 2857DOPG   C1A56141   8.388   9.454  15.558  0.1602 -0.0739 -0.0505
 2857DOPG   D2A56142   8.639   9.802  15.802 -0.2698  0.1709  0.1374
 2857DOPG   C3A56143   8.850   9.649  16.192  0.2496 -0.0638  0.1891
 2857DOPG   C4A56144   8.943   9.252  16.404 -0.0837 -0.0616 -0.3377
 2857DOPG   C1B56145   8.858   9.398  15.600  0.1556 -0.3071  0.3070
 2857DOPG   D2B56146   9.241   9.540  15.891 -0.4381  0.0542 -0.2428
 2857DOPG   C3B56147   9.346   9.577  16.345 -0.0385 -0.4098  0.5152
 2857DOPG   C4B56148   9.298   9.523  16.867 -0.0563 -0.0481 -0.2095
 2858DOPG   GL056149  21.310  24.479  15.906 -0.1923 -0.1255  0.0786
 2858DOPG   PO456150  21.235  23.898  15.885 -0.0576  0.1735  0.2823
 2858DOPG   GL156151  21.184  23.566  16.032  0.1318 -0.2573 -0.0020
 2858DOPG   GL256152  21.238  23.334  15.905 -0.2277 -0.2417  0.1031
 2858DOPG   C1A56153  20.930  23.177  16.236  0.3122 -0.0054 -0.1066
 2858DOPG   D2A56154  20.788  22.680  16.164 -0.0811 -0.5355  0.0957
 2858DOPG   C3A56155  21.085  22.441  16.281 -0.0571  0.0436 -0.0292
 2858DOPG   C4A56156  21.135  22.044  16.353 -0.0719 -0.1505  0.0802
 2858DOPG   C1B56157  21.125  22.894  15.838 -0.0939  0.1787  0.1165
 2858DOPG   D2B56158  20.978  22.526  15.566  0.2953 -0.1086 -0.0155
 2858DOPG   C3B56159  21.139  22.260  15.627  0.2431 -0.0562  0.0438
 2858DOPG   C4B56160  21.452  21.914  15.492 -0.1566 -0.4279 -0.0251
 2859DOPG   GL056161  22.323  15.762  12.775 -0.0083  0.2188  0.1275
 2859DOPG   PO456162  22.335  16.164  13.060 -0.0509  0.2994  0.2804
 2859DOPG   GL156163  22.074  16.411  13.312  0.0669 -0.1397 -0.0344
 2859DOPG   GL256164  21.845  16.337  13.122  0.0493 -0.0665 -0.1335
 2859DOPG   C1A56165  22.021  16.622  13.707 -0.0914 -0.3327 -0.2104
 2859DOPG   D2A56166  21.833  16.867  13.907  0.3726 -0.1414  0.1241
 2859DOPG   C3A56167  21.964  16.882  14.338 -0.2692  0.0842 -0.0773
 2859DOPG   C4A56168  22.046  17.049  14.676  0.2921  0.2755 -0.2607
 2859DOPG   C1B56169  21.623  16.799  13.412  0.0088  0.4362 -0.1774
 2859DOPG   D2B56170  21.313  17.121  13.577 -0.0167  0.0636  0.1735
 2859DOPG   C3B56171  21.176  17.043  14.032 -0.0195  0.1096 -0.3323
 2859DOPG   C4B56172  20.704  16.924  14.168  0.0594 -0.0470  0.2533
 2860DOPG   GL056173   9.856  13.603  12.443 -0.0811  0.0956 -0.0023
 2860DOPG   PO456174  10.101  13.304  12.160 -0.2156 -0.1290 -0.3652
 2860DOPG   GL156175  10.302  13.586  12.462  0.3177  0.0861 -0.3521
 2860DOPG   GL256176  10.351  13.886  12.360 -0.1420  0.2101  0.0419
 2860DOPG   C1A56177  10.574  13.561  12.812  0.0069 -0.2312 -0.0769
 2860DOPG   D2A56178  11.034  13.618  12.937  0.0426  0.2738 -0.2116
 2860DOPG   C3A56179  11.294  13.783  13.236  0.1030 -0.0554  0.2335
 2860DOPG   C4A56180  11.737  13.904  13.302  0.1365 -0.0363 -0.0713
 2860DOPG   C1B56181  10.858  13.859  12.506  0.3877 -0.4743  0.0478
 2860DOPG   D2B56182  11.119  14.131  12.811  0.1206  0.1119 -0.0467
 2860DOPG   C3B56183  11.477  14.328  12.963 -0.0893  0.1219 -0.1149
 2860DOPG   C4B56184  11.894  14.304  13.028 -0.0149 -0.0149  0.0872
 2861DOPG   GL056185  21.351  12.002  15.183  0.0378 -0.3886  0.1339
 2861DOPG   PO456186  21.401  12.259  15.560 -0.2332  0.3074 -0.0598
 2861DOPG   GL156187  21.228  12.466  15.807 -0.3059 -0.0673  0.1459
 2861DOPG   GL256188  21.355  12.517  16.033  0.1785 -0.2376 -0.0352
 2861DOPG   C1A56189  20.844  12.698  16.139 -0.2532  0.2628 -0.3508
 2861DOPG   D2A56190  20.898  13.001  16.457 -0.1967 -0.0338 -0.2526
 2861DOPG   C3A56191  20.594  13.446  16.345 -0.4717  0.0828 -0.1026
 2861DOPG   C4A56192  20.563  13.752  16.032 -0.3567 -0.0204  0.1667
 2861DOPG   C1B56193  21.364  12.847  16.417  0.1271  0.2474  0.1915
 2861DOPG   D2B56194  21.261  13.056  16.787 -0.1580  0.0960  0.4244
 2861DOPG   C3B56195  20.854  12.863  16.942 -0.0901  0.2162  0.0351
 2861DOPG   C4B56196  20.701  13.304  17.031  0.0363 -0.2562 -0.0270
 2862DOPG   GL056197  17.212  13.214  11.865 -0.2367 -0.2154  0.0803
 2862DOPG   PO456198  17.070  13.000  12.224  0.0534  0.2750  0.1277
 2862DOPG   GL156199  16.779  13.213  12.336 -0.1659  0.1710  0.2331
 2862DOPG   GL256200  16.419  13.244  12.356 -0.3433  0.1145  0.0950
 2862DOPG   C1A56201  16.662  13.513  12.715  0.2967  0.2669  0.2418
 2862DOPG   D2A56202  16.422  13.751  13.052 -0.1860 -0.2877 -0.1472
 2862DOPG   C3A56203  16.163  14.108  12.954  0.1021 -0.0004  0.0593
 2862DOPG   C4A56204  15.819  14.116  12.701 -0.0993  0.1184 -0.0397
 2862DOPG   C1B56205  16.367  13.589  12.209 -0.1931  0.1749  0.2324
 2862DOPG   D2B56206  16.481  14.068  12.062  0.2138 -0.1101 -0.0777
 2862DOPG   C3B56207  16.354  14.551  12.271  0.1438  0.1071  0.0493
 2862DOPG   C4B56208  16.497  14.783  12.589  0.1835 -0.0923 -0.2817
 2863DOPG   GL056209   6.276  10.329  15.136 -0.0798 -0.1801  0.0015
 2863DOPG   PO456210   6.379  10.677  15.342  0.2085 -0.0939  0.1359
 2863DOPG   GL156211   6.701  11.015  15.295  0.1907 -0.0237 -0.3310
 2863DOPG   GL256212   6.866  11.093  15.131  0.0892 -0.0570 -0.2716
 2863DOPG   C1A56213   6.758  11.373  15.541  0.1037 -0.2444 -0.0218
 2863DOPG   D2A56214   6.920  11.691  15.661 -0.0280  0.2216  0.0556
 2863DOPG   C3A56215   6.876  12.115  15.485  0.2456 -0.0045 -0.0320
 2863DOPG   C4A56216   6.817  12.587  15.250 -0.0837 -0.0534  0.0589
 2863DOPG   C1B56217   7.184  11.241  15.347 -0.1906 -0.0966 -0.2115
 2863DOPG   D2B56218   7.487  11.050  15.664 -0.1422  0.0571  0.1903
 2863DOPG   C3B56219   7.937  11.074  15.691 -0.0097  0.1150 -0.0060
 2863DOPG   C4B56220   8.456  11.059  15.677  0.3181  0.3688 -0.1085
 2864DOPG   GL056221   8.517  21.909  12.367  0.0137  0.0171 -0.1710
 2864DOPG   PO456222   8.474  22.024  12.750 -0.1388 -0.0320  0.0835
 2864DOPG   GL156223   8.094  22.084  12.624 -0.2809 -0.5365 -0.0326
 2864DOPG   GL256224   7.814  22.213  12.872 -0.0576  0.4473 -0.0825
 2864DOPG   C1A56225   7.904  21.987  12.204  0.0613 -0.0671 -0.2686
 2864DOPG   D2A56226   7.794  22.314  11.951  0.1372  0.1999  0.0729
 2864DOPG   C3A56227   7.580  22.166  11.492 -0.0374  0.1802 -0.2699
 2864DOPG   C4A56228   7.302  21.844  11.297  0.2574  0.2066 -0.1982
 2864DOPG   C1B56229   7.413  21.942  12.900 -0.0144 -0.0590  0.2961
 2864DOPG   D2B56230   7.230  21.712  13.306 -0.1038 -0.1980  0.1587
 2864DOPG   C3B56231   7.415  21.612  13.628  0.0919  0.1332 -0.2446
 2864DOPG   C4B56232   7.236  21.430  13.950 -0.3424 -0.1052  0.2525
 2865DOPG   GL056233  17.020  19.712  11.337  0.1245  0.1084  0.1136
 2865DOPG   PO456234  17.399  19.805  11.442  0.0752 -0.0301 -0.1498
 2865DOPG   GL156235  17.689  19.587  11.821 -0.1815 -0.0205  0.1998
 2865DOPG   GL256236  17.778  19.323  11.845  0.0385 -0.0186 -0.0843
 2865DOPG   C1A56237  18.107  19.572  12.179  0.1176 -0.4704  0.0335
 2865DOPG   D2A56238  18.221  19.551  12.619 -0.2067  0.0947 -0.3325
 2865DOPG   C3A56239  18.590  19.836  12.796  0.0305 -0.0774 -0.0255
 2865DOPG   C4A56240  18.802  19.996  13.211  0.1500 -0.0674  0.1073
 2865DOPG   C1B56241  17.838  18.790  11.918 -0.1244  0.0115  0.0009
 2865DOPG   D2B56242  17.825  18.369  12.011  0.3011  0.3505 -0.0122
 2865DOPG   C3B56243  17.817  18.193  12.454 -0.1357  0.0750 -0.2263
 2865DOPG   C4B56244  17.745  17.760  12.665 -0.0753  0.1789  0.1745
 2866DOPG   GL056245  15.156  23.234  13.710  0.1632 -0.5824  0.2611
 2866DOPG   PO456246  15.198  22.933  14.011 -0.1512  0.1155 -0.1877
 2866DOPG   GL156247  15.087  23.032  14.286  0.1752 -0.0909  0.0635
 2866DOPG   GL256248  14.696  23.110  14.255  0.0580 -0.0504 -0.0983
 2866DOPG   C1A56249  14.816  22.698  14.629  0.1242 -0.1780  0.2607
 2866DOPG   D2A56250  14.976  22.285  14.651  0.0131 -0.0885 -0.1087
 2866DOPG   C3A56251  14.694  21.957  14.771  0.0969  0.2996 -0.2572
 2866DOPG   C4A56252  14.631  21.554  14.707  0.1833  0.2596 -0.0346
 2866DOPG   C1B56253  14.732  23.242  14.635 -0.0659 -0.1023  0.0494
 2866DOPG   D2B56254  14.648  23.164  15.035  0.0555 -0.1587 -0.1058
 2866DOPG   C3B56255  14.784  23.527  15.353 -0.0369 -0.2680  0.0680
 2866DOPG   C4B56256  15.268  23.372  15.303  0.1196 -0.1503 -0.2916
 2867DOPG   GL056257  26.452  17.990  13.646  0.2252 -0.0490  0.0460
 2867DOPG   PO456258  26.540  17.456  13.651  0.2722 -0.0086 -0.1608
 2867DOPG   GL156259  26.085  17.513  13.842 -0.1958  0.1517  0.1586
 2867DOPG   GL256260  26.122  17.461  14.140 -0.2920 -0.0649  0.1582
 2867DOPG   C1A56261  25.619  17.715  13.788 -0.0976 -0.0717 -0.0765
 2867DOPG   D2A56262  25.545  18.195  13.867  0.0621 -0.1854  0.1713
 2867DOPG   C3A56263  25.302  18.385  14.114 -0.2276 -0.1596  0.1433
 2867DOPG   C4A56264  25.280  18.687  14.495 -0.2253  0.0175  0.0040
 2867DOPG   C1B56265  25.670  17.503  14.236 -0.1000 -0.2578  0.1060
 2867DOPG   D2B56266  25.431  17.124  14.216  0.2472  0.0449  0.0990
 2867DOPG   C3B56267  25.030  17.162  14.530 -0.1865 -0.0642 -0.2567
 2867DOPG   C4B56268  24.762  17.222  14.787 -0.1484 -0.0641  0.0705
 2868DOPG   GL056269  19.626  15.190  11.381 -0.1186  0.0915 -0.1620
 2868DOPG   PO456270  19.212  15.379  11.344 -0.2021 -0.2938  0.1889
 2868DOPG   GL156271  19.104  15.360  11.790  0.1000 -0.4465  0.0504
 2868DOPG   GL256272  19.327  15.606  11.943 -0.2382 -0.0934 -0.1543
 2868DOPG   C1A56273  18.832  15.391  12.094  0.2249 -0.2325  0.1703
 2868DOPG   D2A56274  18.650  15.134  12.346  0.2176 -0.2435  0.4401
 2868DOPG   C3A56275  18.824  14.822  12.640 -0.0849  0.0329  0.1757
 2868DOPG   C4A56276  19.173  14.496  12.582  0.0037  0.3388 -0.1985
 2868DOPG   C1B56277  18.995  15.785  11.968 -0.1211  0.0864 -0.1113
 2868DOPG   D2B56278  18.783  16.163  12.075 -0.2549 -0.3450 -0.2876
 2868DOPG   C3B56279  18.945  16.510  12.305  0.0376 -0.4203 -0.0146
 2868DOPG   C4B56280  19.057  16.583  12.665 -0.1062 -0.2602 -0.2368
 2869DOPG   GL056281  26.038  15.553  14.752  0.2224 -0.1284  0.1169
 2869DOPG   PO456282  25.756  15.803  14.954  0.1105 -0.0816 -0.0722
 2869DOPG   GL156283  25.343  16.049  15.105 -0.1343  0.1352 -0.0642
 2869DOPG   GL256284  25.132  16.102  15.382  0.0193  0.0445 -0.1961
 2869DOPG   C1A56285  25.361  16.525  15.089  0.0273  0.2536  0.2819
 2869DOPG   D2A56286  25.305  16.969  15.061  0.0655 -0.0602 -0.2441
 2869DOPG   C3A56287  24.942  16.933  15.226  0.1912  0.0797 -0.1083
 2869DOPG   C4A56288  24.513  17.055  15.328  0.1354  0.3256  0.3864
 2869DOPG   C1B56289  24.839  16.347  15.164 -0.1981  0.1179  0.0257
 2869DOPG   D2B56290  24.716  16.729  14.814  0.1487 -0.0431 -0.2401
 2869DOPG   C3B56291  24.340  16.857  14.774  0.1259  0.0439  0.0783
 2869DOPG   C4B56292  23.933  16.609  14.795  0.1198  0.0525  0.0860
 2870DOPG   GL056293  17.712  21.967  13.279 -0.1267  0.1499  0.0078
 2870DOPG   PO456294  17.526  22.332  13.466  0.1734  0.1051  0.0297
 2870DOPG   GL156295  17.562  22.190  13.849  0.1271  0.0509  0.0675
 2870DOPG   GL256296  17.736  21.926  13.778 -0.0496  0.0160  0.2236
 2870DOPG   C1A56297  17.360  22.016  14.260 -0.2314  0.1366  0.2911
 2870DOPG   D2A56298  17.188  21.520  14.524  0.2755  0.1186 -0.0078
 2870DOPG   C3A56299  17.468  21.221  14.671 -0.0058 -0.0140  0.2192
 2870DOPG   C4A56300  17.689  20.898  14.882 -0.0330  0.2900  0.0164
 2870DOPG   C1B56301  18.064  22.191  13.914  0.0806 -0.3191 -0.2240
 2870DOPG   D2B56302  18.128  22.564  14.116  0.0701 -0.0444 -0.1499
 2870DOPG   C3B56303  17.986  22.598  14.585 -0.2822 -0.0467  0.1823
 2870DOPG   C4B56304  17.796  22.796  14.967 -0.0209 -0.1002 -0.2794
 2871DOPG   GL056305  12.303   8.056  14.203 -0.0882  0.3707 -0.0463
 2871DOPG   PO456306  11.833   7.925  14.235 -0.1983 -0.3437  0.4538
 2871DOPG   GL156307  11.429   8.119  14.369  0.0611 -0.0768 -0.1987
 2871DOPG   GL256308  11.440   8.469  14.481  0.0042 -0.0453 -0.0204
 2871DOPG   C1A56309  11.039   8.188  14.741 -0.0885  0.0119  0.0990
 2871DOPG   D2A56310  10.648   8.385  14.844  0.3124 -0.2330 -0.1383
 2871DOPG   C3A56311  10.673   8.712  15.075 -0.1549  0.3817 -0.0796
 2871DOPG   C4A56312  10.563   8.757  15.491  0.1561 -0.2072  0.3114
 2871DOPG   C1B56313  11.584   8.923  14.536 -0.1298 -0.3868 -0.0926
 2871DOPG   D2B56314  11.443   9.077  14.961 -0.1540 -0.0042 -0.0706
 2871DOPG   C3B56315  11.329   9.428  14.996 -0.0119  0.1047  0.0217
 2871DOPG   C4B56316  11.232   9.724  14.703  0.0415  0.0514 -0.3750
 2872DOPG   GL056317  13.486   9.137  14.052 -0.2348  0.1647 -0.2245
 2872DOPG   PO456318  13.854   8.964  13.834  0.3127 -0.1388  0.0211
 2872DOPG   GL156319  14.071   9.222  14.041  0.0968 -0.1839 -0.5526
 2872DOPG   GL256320  13.870   9.280  14.361  0.0577  0.2869 -0.2767
 2872DOPG   C1A56321  14.198   9.654  14.029  0.3186 -0.0912 -0.0486
 2872DOPG   D2A56322  14.370  10.073  14.120 -0.0703 -0.4522  0.3619
 2872DOPG   C3A56323  14.115  10.458  14.207 -0.1374 -0.2074 -0.0401
 2872DOPG   C4A56324  13.755  10.758  14.241  0.2788 -0.1038  0.2450
 2872DOPG   C1B56325  13.949   9.658  14.539 -0.0249  0.1136 -0.1316
 2872DOPG   D2B56326  13.707  10.018  14.562 -0.0288 -0.0948 -0.2449
 2872DOPG   C3B56327  13.693  10.223  14.225 -0.0794 -0.3886 -0.0687
 2872DOPG   C4B56328  13.615  10.336  13.785 -0.0998  0.2369  0.0529
 2873DOPG   GL056329   6.110  11.282  16.860 -0.2625 -0.3803 -0.6226
 2873DOPG   PO456330   5.822  11.178  17.123  0.1895 -0.1349 -0.1267
 2873DOPG   GL156331   6.068  11.076  17.410  0.3535 -0.2296 -0.0803
 2873DOPG   GL256332   6.054  11.405  17.591  0.2207 -0.2920  0.0084
 2873DOPG   C1A56333   6.476  11.232  17.437 -0.1635  0.0587 -0.1765
 2873DOPG   D2A56334   6.845  11.010  17.249 -0.0525 -0.2379 -0.0826
 2873DOPG   C3A56335   7.244  11.342  17.187  0.1201  0.3527  0.2106
 2873DOPG   C4A56336   7.446  11.669  16.914  0.0358 -0.1350 -0.0924
 2873DOPG   C1B56337   6.260  11.640  17.213  0.2050  0.0652  0.1145
 2873DOPG   D2B56338   6.471  11.892  16.931  0.0072  0.1927  0.2058
 2873DOPG   C3B56339   6.631  12.359  16.962 -0.0748 -0.0940  0.1510
 2873DOPG   C4B56340   6.565  12.751  16.841  0.1323 -0.4603  0.0015
 2874DOPG   GL056341  11.271  20.840  12.218  0.2310 -0.1116  0.1369
 2874DOPG   PO456342  11.252  20.606  11.956 -0.2972 -0.0092 -0.1252
 2874DOPG   GL156343  11.348  20.353  12.315  0.5027 -0.0874  0.2423
 2874DOPG   GL256344  11.213  20.468  12.673  0.3149 -0.2254  0.2455
 2874DOPG   C1A56345  11.614  20.055  12.645  0.0779 -0.1380 -0.2164
 2874DOPG   D2A56346  11.766  19.854  13.027 -0.1686 -0.0562 -0.0516
 2874DOPG   C3A56347  12.091  19.973  13.189  0.2040 -0.0606 -0.3447
 2874DOPG   C4A56348  12.294  20.340  13.430  0.1496 -0.0665 -0.2407
 2874DOPG   C1B56349  11.424  20.606  13.002 -0.2858  0.1076 -0.0344
 2874DOPG   D2B56350  11.735  20.911  13.187  0.0316 -0.1068  0.0700
 2874DOPG   C3B56351  11.631  21.014  13.577  0.4143 -0.4375  0.0312
 2874DOPG   C4B56352  11.256  21.158  13.787 -0.1210 -0.2089  0.0158
 2875DOPG   GL056353  15.222  24.547  15.779 -0.2135  0.1633  0.1918
 2875DOPG   PO456354  15.048  24.424  16.180  0.3664 -0.0433  0.0589
 2875DOPG   GL156355  15.185  24.078  15.913 -0.1176  0.1362  0.1710
 2875DOPG   GL256356  14.983  23.935  15.579 -0.4773 -0.1286 -0.3985
 2875DOPG   C1A56357  15.371  23.742  16.139  0.2468 -0.2264  0.3467
 2875DOPG   D2A56358  15.547  23.348  16.388  0.1293 -0.6150 -0.0828
 2875DOPG   C3A56359  15.241  23.278  16.582 -0.0920  0.2136 -0.1253
 2875DOPG   C4A56360  14.853  23.203  16.939 -0.3569  0.0533 -0.0093
 2875DOPG   C1B56361  15.094  23.521  15.797 -0.0472 -0.0695  0.0247
 2875DOPG   D2B56362  14.772  23.210  15.828 -0.0532 -0.0324  0.0187
 2875DOPG   C3B56363  14.830  22.826  15.977 -0.2544 -0.1812  0.1300
 2875DOPG   C4B56364  14.970  22.454  15.807  0.1252 -0.1582 -0.1432
 2876DOPG   GL056365  10.685  24.763  13.813  0.1910  0.0165 -0.5249
 2876DOPG   PO456366  10.782  24.668  14.345 -0.2643 -0.1460  0.0166
 2876DOPG   GL156367  10.732  24.382  14.646  0.0040 -0.2697  0.0557
 2876DOPG   GL256368  10.602  24.150  14.451  0.0292  0.0801  0.1354
 2876DOPG   C1A56369  10.727  24.207  15.057 -0.2514 -0.1205  0.1576
 2876DOPG   D2A56370  10.408  24.103  15.259 -0.0126  0.1601  0.0602
 2876DOPG   C3A56371  10.329  23.771  15.321 -0.0693 -0.1382  0.0262
 2876DOPG   C4A56372  10.245  23.334  15.371  0.0514  0.0152  0.0351
 2876DOPG   C1B56373  10.332  24.020  14.769  0.1488  0.0038  0.1193
 2876DOPG   D2B56374  10.611  23.707  14.879  0.0290 -0.1791 -0.2959
 2876DOPG   C3B56375  10.446  23.276  14.921  0.1227 -0.2636  0.1685
 2876DOPG   C4B56376  10.184  22.964  15.027 -0.0944  0.2293  0.0564
 2877DOPG   GL056377   8.829   7.534  16.327 -0.0185 -0.0636 -0.1875
 2877DOPG   PO456378   8.860   8.006  16.423 -0.0061  0.0141 -0.4347
 2877DOPG   GL156379   9.064   8.451  16.343 -0.1170 -0.0203 -0.1980
 2877DOPG   GL256380   8.860   8.643  16.207 -0.0442 -0.0415  0.2689
 2877DOPG   C1A56381   9.252   8.805  16.447  0.0571  0.4826 -0.1628
 2877DOPG   D2A56382   9.598   9.092  16.467  0.5937  0.1467 -0.1036
 2877DOPG   C3A56383   9.860   9.179  16.822 -0.1274  0.2181  0.0304
 2877DOPG   C4A56384   9.723   9.442  17.132 -0.0920  0.0204 -0.2605
 2877DOPG   C1B56385   9.112   9.043  16.005  0.0375 -0.1485 -0.0317
 2877DOPG   D2B56386   9.464   9.082  15.807  0.1835 -0.1296 -0.2170
 2877DOPG   C3B56387   9.710   9.411  15.869  0.1747 -0.0643  0.2463
 2877DOPG   C4B56388   9.811   9.719  16.154 -0.3177 -0.0096 -0.0634
 2878DOPG   GL056389  12.621  25.367  17.036 -0.2185 -0.0582  0.0610
 2878DOPG   PO456390  12.564  25.448  16.598  0.0214  0.1321  0.2201
 2878DOPG   GL156391  12.386  25.092  16.599 -0.0957  0.0664 -0.2989
 2878DOPG   GL256392  12.095  25.053  16.555 -0.3268  0.2995 -0.3200
 2878DOPG   C1A56393  12.478  24.738  16.864 -0.0512  0.1351 -0.0586
 2878DOPG   D2A56394  12.424  24.252  16.861  0.2706  0.0089  0.0006
 2878DOPG   C3A56395  12.379  23.831  16.565 -0.3602  0.1299  0.1592
 2878DOPG   C4A56396  12.010  23.587  16.517 -0.1236  0.2635 -0.3747
 2878DOPG   C1B56397  12.123  24.644  16.367 -0.3815 -0.1548  0.1001
 2878DOPG   D2B56398  11.983  24.241  16.489 -0.1209  0.0007 -0.0487
 2878DOPG   C3B56399  11.703  23.975  16.578  0.1791 -0.0722  0.1833
 2878DOPG   C4B56400  11.602  24.110  17.031  0.0173 -0.1440 -0.0391
 2879DOPG   GL056401   9.549  12.023  12.526 -0.2718  0.0593 -0.0610
 2879DOPG   PO456402   9.841  12.443  12.489 -0.2265  0.0163  0.1598
 2879DOPG   GL156403  10.157  12.711  12.620 -0.0981  0.3665  0.1147
 2879DOPG   GL256404  10.114  13.118  12.685  0.0398  0.2628  0.0087
 2879DOPG   C1A56405  10.378  12.703  13.050 -0.0647  0.2358 -0.3172
 2879DOPG   D2A56406  10.466  12.498  13.460  0.2823 -0.2807  0.2843
 2879DOPG   C3A56407  10.796  12.400  13.719 -0.1573 -0.3386  0.1781
 2879DOPG   C4A56408  10.945  11.995  13.787 -0.0227 -0.0779  0.1423
 2879DOPG   C1B56409  10.517  13.100  12.624  0.0432  0.0126 -0.1424
 2879DOPG   D2B56410  10.999  13.221  12.580  0.1159 -0.0224 -0.1148
 2879DOPG   C3B56411  11.138  13.476  12.280  0.0361  0.1594  0.0387
 2879DOPG   C4B56412  11.473  13.729  12.066 -0.4903  0.1325  0.2584
 2880DOPG   GL056413  18.445  23.140  13.614  0.1749 -0.2842 -0.1670
 2880DOPG   PO456414  18.353  22.733  13.606 -0.2305 -0.2118 -0.0805
 2880DOPG   GL156415  18.482  22.411  13.781  0.1963 -0.2565  0.3393
 2880DOPG   GL256416  18.782  22.485  13.812 -0.0020  0.1727  0.1544
 2880DOPG   C1A56417  18.526  21.988  14.016 -0.2486  0.2207 -0.0982
 2880DOPG   D2A56418  18.722  21.759  14.353  0.1123 -0.1584  0.0545
 2880DOPG   C3A56419  18.797  21.783  14.806 -0.2325 -0.3503 -0.3093
 2880DOPG   C4A56420  18.966  22.058  15.056  0.1951  0.1131  0.0665
 2880DOPG   C1B56421  18.996  22.169  14.123 -0.0174 -0.3523 -0.0033
 2880DOPG   D2B56422  19.103  22.035  14.531 -0.0734  0.1273  0.3828
 2880DOPG   C3B56423  19.103  21.502  14.573 -0.0828 -0.1764  0.1657
 2880DOPG   C4B56424  18.798  21.276  14.743 -0.1439 -0.1180  0.0577
 2881DOPG   GL056425  12.660   7.985  13.833 -0.2140 -0.0289  0.6029
 2881DOPG   PO456426  13.040   8.009  14.073 -0.2544  0.0910 -0.0269
 2881DOPG   GL156427  12.780   8.280  14.229  0.1198  0.0803 -0.0246
 2881DOPG   GL256428  12.952   8.459  14.345  0.1053  0.0897 -0.0277
 2881DOPG   C1A56429  12.454   8.478  14.449  0.0651  0.1729  0.1415
 2881DOPG   D2A56430  12.425   8.629  14.890  0.4174  0.2456 -0.0149
 2881DOPG   C3A56431  12.792   8.885  15.105  0.2412 -0.2211 -0.3095
 2881DOPG   C4A56432  12.978   9.259  15.402  0.1754 -0.4215 -0.2556
 2881DOPG   C1B56433  12.918   8.420  14.813  0.0005  0.3542  0.1936
 2881DOPG   D2B56434  12.741   8.413  15.213  0.3447  0.1187 -0.3477
 2881DOPG   C3B56435  12.452   8.288  15.651  0.4437  0.0380  0.2280
 2881DOPG   C4B56436  11.995   8.272  15.701 -0.1647  0.2260  0.1004
 2882DOPG   GL056437  12.683  18.165  11.055 -0.0342 -0.0948  0.1841
 2882DOPG   PO456438  12.344  18.254  11.217  0.2481  0.0636  0.3076
 2882DOPG   GL156439  12.477  18.209  11.685 -0.1896  0.3003 -0.2565
 2882DOPG   GL256440  12.498  18.455  11.843 -0.0261  0.1859 -0.0521
 2882DOPG   C1A56441  12.575  17.802  11.931 -0.2614 -0.1667 -0.2848
 2882DOPG   D2A56442  12.578  17.387  11.848  0.2061  0.1272 -0.1209
 2882DOPG   C3A56443  12.609  17.068  12.139 -0.0446 -0.4077  0.2956
 2882DOPG   C4A56444  12.547  16.601  11.979 -0.0213  0.2357  0.0970
 2882DOPG   C1B56445  12.730  18.368  12.299  0.4284 -0.2273  0.1318
 2882DOPG   D2B56446  12.856  18.126  12.635  0.1520 -0.2650 -0.1057
 2882DOPG   C3B56447  12.753  18.010  12.992  0.1913 -0.1624 -0.0651
 2882DOPG   C4B56448  12.901  17.959  13.392 -0.2027 -0.1020 -0.1232
 2883DOPG   GL056449  14.070  23.909  14.148  0.1403 -0.1456 -0.3087
 2883DOPG   PO456450  14.336  23.596  13.986 -0.0251 -0.2714 -0.1237
 2883DOPG   GL156451  14.339  23.412  14.404  0.0530 -0.1482  0.0089
 2883DOPG   GL256452  14.184  23.136  14.207 -0.1758  0.2752  0.1525
 2883DOPG   C1A56453  14.077  23.211  14.692  0.0765 -0.0413 -0.2272
 2883DOPG   D2A56454  13.889  22.803  14.751 -0.0546 -0.0999  0.0385
 2883DOPG   C3A56455  14.095  22.413  14.826 -0.0107 -0.0869  0.0860
 2883DOPG   C4A56456  14.225  22.033  15.017  0.0866  0.0438  0.1209
 2883DOPG   C1B56457  13.862  22.911  14.256  0.0391  0.1409  0.1516
 2883DOPG   D2B56458  13.454  22.735  14.429 -0.2168  0.1085 -0.2230
 2883DOPG   C3B56459  13.031  22.939  14.348  0.0900  0.3106 -0.1815
 2883DOPG   C4B56460  12.626  22.888  14.616 -0.0818 -0.0801 -0.0722
 2884DOPG   GL056461  22.798  12.622  16.074  0.0921 -0.1387  0.1389
 2884DOPG   PO456462  22.972  13.066  16.202 -0.0645  0.0636 -0.1490
 2884DOPG   GL156463  22.711  13.296  16.050  0.3251 -0.0028 -0.0093
 2884DOPG   GL256464  22.441  13.182  16.002  0.0415 -0.5299  0.0249
 2884DOPG   C1A56465  22.515  13.667  16.098  0.0320  0.0375  0.3464
 2884DOPG   D2A56466  22.509  13.795  16.447 -0.0269 -0.0847  0.0980
 2884DOPG   C3A56467  22.523  13.583  16.813  0.1618 -0.2783 -0.0821
 2884DOPG   C4A56468  22.382  13.617  17.210 -0.0775 -0.0749  0.2194
 2884DOPG   C1B56469  22.151  13.309  16.293 -0.1675 -0.2756  0.1283
 2884DOPG   D2B56470  21.999  13.753  16.542  0.0084 -0.2027  0.2299
 2884DOPG   C3B56471  22.219  14.132  16.650 -0.2756  0.0672  0.0478
 2884DOPG   C4B56472  22.234  14.541  16.584 -0.1161 -0.2151 -0.6331
 2885DOPG   GL056473  13.680  20.621  11.939  0.0892 -0.1418  0.2782
 2885DOPG   PO456474  13.655  20.209  11.643 -0.0955 -0.0633  0.3365
 2885DOPG   GL156475  13.442  20.142  12.022 -0.4823 -0.1080 -0.0301
 2885DOPG   GL256476  13.154  20.434  12.092 -0.0883 -0.2487  0.1665
 2885DOPG   C1A56477  13.258  19.991  12.493  0.1043  0.3698  0.1248
 2885DOPG   D2A56478  13.114  20.280  12.846  0.1338 -0.0642  0.4296
 2885DOPG   C3A56479  13.035  20.016  13.228  0.0470 -0.0966  0.0273
 2885DOPG   C4A56480  13.262  19.760  13.585  0.0895  0.0568 -0.1945
 2885DOPG   C1B56481  13.353  20.742  12.411  0.0634  0.2227  0.1537
 2885DOPG   D2B56482  13.198  21.068  12.648 -0.6810  0.1149  0.2449
 2885DOPG   C3B56483  13.375  21.259  13.031 -0.0198  0.2477  0.3827
 2885DOPG   C4B56484  13.320  21.607  13.347  0.2163  0.0418 -0.2619
 2886DOPG   GL056485  18.364  17.156  10.564 -0.2560  0.3508 -0.2178
 2886DOPG   PO456486  18.195  16.822  10.888  0.0384 -0.1800  0.0836
 2886DOPG   GL156487  18.270  16.553  11.218  0.1711 -0.0293 -0.0637
 2886DOPG   GL256488  18.026  16.510  11.492  0.0126 -0.0943 -0.0116
 2886DOPG   C1A56489  18.545  16.604  11.650  0.3048 -0.3455  0.1555
 2886DOPG   D2A56490  18.539  16.629  12.077 -0.1370  0.0073 -0.2561
 2886DOPG   C3A56491  18.546  16.774  12.526 -0.0529 -0.2324  0.4335
 2886DOPG   C4A56492  18.660  16.771  12.877  0.2487 -0.0999 -0.1327
 2886DOPG   C1B56493  17.663  16.618  11.758  0.1932  0.0675 -0.0124
 2886DOPG   D2B56494  17.623  16.402  12.209 -0.0389  0.3046 -0.0314
 2886DOPG   C3B56495  17.890  16.419  12.532  0.4049 -0.3340  0.1099
 2886DOPG   C4B56496  18.228  16.316  12.801 -0.1014 -0.2017 -0.0897
 2887DOPG   GL056497  14.318   7.451  14.268 -0.0161 -0.0298 -0.0001
 2887DOPG   PO456498  14.110   7.645  14.604 -0.1742  0.0569  0.3050
 2887DOPG   GL156499  14.040   7.915  14.930  0.3852 -0.1111  0.2423
 2887DOPG   GL256500  13.721   7.886  14.927  0.0843  0.1127  0.0703
 2887DOPG   C1A56501  13.737   8.352  14.994 -0.0021 -0.0493 -0.1994
 2887DOPG   D2A56502  13.226   8.301  15.167  0.2206 -0.0677 -0.2285
 2887DOPG   C3A56503  13.219   8.680  15.390 -0.0911  0.1767  0.0527
 2887DOPG   C4A56504  13.360   8.934  15.588  0.0053 -0.3555  0.3336
 2887DOPG   C1B56505  13.836   7.847  15.371  0.2272 -0.0669  0.0020
 2887DOPG   D2B56506  13.643   7.807  15.825  0.0331  0.2402 -0.0684
 2887DOPG   C3B56507  13.670   7.928  16.148  0.1507  0.3971 -0.0763
 2887DOPG   C4B56508  13.727   7.999  16.577  0.2774 -0.1591  0.0025
 2888DOPG   GL056509  12.826   8.994  13.525  0.0581  0.2492 -0.0800
 2888DOPG   PO456510  13.235   8.781  13.672  0.0169  0.0543 -0.0832
 2888DOPG   GL156511  13.091   8.882  13.995  0.0511  0.0737 -0.0161
 2888DOPG   GL256512  12.891   9.263  13.967  0.0310  0.3466  0.0503
 2888DOPG   C1A56513  13.313   8.820  14.394 -0.1680 -0.1287  0.4262
 2888DOPG   D2A56514  13.278   8.897  14.916 -0.1439 -0.0656 -0.3996
 2888DOPG   C3A56515  13.381   9.296  15.149  0.0027 -0.0494  0.2413
 2888DOPG   C4A56516  13.498   9.709  14.975 -0.0626 -0.0677  0.1601
 2888DOPG   C1B56517  12.939   9.357  14.384  0.0813 -0.0219 -0.0396
 2888DOPG   D2B56518  13.004   9.774  14.643  0.0710 -0.1459  0.0100
 2888DOPG   C3B56519  12.865   9.764  14.986 -0.0600 -0.0218  0.2897
 2888DOPG   C4B56520  12.521   9.981  15.135 -0.0090 -0.1212 -0.0107
 2889DOPG   GL056521   8.388   9.767  13.637  0.2221 -0.1496 -0.1137
 2889DOPG   PO456522   8.219  10.158  13.815 -0.1177 -0.0814 -0.4680
 2889DOPG   GL156523   8.713  10.282  13.983  0.0888  0.2733  0.2631
 2889DOPG   GL256524   9.004  10.125  14.121 -0.1886  0.2436  0.0876
 2889DOPG   C1A56525   8.763  10.506  14.379 -0.2400 -0.0024 -0.1034
 2889DOPG   D2A56526   8.586  10.803  14.731  0.3720 -0.0944  0.4041
 2889DOPG   C3A56527   8.686  11.207  14.740  0.0506  0.1697  0.0222
 2889DOPG   C4A56528   8.976  11.649  14.597 -0.1847 -0.0527  0.1220
 2889DOPG   C1B56529   9.112  10.141  14.520 -0.0060 -0.1521 -0.0579
 2889DOPG   D2B56530   9.328  10.264  14.974 -0.4201 -0.0995  0.1098
 2889DOPG   C3B56531   9.043  10.123  15.126  0.0902 -0.0396  0.1010
 2889DOPG   C4B56532   8.828  10.166  15.487 -0.0922 -0.2622 -0.1641
 2890DOPG   GL056533  15.891  15.999  10.523  0.1776 -0.0486 -0.0671
 2890DOPG   PO456534  15.684  16.102  10.899  0.0176 -0.0587 -0.1054
 2890DOPG   GL156535  15.763  15.936  11.341  0.1234  0.2503  0.0433
 2890DOPG   GL256536  15.654  16.098  11.592 -0.4999 -0.0181 -0.0408
 2890DOPG   C1A56537  16.081  15.635  11.540  0.0841  0.1032  0.0494
 2890DOPG   D2A56538  16.273  15.401  11.870  0.2198 -0.0365  0.1511
 2890DOPG   C3A56539  16.258  15.076  12.271  0.0445  0.0799  0.0909
 2890DOPG   C4A56540  16.104  15.060  12.710 -0.1574  0.2374  0.2260
 2890DOPG   C1B56541  15.642  16.417  11.913  0.2132  0.0167  0.3004
 2890DOPG   D2B56542  15.404  16.433  12.287 -0.0332 -0.0852  0.2124
 2890DOPG   C3B56543  15.384  16.676  12.768 -0.0648  0.1570 -0.1684
 2890DOPG   C4B56544  15.023  16.902  13.060  0.1027 -0.0226 -0.3067
 2891DOPG   GL056545  10.547  19.272  11.558 -0.2860  0.0928 -0.2572
 2891DOPG   PO456546  10.402  18.990  11.866 -0.0297  0.0680 -0.0027
 2891DOPG   GL156547  10.816  19.084  11.910 -0.0073  0.0415  0.1307
 2891DOPG   GL256548  10.771  18.827  12.126  0.1264  0.1781  0.2894
 2891DOPG   C1A56549  11.085  19.365  12.242 -0.1111 -0.1316 -0.0184
 2891DOPG   D2A56550  11.002  19.536  12.659 -0.0872  0.0573 -0.0626
 2891DOPG   C3A56551  11.285  19.831  12.949  0.2404 -0.1945 -0.0095
 2891DOPG   C4A56552  11.454  19.925  13.387  0.0207  0.0740 -0.0525
 2891DOPG   C1B56553  10.979  18.945  12.488 -0.2834 -0.1556 -0.0993
 2891DOPG   D2B56554  11.164  19.084  12.843  0.3344  0.1835  0.0495
 2891DOPG   C3B56555  10.839  19.120  13.204  0.3172  0.3320 -0.1615
 2891DOPG   C4B56556  10.531  19.048  13.419 -0.0399  0.1858  0.1232
 2892DOPG   GL056557  10.710  11.343  12.773  0.0527 -0.3479 -0.5286
 2892DOPG   PO456558  10.996  11.499  12.441 -0.0919 -0.2861  0.0179
 2892DOPG   GL156559  11.216  11.319  12.850  0.0898  0.0437  0.0906
 2892DOPG   GL256560  10.991  11.036  13.091  0.1992 -0.1196  0.1374
 2892DOPG   C1A56561  11.478  11.516  13.242 -0.0319 -0.3433 -0.0986
 2892DOPG   D2A56562  11.342  11.643  13.538  0.1008  0.1124  0.1863
 2892DOPG   C3A56563  11.446  12.021  13.764 -0.0410  0.0183  0.3359
 2892DOPG   C4A56564  11.231  12.468  13.920 -0.4311  0.1545 -0.0390
 2892DOPG   C1B56565  11.301  11.018  13.217  0.1348 -0.1098 -0.1565
 2892DOPG   D2B56566  11.471  10.751  13.557 -0.0389 -0.1825 -0.2913
 2892DOPG   C3B56567  11.848  10.736  13.635 -0.2689  0.1915  0.1156
 2892DOPG   C4B56568  12.331  10.938  13.664 -0.0155 -0.1826 -0.4990
 2893DOPG   GL056569  20.546  19.134  11.975  0.0480  0.0238  0.1776
 2893DOPG   PO456570  20.730  19.565  11.944 -0.1739  0.3238  0.0357
 2893DOPG   GL156571  20.382  19.542  12.191 -0.0039 -0.1096 -0.2443
 2893DOPG   GL256572  20.044  19.635  12.100  0.0149 -0.1361  0.0759
 2893DOPG   C1A56573  20.160  19.401  12.531  0.1636  0.2024  0.1738
 2893DOPG   D2A56574  19.956  19.277  12.646  0.1091  0.0740  0.0693
 2893DOPG   C3A56575  19.948  19.231  13.078  0.1099 -0.3238 -0.0485
 2893DOPG   C4A56576  20.095  19.507  13.377  0.1537 -0.2412  0.4704
 2893DOPG   C1B56577  20.225  19.907  12.479 -0.5149 -0.0147 -0.0852
 2893DOPG   D2B56578  20.029  19.769  12.897  0.1936 -0.2589  0.0204
 2893DOPG   C3B56579  19.659  20.008  13.037 -0.2464 -0.0446 -0.0886
 2893DOPG   C4B56580  19.413  20.192  13.249  0.0455  0.2982 -0.1695
 2894DOPG   GL056581  20.808  20.569  12.236  0.0751 -0.0340  0.0433
 2894DOPG   PO456582  20.821  20.100  12.249  0.3517  0.1561 -0.0157
 2894DOPG   GL156583  20.648  20.288  12.632  0.0848  0.2882 -0.2979
 2894DOPG   GL256584  20.268  20.452  12.518 -0.0749 -0.1535  0.1150
 2894DOPG   C1A56585  20.769  20.383  13.104  0.1912 -0.1617  0.1831
 2894DOPG   D2A56586  21.279  20.368  13.206  0.0138 -0.2272 -0.1753
 2894DOPG   C3A56587  21.557  20.653  13.357 -0.2474  0.2030  0.0387
 2894DOPG   C4A56588  21.812  20.691  13.672 -0.0311 -0.3037  0.2417
 2894DOPG   C1B56589  19.853  20.230  12.633  0.0482 -0.1463 -0.1883
 2894DOPG   D2B56590  19.699  19.787  12.508  0.1302  0.0646 -0.0993
 2894DOPG   C3B56591  19.553  19.507  12.791  0.0935 -0.2508  0.2172
 2894DOPG   C4B56592  19.462  19.565  13.148  0.0369 -0.1640 -0.1893
 2895DOPG   GL056593  17.382  10.050  13.537 -0.0482  0.2828 -0.1269
 2895DOPG   PO456594  16.910  10.273  13.632  0.1079  0.2725  0.1530
 2895DOPG   GL156595  17.070  10.706  13.808  0.2581 -0.0299  0.1204
 2895DOPG   GL256596  17.056  10.957  13.642  0.0871  0.3732  0.2067
 2895DOPG   C1A56597  16.925  10.942  14.278 -0.2731  0.2932 -0.4087
 2895DOPG   D2A56598  16.835  11.021  14.725 -0.1919  0.1785 -0.0137
 2895DOPG   C3A56599  16.702  11.446  14.906 -0.3370  0.1958  0.0743
 2895DOPG   C4A56600  16.652  11.794  15.160  0.0759 -0.5905 -0.1694
 2895DOPG   C1B56601  16.831  11.242  13.847  0.0490  0.0628  0.1540
 2895DOPG   D2B56602  16.550  11.553  13.975 -0.5167 -0.3108  0.2674
 2895DOPG   C3B56603  16.688  11.900  13.830  0.2698 -0.0427 -0.0597
 2895DOPG   C4B56604  16.951  12.132  13.546 -0.0450  0.1948  0.2409
 2896DOPG   GL056605   9.359  14.218  12.281  0.7743 -0.2146 -0.1607
 2896DOPG   PO456606   9.127  14.061  12.664  0.2970 -0.0703 -0.0222
 2896DOPG   GL156607   9.660  13.991  12.783  0.0672  0.2075  0.2139
 2896DOPG   GL256608   9.952  13.954  12.750  0.1535  0.1386 -0.4401
 2896DOPG   C1A56609   9.872  14.126  13.209  0.2000 -0.2527 -0.1991
 2896DOPG   D2A56610   9.989  14.275  13.659 -0.1270  0.1089 -0.1778
 2896DOPG   C3A56611  10.174  14.043  14.019 -0.1241 -0.1957 -0.0183
 2896DOPG   C4A56612  10.139  13.984  14.416  0.3317 -0.0045 -0.4180
 2896DOPG   C1B56613  10.423  14.055  12.838  0.2907  0.0730  0.1493
 2896DOPG   D2B56614  10.727  14.066  13.191 -0.3399 -0.0363 -0.2311
 2896DOPG   C3B56615  10.832  13.613  13.369 -0.3254 -0.2773 -0.0475
 2896DOPG   C4B56616  10.799  13.168  13.538  0.1339  0.3311 -0.0913
 2897DOPG   GL056617  16.211  21.156  11.700 -0.2526  0.0962  0.1437
 2897DOPG   PO456618  16.331  20.987  12.049 -0.0013  0.0053  0.2380
 2897DOPG   GL156619  16.425  20.588  12.233 -0.1224  0.0796 -0.1886
 2897DOPG   GL256620  16.674  20.694  12.398  0.3055 -0.0859  0.0811
 2897DOPG   C1A56621  16.282  20.315  12.533  0.0319  0.2002  0.1078
 2897DOPG   D2A56622  16.008  19.999  12.828 -0.2216  0.1862  0.1755
 2897DOPG   C3A56623  15.695  20.104  13.034 -0.0445  0.0176  0.1035
 2897DOPG   C4A56624  15.418  19.844  13.156 -0.0967 -0.0598 -0.4084
 2897DOPG   C1B56625  16.832  20.316  12.606 -0.2678  0.0661 -0.1323
 2897DOPG   D2B56626  16.840  19.900  12.905  0.0380 -0.2164  0.1656
 2897DOPG   C3B56627  16.545  19.712  13.208 -0.1602  0.2656 -0.1781
 2897DOPG   C4B56628  16.412  19.323  13.256 -0.0667  0.2823 -0.1145
 2898DOPG   GL056629  11.889  19.141  10.884 -0.1008  0.0748  0.1637
 2898DOPG   PO456630  11.847  18.917  11.270 -0.0839 -0.2403 -0.0258
 2898DOPG   GL156631  11.715  18.845  11.626  0.0608  0.1612 -0.2459
 2898DOPG   GL256632  11.926  18.505  11.706  0.0146 -0.2053 -0.2610
 2898DOPG   C1A56633  11.884  18.843  12.098 -0.0647 -0.0825 -0.2441
 2898DOPG   D2A56634  12.318  18.629  12.248  0.1443  0.0388  0.1505
 2898DOPG   C3A56635  12.589  18.965  12.514  0.2551 -0.2847 -0.1706
 2898DOPG   C4A56636  12.644  19.308  12.812  0.1753  0.2287  0.0891
 2898DOPG   C1B56637  11.755  18.339  12.146 -0.2502 -0.0872  0.1993
 2898DOPG   D2B56638  11.670  18.579  12.459  0.2539 -0.1579  0.0945
 2898DOPG   C3B56639  12.062  18.601  12.749 -0.1157  0.1255  0.1406
 2898DOPG   C4B56640  12.244  18.951  13.097 -0.1503 -0.0118  0.3024
 2899DOPG   GL056641  12.392  22.977  13.035  0.2245 -0.0755  0.0493
 2899DOPG   PO456642  12.007  22.823  12.917  0.1936 -0.1615 -0.1340
 2899DOPG   GL156643  11.994  22.808  13.365  0.0871 -0.1613 -0.0086
 2899DOPG   GL256644  12.201  22.803  13.695 -0.1500  0.0814  0.0353
 2899DOPG   C1A56645  11.646  22.927  13.721 -0.1029  0.1449 -0.2253
 2899DOPG   D2A56646  11.612  23.161  14.148  0.1928 -0.0538  0.1569
 2899DOPG   C3A56647  11.355  23.021  14.493  0.2795  0.2826 -0.3420
 2899DOPG   C4A56648  11.272  22.810  14.892 -0.2427  0.1546  0.0235
 2899DOPG   C1B56649  12.239  22.443  13.902  0.1798  0.3947 -0.1574
 2899DOPG   D2B56650  12.235  22.099  14.144  0.0704 -0.3616 -0.2629
 2899DOPG   C3B56651  12.612  22.025  14.445  0.1641 -0.0438 -0.1048
 2899DOPG   C4B56652  12.776  22.135  14.899  0.4224 -0.0981 -0.4347
 2900DOPG   GL056653  19.131  23.920  15.478 -0.2723 -0.1469  0.1467
 2900DOPG   PO456654  18.732  24.007  15.388  0.0165 -0.0290  0.3785
 2900DOPG   GL156655  18.540  23.534  15.441  0.1301  0.2982 -0.2679
 2900DOPG   GL256656  18.417  23.369  15.668  0.0174 -0.2010  0.0317
 2900DOPG   C1A56657  18.627  23.106  15.286 -0.0902  0.1281 -0.3569
 2900DOPG   D2A56658  18.432  22.966  14.938 -0.4618 -0.0858  0.0960
 2900DOPG   C3A56659  18.309  22.533  15.010 -0.1555 -0.2894 -0.1145
 2900DOPG   C4A56660  18.001  22.175  14.902 -0.0811  0.2600  0.3874
 2900DOPG   C1B56661  18.415  23.102  15.878  0.1331 -0.1722 -0.0470
 2900DOPG   D2B56662  18.411  22.755  16.181  0.0251  0.0196  0.6301
 2900DOPG   C3B56663  18.727  22.457  16.064  0.0410 -0.0886 -0.2639
 2900DOPG   C4B56664  19.081  22.121  15.979  0.0307 -0.0307 -0.0107
 2901DOPG   GL056665  12.229  15.137  11.046 -0.1066 -0.2121  0.1933
 2901DOPG   PO456666  11.792  14.883  11.188  0.1548  0.3036 -0.0919
 2901DOPG   GL156667  11.961  14.855  11.479 -0.1279 -0.2762  0.0528
 2901DOPG   GL256668  11.657  14.672  11.721 -0.0504 -0.0948 -0.0678
 2901DOPG   C1A56669  12.163  14.714  11.820 -0.3051 -0.0682  0.3426
 2901DOPG   D2A56670  12.121  14.630  12.258 -0.3275 -0.0592  0.0380
 2901DOPG   C3A56671  12.409  14.458  12.427 -0.2073  0.2498 -0.3311
 2901DOPG   C4A56672  12.337  14.419  12.904  0.3356  0.1680 -0.0743
 2901DOPG   C1B56673  11.680  14.919  12.053 -0.1912 -0.0909  0.0483
 2901DOPG   D2B56674  12.074  15.126  12.294  0.3807 -0.0582 -0.1172
 2901DOPG   C3B56675  12.323  14.987  12.597  0.0016 -0.0228 -0.0099
 2901DOPG   C4B56676  12.667  14.793  12.778 -0.4044 -0.2307  0.3081
 2902DOPG   GL056677  13.846   9.399  13.643 -0.1775 -0.3738 -0.2603
 2902DOPG   PO456678  13.966   9.630  13.296 -0.1175 -0.0186 -0.2356
 2902DOPG   GL156679  13.956   9.980  13.406 -0.0166  0.1929  0.3375
 2902DOPG   GL256680  13.993  10.001  13.771 -0.0791 -0.0373 -0.0590
 2902DOPG   C1A56681  13.800  10.287  13.316  0.1852 -0.1473 -0.0419
 2902DOPG   D2A56682  13.810  10.776  13.201 -0.5322  0.0525 -0.2850
 2902DOPG   C3A56683  14.062  11.102  13.418  0.2946 -0.2392 -0.3396
 2902DOPG   C4A56684  14.284  11.530  13.356  0.0666 -0.0031 -0.0747
 2902DOPG   C1B56685  14.145  10.380  13.697  0.0797  0.2027  0.0303
 2902DOPG   D2B56686  14.495  10.611  13.915  0.2801  0.1316  0.1092
 2902DOPG   C3B56687  14.539  11.097  13.727  0.1891 -0.0010 -0.0236
 2902DOPG   C4B56688  14.479  11.512  13.844  0.2299  0.1213  0.0264
 2903DOPG   GL056689  18.704  18.298  10.820  0.0040 -0.3525 -0.2772
 2903DOPG   PO456690  18.698  17.821  11.031  0.0200  0.2011 -0.1658
 2903DOPG   GL156691  18.466  17.624  11.297  0.0854  0.3028 -0.0025
 2903DOPG   GL256692  18.439  17.767  11.616 -0.1296  0.1386  0.2003
 2903DOPG   C1A56693  18.733  17.382  11.653 -0.4042  0.2329 -0.1779
 2903DOPG   D2A56694  18.726  17.043  11.874 -0.1958  0.3968  0.0518
 2903DOPG   C3A56695  18.441  17.186  12.122  0.1162  0.2231 -0.0725
 2903DOPG   C4A56696  18.434  17.256  12.589  0.0039 -0.3115 -0.0183
 2903DOPG   C1B56697  18.270  17.621  11.952 -0.0539  0.0713  0.2411
 2903DOPG   D2B56698  17.857  17.842  12.048 -0.1055  0.2220  0.2177
 2903DOPG   C3B56699  17.426  17.912  12.167 -0.0911 -0.2065 -0.2902
 2903DOPG   C4B56700  17.365  18.042  12.656 -0.0078  0.1722  0.0535
 2904DOPG   GL056701  17.687  12.206  12.241  0.2725 -0.0155  0.2248
 2904DOPG   PO456702  17.331  12.476  12.254  0.2970  0.0021  0.0179
 2904DOPG   GL156703  16.968  12.587  12.510 -0.0167 -0.0263 -0.0188
 2904DOPG   GL256704  17.026  12.880  12.712  0.0529 -0.4382  0.0911
 2904DOPG   C1A56705  16.551  12.794  12.702  0.1488 -0.1947 -0.0593
 2904DOPG   D2A56706  16.228  13.051  12.812 -0.2035  0.5133  0.0286
 2904DOPG   C3A56707  15.799  13.192  12.693 -0.2768 -0.1366  0.0680
 2904DOPG   C4A56708  15.423  13.110  12.523  0.0451  0.4136  0.3951
 2904DOPG   C1B56709  17.379  12.783  13.017 -0.3994  0.0006  0.1093
 2904DOPG   D2B56710  17.351  12.682  13.424  0.3103 -0.1281 -0.2353
 2904DOPG   C3B56711  17.399  12.953  13.769 -0.0727  0.1331  0.0933
 2904DOPG   C4B56712  17.377  13.396  13.977 -0.2873  0.0817  0.2594
 2905DOPG   GL056713   7.773  17.213  14.159  0.2589 -0.1183  0.6831
 2905DOPG   PO456714   8.010  17.378  13.862 -0.1630  0.2226  0.0426
 2905DOPG   GL156715   8.250  17.304  14.158  0.0137 -0.1452 -0.2412
 2905DOPG   GL256716   8.192  17.332  14.411  0.1478 -0.0824  0.1334
 2905DOPG   C1A56717   8.643  17.432  14.083 -0.2094  0.1407  0.2340
 2905DOPG   D2A56718   9.032  17.217  14.112  0.1052  0.0209  0.1527
 2905DOPG   C3A56719   9.217  17.327  14.601  0.2784  0.2615  0.0094
 2905DOPG   C4A56720   9.118  17.658  14.801 -0.1570  0.3939  0.0069
 2905DOPG   C1B56721   7.906  17.469  14.706  0.3473  0.3924 -0.0457
 2905DOPG   D2B56722   7.707  17.621  15.004 -0.2034 -0.2770 -0.3114
 2905DOPG   C3B56723   7.687  18.069  15.147 -0.2216  0.1586 -0.0040
 2905DOPG   C4B56724   7.695  18.419  15.425 -0.1744 -0.0322  0.0944
 2906DOPG   GL056725  12.233  13.009  10.958 -0.1131  0.0038 -0.2871
 2906DOPG   PO456726  12.328  12.998  11.417 -0.3275  0.1017  0.1397
 2906DOPG   GL156727  12.642  13.162  11.577  0.1617 -0.2688  0.0382
 2906DOPG   GL256728  12.770  13.477  11.486  0.0896  0.0961  0.3902
 2906DOPG   C1A56729  13.026  13.228  11.859 -0.1865 -0.0219 -0.2230
 2906DOPG   D2A56730  12.806  13.532  12.069 -0.3034 -0.3427  0.1628
 2906DOPG   C3A56731  12.918  13.899  11.924  0.3285  0.0376 -0.1547
 2906DOPG   C4A56732  12.934  14.238  11.726 -0.3618  0.1419 -0.1567
 2906DOPG   C1B56733  12.490  13.757  11.682 -0.0897  0.1908 -0.1455
 2906DOPG   D2B56734  12.371  13.851  12.112  0.1042  0.0838  0.0522
 2906DOPG   C3B56735  12.363  13.500  12.265 -0.0131 -0.3043  0.0274
 2906DOPG   C4B56736  12.158  13.150  12.446  0.2969 -0.0121  0.2379
 2907DOPG   GL056737   8.621  23.844  13.926  0.0399  0.2076  0.1010
 2907DOPG   PO456738   8.917  23.993  14.161  0.1816  0.0758  0.1641
 2907DOPG   GL156739   8.634  23.834  14.448  0.0640  0.0618  0.0592
 2907DOPG   GL256740   8.493  23.520  14.288 -0.1015  0.1205  0.2097
 2907DOPG   C1A56741   8.571  23.792  14.885  0.0299  0.1745  0.0025
 2907DOPG   D2A56742   8.896  23.406  15.152 -0.1678 -0.0757 -0.3387
 2907DOPG   C3A56743   9.140  23.392  15.524 -0.0978 -0.0123 -0.0300
 2907DOPG   C4A56744   9.518  23.260  15.646 -0.1892 -0.2939  0.0172
 2907DOPG   C1B56745   8.633  23.343  14.743 -0.2381  0.0903 -0.1386
 2907DOPG   D2B56746   8.701  22.936  14.922 -0.1220 -0.1059 -0.0037
 2907DOPG   C3B56747   8.899  22.986  15.352  0.3049 -0.0748  0.0283
 2907DOPG   C4B56748   9.003  22.963  15.770  0.1466 -0.1881  0.3134
 2908DOPG   GL056749  11.204   7.186  18.743  0.0108 -0.2637  0.1477
 2908DOPG   PO456750  11.359   6.914  18.993 -0.0911  0.1162  0.0010
 2908DOPG   GL156751  11.297   7.293  19.199  0.3079  0.0072 -0.3758
 2908DOPG   GL256752  10.986   7.550  19.164  0.0910 -0.1063 -0.1257
 2908DOPG   C1A56753  11.534   7.754  19.216  0.2153  0.0136 -0.2617
 2908DOPG   D2A56754  11.795   8.028  19.002 -0.1678 -0.0204 -0.1514
 2908DOPG   C3A56755  12.136   8.286  19.199 -0.1340 -0.0316 -0.3521
 2908DOPG   C4A56756  12.559   8.166  19.058  0.4031  0.1464 -0.0783
 2908DOPG   C1B56757  11.014   7.925  19.011  0.2741  0.0287  0.0254
 2908DOPG   D2B56758  11.291   8.233  19.005 -0.0916  0.5261 -0.1057
 2908DOPG   C3B56759  11.326   8.663  19.085 -0.1175 -0.3986  0.2560
 2908DOPG   C4B56760  11.195   9.060  19.350 -0.1345 -0.0836  0.2764
 2909DOPG   GL056761  14.307  11.934  12.207  0.3232 -0.0669 -0.1894
 2909DOPG   PO456762  14.678  11.854  11.915 -0.0275 -0.3585  0.0671
 2909DOPG   GL156763  14.788  11.765  12.311  0.3630 -0.2949 -0.1424
 2909DOPG   GL256764  15.052  11.571  12.440  0.2644 -0.2329  0.1250
 2909DOPG   C1A56765  14.722  11.937  12.754  0.0848 -0.2942  0.1646
 2909DOPG   D2A56766  14.904  12.253  13.008  0.0719  0.0208  0.1437
 2909DOPG   C3A56767  14.670  12.433  13.389  0.0794  0.3727  0.0212
 2909DOPG   C4A56768  14.238  12.616  13.299 -0.0740  0.1176  0.4747
 2909DOPG   C1B56769  15.108  11.367  12.805 -0.0255 -0.0961 -0.1201
 2909DOPG   D2B56770  15.347  11.274  13.153 -0.0237  0.1059 -0.0405
 2909DOPG   C3B56771  15.372  11.387  13.562 -0.1803 -0.1203  0.1702
 2909DOPG   C4B56772  14.960  11.376  13.804 -0.1582  0.2880 -0.1293
 2910DOPG   GL056773  20.921  14.040  13.048  0.1844 -0.0272 -0.1826
 2910DOPG   PO456774  21.130  13.902  13.441 -0.1495  0.2897  0.1757
 2910DOPG   GL156775  20.711  13.962  13.635  0.1661  0.1424  0.0648
 2910DOPG   GL256776  20.425  14.202  13.464  0.0618 -0.2041 -0.1815
 2910DOPG   C1A56777  20.350  13.818  13.861 -0.0917  0.2299 -0.3356
 2910DOPG   D2A56778  19.976  13.813  13.919  0.0759 -0.0841 -0.2292
 2910DOPG   C3A56779  19.579  14.024  14.038 -0.1341 -0.3424 -0.1744
 2910DOPG   C4A56780  19.449  14.197  14.361 -0.1304  0.0433 -0.1561
 2910DOPG   C1B56781  20.060  14.211  13.628 -0.0229  0.0807  0.5019
 2910DOPG   D2B56782  19.907  14.422  13.904  0.1627  0.1760  0.0816
 2910DOPG   C3B56783  20.044  14.827  14.119  0.2035  0.1121 -0.2858
 2910DOPG   C4B56784  19.943  15.288  14.330 -0.1137  0.1316 -0.1362
 2911DOPG   GL056785  14.713  17.882  11.202 -0.2739  0.0245  0.0230
 2911DOPG   PO456786  14.537  18.137  10.894 -0.4845 -0.2747 -0.1969
 2911DOPG   GL156787  14.242  18.329  11.209  0.2500 -0.0459  0.0095
 2911DOPG   GL256788  14.309  18.612  11.352 -0.2318 -0.0469  0.0433
 2911DOPG   C1A56789  13.966  18.187  11.577 -0.0334 -0.2245 -0.1787
 2911DOPG   D2A56790  14.104  18.439  11.946  0.4354  0.0176 -0.1839
 2911DOPG   C3A56791  13.957  18.754  11.787 -0.0361  0.0980  0.0148
 2911DOPG   C4A56792  13.731  19.097  11.843 -0.0203 -0.0629 -0.0222
 2911DOPG   C1B56793  14.531  18.411  11.569  0.0303 -0.0752 -0.1930
 2911DOPG   D2B56794  14.484  17.910  11.742 -0.0537 -0.0552  0.0272
 2911DOPG   C3B56795  14.494  17.821  12.217  0.0553  0.3860  0.1892
 2911DOPG   C4B56796  14.545  17.534  12.473 -0.0073 -0.1084 -0.0248
 2912DOPG   GL056797  16.541  11.678  12.273  0.1554 -0.0948 -0.3063
 2912DOPG   PO456798  16.170  11.469  12.302  0.4062 -0.1525 -0.3946
 2912DOPG   GL156799  16.047  11.673  12.610  0.4251 -0.0859  0.1605
 2912DOPG   GL256800  16.354  11.846  12.709 -0.0939 -0.0461 -0.1481
 2912DOPG   C1A56801  15.851  11.997  12.936  0.0787 -0.2664  0.4270
 2912DOPG   D2A56802  15.845  12.170  13.290 -0.0877  0.0158  0.0128
 2912DOPG   C3A56803  15.440  12.450  13.427  0.2558  0.0743 -0.4080
 2912DOPG   C4A56804  15.117  12.268  13.473 -0.0270  0.0169 -0.3322
 2912DOPG   C1B56805  16.191  11.706  13.157 -0.1280  0.0154  0.2220
 2912DOPG   D2B56806  16.241  11.774  13.589  0.0713  0.2213 -0.3826
 2912DOPG   C3B56807  15.944  11.511  13.779 -0.0199 -0.0179 -0.1200
 2912DOPG   C4B56808  15.458  11.645  13.950 -0.2626 -0.1134  0.1986
 2913DOPG   GL056809  17.702  24.690  16.693 -0.2114 -0.1428 -0.1336
 2913DOPG   PO456810  17.590  24.607  16.207  0.0990  0.0690 -0.3445
 2913DOPG   GL156811  17.519  24.228  16.503 -0.0941 -0.1035  0.2697
 2913DOPG   GL256812  17.430  24.062  16.276 -0.0529 -0.1431 -0.0075
 2913DOPG   C1A56813  17.517  23.861  16.747  0.1300 -0.0427  0.2585
 2913DOPG   D2A56814  17.418  23.961  17.096 -0.1247 -0.1021  0.0329
 2913DOPG   C3A56815  17.477  23.684  17.466 -0.1650 -0.0327 -0.1424
 2913DOPG   C4A56816  17.557  23.930  17.679  0.1471  0.2387 -0.1918
 2913DOPG   C1B56817  17.695  23.797  16.048 -0.1011 -0.2745  0.1027
 2913DOPG   D2B56818  18.060  23.534  16.029  0.0938  0.6309  0.1361
 2913DOPG   C3B56819  17.975  23.122  15.754 -0.0179 -0.0137  0.0048
 2913DOPG   C4B56820  18.124  22.902  15.499 -0.0965  0.1287 -0.3596
 2914DOPG   GL056821  21.489  14.924  13.095  0.1767  0.0913  0.3368
 2914DOPG   PO456822  21.317  14.818  12.692  0.1714 -0.3043 -0.2383
 2914DOPG   GL156823  20.950  14.883  13.087  0.0289  0.2261  0.0316
 2914DOPG   GL256824  21.003  14.917  13.362  0.2526 -0.2357 -0.4057
 2914DOPG   C1A56825  20.537  14.810  13.400  0.2127 -0.0787 -0.0864
 2914DOPG   D2A56826  20.256  14.732  13.638  0.3830 -0.0538 -0.3369
 2914DOPG   C3A56827  19.874  15.051  13.663  0.1063 -0.0115  0.0581
 2914DOPG   C4A56828  19.691  15.427  13.866 -0.0256  0.0322  0.2037
 2914DOPG   C1B56829  20.990  14.915  13.823  0.1195  0.0481  0.3601
 2914DOPG   D2B56830  20.983  15.365  14.047  0.0681  0.2174  0.3321
 2914DOPG   C3B56831  21.194  15.687  14.232  0.1817 -0.0771 -0.1081
 2914DOPG   C4B56832  21.125  16.035  14.304  0.0714 -0.0820  0.0907
 2915DOPG   GL056833  11.874  21.923  11.768  0.0448  0.2016 -0.1153
 2915DOPG   PO456834  11.640  21.866  12.210 -0.0486  0.1603 -0.0156
 2915DOPG   GL156835  11.968  21.633  12.505  0.0852  0.3391  0.1929
 2915DOPG   GL256836  12.370  21.547  12.601 -0.0812  0.2899 -0.2611
 2915DOPG   C1A56837  11.844  21.383  12.897 -0.0833 -0.0536  0.3036
 2915DOPG   D2A56838  11.437  21.475  13.100  0.0984  0.0609  0.2939
 2915DOPG   C3A56839  11.449  21.527  13.536  0.2719 -0.0997  0.1446
 2915DOPG   C4A56840  11.440  21.835  13.822 -0.1438 -0.3104 -0.5258
 2915DOPG   C1B56841  12.637  21.158  12.759 -0.1256  0.2541 -0.0162
 2915DOPG   D2B56842  12.663  21.065  13.193 -0.1731  0.2605  0.1820
 2915DOPG   C3B56843  13.113  20.985  13.405  0.0191  0.2465  0.0905
 2915DOPG   C4B56844  13.539  21.070  13.480  0.3458 -0.0041 -0.3860
 2916DOPG   GL056845   7.804  14.134  13.477 -0.0152 -0.0688  0.0830
 2916DOPG   PO456846   7.885  13.671  13.292 -0.4040 -0.2350 -0.2170
 2916DOPG   GL156847   7.904  13.566  13.726  0.1017  0.1217 -0.1092
 2916DOPG   GL256848   7.558  13.374  13.919  0.0465 -0.1941  0.2166
 2916DOPG   C1A56849   8.014  13.279  13.991 -0.0070 -0.0281 -0.2028
 2916DOPG   D2A56850   7.829  13.084  14.253 -0.1141  0.2511  0.0903
 2916DOPG   C3A56851   7.686  12.545  14.270 -0.2272  0.4592 -0.0964
 2916DOPG   C4A56852   7.314  12.454  14.544  0.0612 -0.1294 -0.2365
 2916DOPG   C1B56853   7.556  13.478  14.365 -0.0349 -0.1141 -0.0980
 2916DOPG   D2B56854   7.259  13.587  14.734  0.0872  0.1412  0.0482
 2916DOPG   C3B56855   7.025  14.023  14.928 -0.3819 -0.0912 -0.0769
 2916DOPG   C4B56856   6.653  14.216  15.151  0.2270  0.3409 -0.3298
 2917DOPG   GL056857  19.678  23.530  15.413 -0.0141  0.2201  0.2434
 2917DOPG   PO456858  19.894  23.862  15.760  0.0455  0.0239 -0.1295
 2917DOPG   GL156859  19.932  23.698  16.153 -0.1355  0.0415 -0.0686
 2917DOPG   GL256860  20.112  23.717  16.317 -0.2577  0.2485  0.2844
 2917DOPG   C1A56861  19.729  23.457  16.467  0.2696  0.0952  0.1998
 2917DOPG   D2A56862  19.659  23.319  16.953 -0.1060 -0.1069  0.4203
 2917DOPG   C3A56863  19.498  22.995  16.977 -0.1107  0.0893  0.0712
 2917DOPG   C4A56864  19.273  22.644  16.794 -0.2703 -0.1471 -0.0585
 2917DOPG   C1B56865  20.129  23.357  16.684 -0.2347 -0.1445 -0.3737
 2917DOPG   D2B56866  20.063  22.857  16.810 -0.1799  0.1670 -0.2907
 2917DOPG   C3B56867  20.352  22.681  17.052  0.2197 -0.4328  0.0968
 2917DOPG   C4B56868  20.685  22.704  17.341 -0.1776 -0.1043 -0.0214
 2918DOPG   GL056869  10.323  10.824  12.495  0.1822  0.4616 -0.1679
 2918DOPG   PO456870  10.642  10.744  12.880  0.2492  0.3382 -0.0217
 2918DOPG   GL156871  10.449  10.914  13.122  0.0364 -0.0195  0.0120
 2918DOPG   GL256872  10.415  10.593  13.337  0.0176 -0.2245 -0.2435
 2918DOPG   C1A56873  10.311  11.269  13.394 -0.1325  0.2231 -0.1650
 2918DOPG   D2A56874  10.222  11.470  13.769  0.2733 -0.0144  0.2662
 2918DOPG   C3A56875   9.962  11.504  14.085 -0.0597  0.1358  0.0297
 2918DOPG   C4A56876   9.743  11.371  14.427  0.1330 -0.0900  0.0608
 2918DOPG   C1B56877  10.410  10.814  13.623 -0.0986 -0.0689 -0.0723
 2918DOPG   D2B56878  10.456  11.023  13.975  0.0134  0.2169 -0.0328
 2918DOPG   C3B56879  10.500  11.357  14.183 -0.1567 -0.0817 -0.3349
 2918DOPG   C4B56880  10.668  11.661  14.221  0.0272 -0.0376  0.2003
 2919DOPG   GL056881  15.682  24.162  15.796 -0.2979  0.2746 -0.1586
 2919DOPG   PO456882  15.423  24.174  15.483  0.0045 -0.1625  0.3308
 2919DOPG   GL156883  15.504  23.730  15.574  0.0159 -0.4820 -0.3019
 2919DOPG   GL256884  15.931  23.733  15.698  0.0240  0.1522 -0.0472
 2919DOPG   C1A56885  15.611  23.365  15.825 -0.3634 -0.1412  0.0793
 2919DOPG   D2A56886  15.344  23.011  15.957 -0.1015 -0.0278  0.1276
 2919DOPG   C3A56887  15.220  22.857  15.572  0.0365  0.0413 -0.2027
 2919DOPG   C4A56888  14.790  22.765  15.439 -0.0284  0.0965 -0.1099
 2919DOPG   C1B56889  16.025  23.296  15.598 -0.2890  0.2371  0.1446
 2919DOPG   D2B56890  16.176  22.916  15.455 -0.2378 -0.0955  0.0179
 2919DOPG   C3B56891  16.097  22.797  15.131 -0.3872  0.2401  0.0891
 2919DOPG   C4B56892  15.835  22.865  14.743 -0.1912  0.2072  0.2387
 2920DOPG   GL056893  18.000  12.064  12.621  0.1641 -0.1194  0.2387
 2920DOPG   PO456894  18.149  12.397  12.756  0.0528  0.0973  0.4777
 2920DOPG   GL156895  18.046  12.479  13.158 -0.1179 -0.1205 -0.2728
 2920DOPG   GL256896  18.317  12.656  13.335  0.0701  0.1636 -0.2312
 2920DOPG   C1A56897  17.880  12.475  13.526 -0.1112  0.1498  0.0884
 2920DOPG   D2A56898  17.561  12.262  13.604 -0.3402  0.0371 -0.1258
 2920DOPG   C3A56899  17.525  12.334  14.104  0.1394  0.0505 -0.2819
 2920DOPG   C4A56900  17.293  12.217  14.472  0.1088  0.1205 -0.3002
 2920DOPG   C1B56901  18.619  12.435  13.515 -0.2155  0.0395 -0.0394
 2920DOPG   D2B56902  18.714  12.166  13.922 -0.1630 -0.3144  0.1900
 2920DOPG   C3B56903  18.751  12.330  14.322 -0.1241 -0.2175 -0.3065
 2920DOPG   C4B56904  18.990  12.386  14.598  0.1548  0.1203 -0.1176
 2921DOPG   GL056905   6.698  23.721  12.131 -0.2665  0.0027  0.2906
 2921DOPG   PO456906   6.888  23.855  12.557 -0.0419 -0.1187 -0.1090
 2921DOPG   GL156907   7.012  23.389  12.655  0.0529  0.0082 -0.4534
 2921DOPG   GL256908   6.954  23.344  12.326  0.0521 -0.0448 -0.0823
 2921DOPG   C1A56909   6.906  23.091  12.940  0.0110  0.1313 -0.1467
 2921DOPG   D2A56910   6.533  22.900  13.087  0.1701 -0.0373  0.0393
 2921DOPG   C3A56911   6.711  22.479  13.344 -0.2122 -0.3070 -0.2169
 2921DOPG   C4A56912   6.903  22.129  13.459  0.3484  0.1379  0.3385
 2921DOPG   C1B56913   7.222  23.027  12.083  0.3581  0.0795 -0.3814
 2921DOPG   D2B56914   7.427  22.695  12.091 -0.0942 -0.2251  0.0451
 2921DOPG   C3B56915   7.553  22.258  12.389  0.2058  0.0923 -0.2656
 2921DOPG   C4B56916   7.501  21.722  12.458 -0.3759  0.0422  0.0081
 2922DOPG   GL056917  22.539  22.185  13.187 -0.2269  0.0919 -0.2468
 2922DOPG   PO456918  22.442  21.866  13.400 -0.1706  0.4475  0.0648
 2922DOPG   GL156919  22.266  21.833  13.785 -0.4278 -0.0702  0.3629
 2922DOPG   GL256920  21.945  22.036  13.928 -0.0686  0.0110  0.2268
 2922DOPG   C1A56921  22.159  21.548  14.150  0.2353 -0.1802 -0.4084
 2922DOPG   D2A56922  22.087  21.238  14.488 -0.1703 -0.3258 -0.3566
 2922DOPG   C3A56923  21.699  21.023  14.589 -0.2230 -0.0783  0.0274
 2922DOPG   C4A56924  21.720  20.560  14.707 -0.0561 -0.2160  0.1142
 2922DOPG   C1B56925  21.681  21.871  14.189  0.0151 -0.1520  0.2848
 2922DOPG   D2B56926  21.610  21.498  14.363  0.1674  0.0679 -0.0745
 2922DOPG   C3B56927  21.395  21.161  14.176 -0.0811  0.4065  0.1741
 2922DOPG   C4B56928  21.393  20.874  13.813 -0.0443 -0.4356 -0.3320
 2923DOPG   GL056929  21.193  23.554  14.481  0.0066 -0.0075  0.2911
 2923DOPG   PO456930  21.382  23.286  14.154 -0.2227 -0.0092 -0.3217
 2923DOPG   GL156931  21.491  23.137  14.525  0.2135  0.4205 -0.2383
 2923DOPG   GL256932  21.683  22.911  14.477  0.2821 -0.0195  0.1570
 2923DOPG   C1A56933  21.410  22.946  15.000 -0.0278 -0.1957  0.1650
 2923DOPG   D2A56934  21.347  22.612  15.287 -0.0510  0.3185  0.0757
 2923DOPG   C3A56935  21.541  22.617  15.623  0.2573 -0.1313  0.0188
 2923DOPG   C4A56936  21.548  22.625  16.029  0.0951 -0.2027  0.1201
 2923DOPG   C1B56937  21.668  22.542  14.730 -0.1485  0.0502 -0.2907
 2923DOPG   D2B56938  21.989  22.208  14.876  0.1713 -0.0224  0.0330
 2923DOPG   C3B56939  22.365  22.345  15.164  0.0351 -0.1232 -0.0416
 2923DOPG   C4B56940  22.596  22.062  15.393  0.1385 -0.2719 -0.2433
 2924DOPG   GL056941  16.325  16.902  10.475  0.2532 -0.1528 -0.3875
 2924DOPG   PO456942  16.107  16.880  10.742  0.0179 -0.1913 -0.0643
 2924DOPG   GL156943  15.940  16.841  11.159 -0.0895 -0.1986  0.0532
 2924DOPG   GL256944  15.833  16.539  11.227  0.2283 -0.1466  0.2070
 2924DOPG   C1A56945  15.998  16.893  11.568  0.2586  0.1080 -0.2623
 2924DOPG   D2A56946  15.895  16.796  11.961  0.1208  0.0938  0.1464
 2924DOPG   C3A56947  15.482  16.883  12.109 -0.2606  0.1511 -0.0894
 2924DOPG   C4A56948  15.206  16.922  12.334 -0.0765  0.1687 -0.0924
 2924DOPG   C1B56949  15.539  16.742  11.520 -0.0073 -0.0723  0.0102
 2924DOPG   D2B56950  15.544  17.085  11.661  0.0151 -0.1420 -0.1548
 2924DOPG   C3B56951  15.890  17.379  11.471 -0.0542  0.4259 -0.0991
 2924DOPG   C4B56952  16.192  17.601  11.334  0.4198 -0.2026 -0.0740
 2925DOPG   GL056953   6.059  14.910  15.465  0.0392  0.1622  0.1482
 2925DOPG   PO456954   6.020  15.304  15.292 -0.0407 -0.0234 -0.0357
 2925DOPG   GL156955   6.365  15.427  15.508  0.1900  0.1345 -0.0318
 2925DOPG   GL256956   6.599  15.242  15.349  0.4267 -0.0547 -0.0635
 2925DOPG   C1A56957   6.370  15.794  15.821 -0.2305  0.1103 -0.1156
 2925DOPG   D2A56958   6.484  15.978  16.092 -0.1574  0.1278 -0.0222
 2925DOPG   C3A56959   6.756  16.265  15.889  0.4234 -0.0227  0.2573
 2925DOPG   C4A56960   6.768  16.660  15.698  0.0348 -0.2534 -0.1758
 2925DOPG   C1B56961   6.940  15.209  15.572 -0.2811 -0.0161  0.1966
 2925DOPG   D2B56962   7.431  15.264  15.532 -0.3041 -0.0402  0.1441
 2925DOPG   C3B56963   7.550  15.518  15.221 -0.1862 -0.0506  0.1175
 2925DOPG   C4B56964   7.882  15.829  15.082 -0.2170  0.0009  0.0595
 2926DOPG   GL056965  16.454   9.672  13.666 -0.2479  0.0731 -0.2225
 2926DOPG   PO456966  16.538   9.450  14.074 -0.2283  0.2058 -0.1522
 2926DOPG   GL156967  16.243   9.661  14.371 -0.1785  0.1510  0.2288
 2926DOPG   GL256968  16.401   9.430  14.666  0.0362 -0.0780  0.1190
 2926DOPG   C1A56969  16.273  10.024  14.620  0.0487  0.0833  0.1551
 2926DOPG   D2A56970  15.950  10.346  14.811  0.1860 -0.0994 -0.2037
 2926DOPG   C3A56971  15.814  10.452  15.253 -0.2384  0.2646 -0.0485
 2926DOPG   C4A56972  15.688  10.683  15.621  0.0321 -0.1551 -0.1062
 2926DOPG   C1B56973  15.968   9.617  14.776 -0.0972 -0.2188 -0.1843
 2926DOPG   D2B56974  15.605   9.772  14.914 -0.0742 -0.1583  0.0545
 2926DOPG   C3B56975  15.266  10.097  14.959  0.0439  0.0857  0.0676
 2926DOPG   C4B56976  14.887  10.302  15.219  0.1096  0.2401 -0.0588
 2927DOPG   GL056977   9.094  12.846  12.690  0.3039 -0.2028  0.3527
 2927DOPG   PO456978   8.865  12.782  13.091 -0.0907  0.0684 -0.2624
 2927DOPG   GL156979   9.097  12.768  13.456 -0.2940  0.2031  0.0378
 2927DOPG   GL256980   9.325  12.581  13.365 -0.1993  0.0282 -0.0474
 2927DOPG   C1A56981   9.382  13.033  13.630 -0.0481 -0.2264 -0.0422
 2927DOPG   D2A56982   9.670  13.343  13.809  0.1085  0.1539  0.1336
 2927DOPG   C3A56983   9.975  13.008  14.004  0.2241 -0.0984  0.2103
 2927DOPG   C4A56984   9.921  12.769  14.399  0.0791 -0.4120 -0.1280
 2927DOPG   C1B56985   9.586  12.451  13.642  0.0141 -0.2738 -0.3406
 2927DOPG   D2B56986   9.854  12.443  14.018 -0.2403 -0.2252 -0.0116
 2927DOPG   C3B56987  10.316  12.604  14.014  0.1321 -0.3185 -0.1167
 2927DOPG   C4B56988  10.786  12.797  13.904  0.0493 -0.0445  0.1853
 2928DOPG   GL056989  15.442   7.319  15.625  0.0520 -0.0663  0.2266
 2928DOPG   PO456990  15.179   7.056  15.958 -0.1445  0.1135 -0.0442
 2928DOPG   GL156991  14.869   7.328  15.780 -0.1227 -0.7874  0.1020
 2928DOPG   GL256992  14.943   7.504  15.540 -0.1982 -0.0925  0.0652
 2928DOPG   C1A56993  14.502   7.460  16.002  0.3119  0.1875 -0.1733
 2928DOPG   D2A56994  14.182   7.332  16.305  0.0092 -0.2237  0.1350
 2928DOPG   C3A56995  13.854   7.467  16.189  0.4064  0.1367  0.0442
 2928DOPG   C4A56996  13.426   7.446  16.040  0.0602  0.0907 -0.0668
 2928DOPG   C1B56997  14.855   7.868  15.839 -0.0093  0.1907 -0.0351
 2928DOPG   D2B56998  14.775   7.978  16.170  0.2405  0.1693 -0.1092
 2928DOPG   C3B56999  15.130   7.973  16.413  0.1118 -0.1059 -0.1837
 2928DOPG   C4B57000  15.476   7.957  16.661 -0.0220  0.0401  0.2720
 2929DOPG   GL057001  17.207  14.293  10.908 -0.1514  0.1516  0.0982
 2929DOPG   PO457002  16.917  14.527  11.220  0.0114  0.2909 -0.0502
 2929DOPG   GL157003  16.795  14.541  11.693  0.1388  0.0463  0.1867
 2929DOPG   GL257004  16.480  14.630  11.753  0.0633  0.0126 -0.0443
 2929DOPG   C1A57005  17.003  14.490  12.119  0.4297  0.2492 -0.0018
 2929DOPG   D2A57006  16.803  14.411  12.553 -0.0906  0.3119  0.3106
 2929DOPG   C3A57007  16.905  14.594  12.983  0.2730 -0.1512  0.1908
 2929DOPG   C4A57008  17.137  14.830  13.162  0.2562 -0.2529 -0.3168
 2929DOPG   C1B57009  16.558  15.009  11.875  0.1014  0.0967 -0.0648
 2929DOPG   D2B57010  16.739  15.104  12.237 -0.0312  0.1304 -0.1365
 2929DOPG   C3B57011  17.084  14.862  12.479  0.1443  0.1144  0.0086
 2929DOPG   C4B57012  17.427  14.482  12.622 -0.1447  0.0363 -0.0469
 2930DOPG   GL057013  20.686  21.496  13.111 -0.1203 -0.0790  0.1027
 2930DOPG   PO457014  21.089  21.662  13.055  0.1433  0.0728  0.1615
 2930DOPG   GL157015  21.004  21.277  13.357 -0.1755  0.3754 -0.1381
 2930DOPG   GL257016  21.388  21.209  13.294 -0.3240  0.1127 -0.2338
 2930DOPG   C1A57017  21.035  20.805  13.409 -0.1422  0.1291  0.1027
 2930DOPG   D2A57018  20.924  20.524  13.729  0.0183 -0.1687  0.3827
 2930DOPG   C3A57019  20.605  20.390  13.958 -0.1543  0.0041  0.3847
 2930DOPG   C4A57020  20.631  20.533  14.340  0.4309  0.0128 -0.1358
 2930DOPG   C1B57021  21.786  21.166  13.332 -0.1205  0.1120  0.2415
 2930DOPG   D2B57022  22.289  21.286  13.499 -0.4642 -0.0016 -0.3696
 2930DOPG   C3B57023  22.397  21.279  13.832  0.0357 -0.0953  0.1563
 2930DOPG   C4B57024  22.430  21.120  14.177  0.1813  0.2958 -0.2642
 2931DOPG   GL057025  17.040  23.379  14.005  0.1092  0.1745 -0.1035
 2931DOPG   PO457026  17.187  23.211  14.348  0.1231  0.5118 -0.1272
 2931DOPG   GL157027  16.791  23.144  14.475  0.0982 -0.2168 -0.1013
 2931DOPG   GL257028  16.889  22.809  14.542 -0.1406 -0.4962  0.0420
 2931DOPG   C1A57029  16.409  22.873  14.717  0.0820  0.1919 -0.3536
 2931DOPG   D2A57030  16.211  22.475  14.791  0.1129 -0.2054  0.2325
 2931DOPG   C3A57031  16.539  22.162  14.802 -0.0387  0.1193  0.1883
 2931DOPG   C4A57032  16.908  22.411  15.078 -0.0921  0.0639 -0.2166
 2931DOPG   C1B57033  16.994  22.298  14.587 -0.3608 -0.0207  0.0684
 2931DOPG   D2B57034  17.274  21.886  14.882  0.0078  0.0406  0.2249
 2931DOPG   C3B57035  17.618  21.834  14.717  0.0870  0.1622 -0.1094
 2931DOPG   C4B57036  17.860  22.096  14.425 -0.1153 -0.1954  0.1010
 2932DOPG   GL057037   9.759  14.547  11.944 -0.1630 -0.2425 -0.0880
 2932DOPG   PO457038   9.364  14.780  11.898 -0.1230  0.1168  0.1653
 2932DOPG   GL157039   9.553  14.802  12.349 -0.0668  0.1682  0.2836
 2932DOPG   GL257040   9.467  14.605  12.603 -0.0373 -0.1499 -0.1008
 2932DOPG   C1A57041  10.012  14.847  12.383  0.2792 -0.4263  0.0089
 2932DOPG   D2A57042  10.413  14.844  12.573  0.0565 -0.0170 -0.2752
 2932DOPG   C3A57043  10.751  15.092  12.320 -0.4114 -0.0605  0.2981
 2932DOPG   C4A57044  11.113  15.113  12.080 -0.3773 -0.3539  0.0826
 2932DOPG   C1B57045   9.583  14.523  12.985  0.1039  0.0431  0.0455
 2932DOPG   D2B57046   9.535  14.503  13.402 -0.2451  0.2090  0.0231
 2932DOPG   C3B57047   9.393  14.731  13.767  0.3249 -0.0495 -0.2807
 2932DOPG   C4B57048   9.110  15.060  13.873 -0.1549 -0.0287 -0.2917
 2933DOPG   GL057049  10.868  20.790  12.472  0.2333  0.2292 -0.2588
 2933DOPG   PO457050  10.591  21.056  12.703 -0.1055 -0.2593 -0.1615
 2933DOPG   GL157051  10.657  20.917  13.154 -0.3298  0.1358  0.0329
 2933DOPG   GL257052  10.876  20.679  13.021  0.0474  0.0640  0.4656
 2933DOPG   C1A57053  10.944  20.726  13.534  0.0528 -0.1081  0.2153
 2933DOPG   D2A57054  11.332  20.599  13.535  0.1338 -0.1659 -0.0959
 2933DOPG   C3A57055  11.390  20.193  13.787  0.2760 -0.1506 -0.1730
 2933DOPG   C4A57056  11.384  19.744  13.930  0.1921  0.1039 -0.1370
 2933DOPG   C1B57057  11.080  20.281  13.220  0.0108 -0.0794  0.1016
 2933DOPG   D2B57058  10.872  19.944  13.363  0.0580  0.4424  0.1944
 2933DOPG   C3B57059  10.960  19.918  13.799 -0.0791 -0.1032 -0.0629
 2933DOPG   C4B57060  11.147  20.055  14.235 -0.5352 -0.2740 -0.0650
 2934DOPG   GL057061  13.460  12.508  11.195  0.2190 -0.2196  0.0442
 2934DOPG   PO457062  13.094  12.471  11.539  0.0345  0.0678 -0.1379
 2934DOPG   GL157063  12.982  12.780  11.825 -0.0274  0.0482 -0.1363
 2934DOPG   GL257064  12.619  12.742  11.855  0.1469  0.1619 -0.1125
 2934DOPG   C1A57065  13.015  12.871  12.221  0.1044 -0.0119  0.4110
 2934DOPG   D2A57066  12.929  12.693  12.578  0.1909 -0.1251 -0.2728
 2934DOPG   C3A57067  13.067  12.292  12.625 -0.2998 -0.1562 -0.0566
 2934DOPG   C4A57068  13.099  11.959  12.870  0.3550 -0.0309 -0.1040
 2934DOPG   C1B57069  12.556  13.006  12.112 -0.3325 -0.2067 -0.0785
 2934DOPG   D2B57070  12.751  13.278  12.464  0.1034 -0.0491  0.1861
 2934DOPG   C3B57071  12.951  13.137  12.856  0.1943 -0.1202  0.0579
 2934DOPG   C4B57072  13.283  13.046  13.221  0.1585 -0.0321 -0.2375
 2935DOPG   GL057073   8.883  18.642  13.488 -0.2343 -0.1106 -0.1813
 2935DOPG   PO457074   8.474  18.687  13.516  0.0210 -0.0300  0.1830
 2935DOPG   GL157075   8.479  18.838  13.985 -0.0500  0.2494 -0.2116
 2935DOPG   GL257076   8.439  18.689  14.267 -0.0329  0.2272  0.1884
 2935DOPG   C1A57077   8.204  19.099  14.178  0.0446 -0.0708 -0.1707
 2935DOPG   D2A57078   8.263  19.398  14.481 -0.0149 -0.0721  0.0870
 2935DOPG   C3A57079   8.207  19.898  14.535  0.1217 -0.2506 -0.1786
 2935DOPG   C4A57080   8.125  20.320  14.892 -0.1089  0.2738 -0.1275
 2935DOPG   C1B57081   8.274  18.886  14.646  0.1402 -0.1549 -0.0028
 2935DOPG   D2B57082   7.833  18.829  14.702  0.1148  0.0845 -0.1533
 2935DOPG   C3B57083   7.579  18.479  14.801 -0.1563  0.2462  0.0900
 2935DOPG   C4B57084   7.307  18.355  15.007  0.2197 -0.1994 -0.2341
 2936DOPG   GL057085  23.049  23.501  16.411 -0.2724  0.0966 -0.2806
 2936DOPG   PO457086  23.346  23.708  16.710 -0.4794  0.1019  0.1135
 2936DOPG   GL157087  23.168  23.499  17.046  0.0154 -0.0200 -0.0825
 2936DOPG   GL257088  22.883  23.632  16.865 -0.1435  0.0707 -0.2014
 2936DOPG   C1A57089  23.068  23.146  17.080  0.0151  0.1108  0.1880
 2936DOPG   D2A57090  23.061  22.648  16.960 -0.0321 -0.3802  0.1295
 2936DOPG   C3A57091  23.200  22.436  16.586  0.0694  0.3124 -0.0518
 2936DOPG   C4A57092  23.469  22.618  16.416 -0.3101  0.1860  0.1550
 2936DOPG   C1B57093  22.728  23.264  16.663 -0.3634 -0.1933 -0.0486
 2936DOPG   D2B57094  22.828  22.925  16.300 -0.1280 -0.1416 -0.1209
 2936DOPG   C3B57095  22.579  22.794  16.000  0.1035  0.2045 -0.0908
 2936DOPG   C4B57096  22.269  22.452  15.694  0.0587 -0.2262  0.1540
 2937DOPG   GL057097  19.590  20.407  11.453  0.2309 -0.2012 -0.2041
 2937DOPG   PO457098  19.538  20.007  11.696  0.1729  0.2109 -0.3116
 2937DOPG   GL157099  19.343  19.702  12.005  0.1255  0.1128 -0.1162
 2937DOPG   GL257100  19.356  19.439  12.190  0.3727 -0.0343  0.0536
 2937DOPG   C1A57101  18.907  19.603  12.210 -0.0218  0.1058  0.0451
 2937DOPG   D2A57102  18.561  19.383  12.303 -0.0976 -0.1196  0.1113
 2937DOPG   C3A57103  18.619  18.897  12.431 -0.0787 -0.0436  0.1447
 2937DOPG   C4A57104  18.499  18.521  12.519  0.1309 -0.2226 -0.0685
 2937DOPG   C1B57105  19.686  19.117  12.226 -0.0471 -0.0139 -0.1058
 2937DOPG   D2B57106  20.096  19.070  12.093  0.0866 -0.1028 -0.1008
 2937DOPG   C3B57107  20.354  18.920  12.477  0.0378 -0.0506  0.3834
 2937DOPG   C4B57108  20.707  19.125  12.636 -0.1973  0.2566 -0.2822
 2938DOPG   GL057109  16.937   9.737  14.268  0.1658  0.2392  0.3733
 2938DOPG   PO457110  17.275   9.864  14.022 -0.2848 -0.0593 -0.0682
 2938DOPG   GL157111  17.041  10.195  14.169  0.2947 -0.0973 -0.0613
 2938DOPG   GL257112  17.141  10.435  14.374  0.2813 -0.0242 -0.1173
 2938DOPG   C1A57113  16.778  10.133  14.550  0.0423  0.0266 -0.0027
 2938DOPG   D2A57114  16.701  10.198  15.008 -0.4281  0.0165 -0.0436
 2938DOPG   C3A57115  16.741   9.839  15.344 -0.0229 -0.1198  0.1500
 2938DOPG   C4A57116  16.667   9.837  15.697  0.2070  0.0716  0.1614
 2938DOPG   C1B57117  17.236  10.508  14.830 -0.2575 -0.3694  0.1203
 2938DOPG   D2B57118  16.937  10.623  15.138  0.2031  0.2709 -0.3730
 2938DOPG   C3B57119  16.650  10.992  15.217  0.0369 -0.1600 -0.1068
 2938DOPG   C4B57120  16.520  11.390  15.424  0.1017 -0.3345  0.1400
 2939DOPG   GL057121  13.344  17.767  10.633 -0.0136 -0.2527 -0.3511
 2939DOPG   PO457122  13.800  17.656  10.709 -0.3281  0.2065 -0.0690
 2939DOPG   GL157123  13.513  17.577  11.086  0.0221  0.2090 -0.4572
 2939DOPG   GL257124  13.382  17.744  11.354 -0.1258  0.1179  0.1045
 2939DOPG   C1A57125  13.526  17.313  11.470 -0.0329  0.3516 -0.0662
 2939DOPG   D2A57126  13.611  17.428  11.875 -0.0299 -0.0282  0.2301
 2939DOPG   C3A57127  13.517  17.762  12.073  0.3174 -0.0675 -0.0623
 2939DOPG   C4A57128  13.040  17.852  12.248  0.0141  0.0173  0.0931
 2939DOPG   C1B57129  13.045  17.640  11.746 -0.0243  0.2097  0.3186
 2939DOPG   D2B57130  13.028  17.366  12.059 -0.0137  0.0796  0.1179
 2939DOPG   C3B57131  13.214  17.342  12.386  0.1932  0.1322 -0.2160
 2939DOPG   C4B57132  13.550  17.458  12.696  0.3427  0.1533 -0.4472
 2940DOPG   GL057133  16.713   9.038  14.699  0.2654  0.1114 -0.2526
 2940DOPG   PO457134  16.763   8.733  14.987 -0.2754  0.1889 -0.4739
 2940DOPG   GL157135  16.836   9.120  15.151 -0.0821  0.1909 -0.3461
 2940DOPG   GL257136  17.129   9.284  15.156 -0.1849  0.5197 -0.0968
 2940DOPG   C1A57137  16.868   9.334  15.565  0.0066 -0.0217  0.1611
 2940DOPG   D2A57138  16.681   9.400  15.973  0.1015 -0.2767  0.2390
 2940DOPG   C3A57139  16.445   9.811  16.184  0.3451  0.0472  0.0270
 2940DOPG   C4A57140  16.013  10.064  16.320  0.0202  0.1678  0.3687
 2940DOPG   C1B57141  17.175   9.605  15.173  0.0803  0.0829 -0.1247
 2940DOPG   D2B57142  17.633   9.820  15.018 -0.0671  0.0132 -0.0245
 2940DOPG   C3B57143  17.694  10.188  14.989  0.0498 -0.1482  0.5106
 2940DOPG   C4B57144  17.746  10.808  14.947  0.0296  0.2346 -0.0607
 2941DOPG   GL057145   8.703  22.444  13.014  0.1390 -0.1229  0.2896
 2941DOPG   PO457146   8.604  22.488  13.524  0.4309 -0.0905  0.3413
 2941DOPG   GL157147   8.384  22.147  13.800 -0.1276 -0.0198  0.0013
 2941DOPG   GL257148   8.365  21.945  13.632  0.1697 -0.1229  0.1557
 2941DOPG   C1A57149   8.274  21.987  14.141  0.2250  0.5574  0.2334
 2941DOPG   D2A57150   8.115  21.887  14.510  0.1165 -0.5097 -0.0183
 2941DOPG   C3A57151   8.091  21.615  14.793 -0.1147 -0.0826 -0.0472
 2941DOPG   C4A57152   8.415  21.386  14.920 -0.1466  0.1416 -0.2038
 2941DOPG   C1B57153   8.049  21.602  13.674 -0.1250 -0.0930  0.1484
 2941DOPG   D2B57154   7.804  21.270  13.810 -0.1313  0.0244  0.0712
 2941DOPG   C3B57155   7.388  21.002  13.788  0.0363  0.2522  0.1811
 2941DOPG   C4B57156   7.105  21.268  13.478 -0.1090  0.2640  0.0271
 2942DOPG   GL057157  25.245  21.995  13.257 -0.0944 -0.1152 -0.3254
 2942DOPG   PO457158  24.881  21.799  13.442 -0.2715 -0.0713 -0.0542
 2942DOPG   GL157159  24.559  21.762  13.794  0.0359  0.1583  0.2181
 2942DOPG   GL257160  24.666  21.449  13.770 -0.3120  0.0328  0.0986
 2942DOPG   C1A57161  24.491  21.572  14.233  0.2998 -0.1418 -0.2244
 2942DOPG   D2A57162  24.787  21.204  14.376 -0.0128  0.0121 -0.1311
 2942DOPG   C3A57163  24.922  21.330  14.861 -0.1748  0.0949 -0.0624
 2942DOPG   C4A57164  24.865  21.751  15.175 -0.3943 -0.0078  0.2663
 2942DOPG   C1B57165  24.613  21.031  13.911  0.0549  0.2289  0.2342
 2942DOPG   D2B57166  24.373  20.651  13.995  0.1215 -0.1119  0.0840
 2942DOPG   C3B57167  24.146  20.311  13.897 -0.2824  0.2721  0.0545
 2942DOPG   C4B57168  23.991  19.922  13.835 -0.0892 -0.0424 -0.2003
 2943DOPG   GL057169  12.945  19.057  11.439  0.0570  0.0165 -0.3058
 2943DOPG   PO457170  13.025  18.706  11.053  0.0117 -0.3408 -0.0402
 2943DOPG   GL157171  13.237  18.602  11.407  0.2097  0.1848  0.0626
 2943DOPG   GL257172  13.452  18.373  11.346  0.2866 -0.1890 -0.2519
 2943DOPG   C1A57173  13.439  18.607  11.757  0.1173 -0.0281 -0.0230
 2943DOPG   D2A57174  13.525  18.719  12.119 -0.1261 -0.0123  0.2880
 2943DOPG   C3A57175  13.672  18.208  12.104  0.0548  0.0033 -0.2556
 2943DOPG   C4A57176  13.981  17.959  12.042 -0.0179  0.0230  0.0290
 2943DOPG   C1B57177  13.314  18.100  11.758 -0.0564 -0.0656  0.1838
 2943DOPG   D2B57178  13.180  18.302  12.112 -0.2668 -0.0327  0.1107
 2943DOPG   C3B57179  13.037  18.787  11.976  0.2665  0.2326 -0.0969
 2943DOPG   C4B57180  13.210  19.198  11.803  0.1690  0.4635 -0.2298
 2944DOPG   GL057181   9.848   9.140  13.169 -0.0869 -0.3178 -0.2789
 2944DOPG   PO457182   9.826   8.901  13.580 -0.1761  0.3979 -0.2510
 2944DOPG   GL157183   9.989   8.930  14.070 -0.1402  0.3686  0.0469
 2944DOPG   GL257184   9.958   8.615  14.214  0.0187 -0.3227  0.1274
 2944DOPG   C1A57185  10.330   9.124  14.141  0.1731  0.0852  0.2380
 2944DOPG   D2A57186  10.366   9.626  14.253 -0.1293  0.0077  0.2066
 2944DOPG   C3A57187  10.380   9.811  14.657  0.2405 -0.1288  0.2092
 2944DOPG   C4A57188  10.404  10.106  14.978  0.0131  0.0436  0.0531
 2944DOPG   C1B57189  10.409   8.675  14.345  0.0078 -0.0934  0.1275
 2944DOPG   D2B57190  10.884   8.511  14.349  0.4292 -0.2264 -0.1609
 2944DOPG   C3B57191  11.070   8.724  14.649  0.2564 -0.1957  0.2118
 2944DOPG   C4B57192  11.157   8.596  15.026 -0.3350  0.0359 -0.0100
 2945DOPG   GL057193   7.036  10.117  16.124  0.1140 -0.2546  0.2395
 2945DOPG   PO457194   7.012   9.757  16.324  0.3638 -0.1293 -0.2218
 2945DOPG   GL157195   7.453   9.785  16.393  0.2872  0.2610  0.0133
 2945DOPG   GL257196   7.649   9.911  16.269 -0.0564  0.1392 -0.1997
 2945DOPG   C1A57197   7.862   9.513  16.453  0.0474 -0.3376 -0.0122
 2945DOPG   D2A57198   8.380   9.527  16.535  0.3057 -0.3101  0.2608
 2945DOPG   C3A57199   8.499   9.994  16.724  0.1653 -0.0121  0.1178
 2945DOPG   C4A57200   8.462  10.341  16.412  0.3219  0.3315 -0.1465
 2945DOPG   C1B57201   7.598  10.215  15.979  0.2287 -0.2156 -0.0182
 2945DOPG   D2B57202   7.717  10.455  15.605 -0.3108  0.1468  0.0129
 2945DOPG   C3B57203   8.145  10.570  15.746  0.2087 -0.2424 -0.1038
 2945DOPG   C4B57204   8.301  10.697  16.115  0.0776 -0.0672  0.2434
 2946DOPG   GL057205  19.425  21.094  12.685 -0.0361 -0.3369  0.0485
 2946DOPG   PO457206  19.278  21.522  12.826 -0.0915 -0.1734 -0.0264
 2946DOPG   GL157207  19.076  21.201  13.134  0.1246 -0.1383  0.1559
 2946DOPG   GL257208  19.050  21.433  13.410 -0.4261 -0.0303  0.4388
 2946DOPG   C1A57209  18.804  20.962  13.228  0.0181  0.0253 -0.1358
 2946DOPG   D2A57210  18.630  20.708  13.491  0.0305 -0.0420 -0.3044
 2946DOPG   C3A57211  18.651  20.714  13.922  0.2927  0.0434 -0.1029
 2946DOPG   C4A57212  18.221  20.628  14.114 -0.0430  0.1300  0.0192
 2946DOPG   C1B57213  19.094  21.005  13.678  0.2227  0.2444  0.2061
 2946DOPG   D2B57214  19.085  20.540  13.685 -0.1727  0.0374 -0.1212
 2946DOPG   C3B57215  19.076  20.313  14.016  0.0634  0.0066 -0.4801
 2946DOPG   C4B57216  19.158  19.949  14.241 -0.1454  0.6979  0.0516
 2947DOPG   GL057217  22.100  17.781  12.620 -0.0741  0.0674  0.4331
 2947DOPG   PO457218  22.094  18.185  12.769 -0.0958  0.2197  0.1866
 2947DOPG   GL157219  21.737  18.040  13.020 -0.0731 -0.3582  0.0807
 2947DOPG   GL257220  21.821  17.701  13.165 -0.1297 -0.2634 -0.0482
 2947DOPG   C1A57221  21.582  18.170  13.393 -0.0746 -0.2210 -0.0103
 2947DOPG   D2A57222  21.431  18.053  13.807 -0.2556 -0.1266  0.1961
 2947DOPG   C3A57223  21.049  17.827  13.829 -0.1165 -0.0593  0.1339
 2947DOPG   C4A57224  20.934  17.445  13.902 -0.0494 -0.0828  0.1566
 2947DOPG   C1B57225  22.084  17.875  13.519 -0.0714  0.1571 -0.0293
 2947DOPG   D2B57226  22.381  17.994  13.816  0.0818  0.3129 -0.0912
 2947DOPG   C3B57227  22.218  17.980  14.127  0.1189 -0.0379 -0.2492
 2947DOPG   C4B57228  22.200  18.316  14.408  0.2221  0.2001 -0.2107
 2948DOPG   GL057229  22.599  18.764  13.183  0.0315 -0.1892  0.0081
 2948DOPG   PO457230  22.542  19.109  12.818 -0.1273  0.3259  0.0218
 2948DOPG   GL157231  22.289  19.234  13.114  0.1541 -0.0874 -0.2991
 2948DOPG   GL257232  22.341  19.338  13.480 -0.1550 -0.1771 -0.2087
 2948DOPG   C1A57233  21.887  19.544  13.256  0.3352  0.1420  0.1233
 2948DOPG   D2A57234  21.554  19.589  13.377  0.0072 -0.0818  0.2605
 2948DOPG   C3A57235  21.438  19.969  13.652 -0.1045 -0.0175  0.0793
 2948DOPG   C4A57236  21.429  20.342  13.675  0.0197  0.0385 -0.0192
 2948DOPG   C1B57237  21.983  19.437  13.744 -0.0162  0.0474 -0.0148
 2948DOPG   D2B57238  21.769  19.771  13.938 -0.0804 -0.0494 -0.0636
 2948DOPG   C3B57239  21.545  20.072  14.117 -0.0631 -0.0733 -0.0159
 2948DOPG   C4B57240  21.480  20.130  14.548 -0.0519  0.0617 -0.0144
 2949DOPG   GL057241  18.548  10.016  14.566  0.1176 -0.1087 -0.1126
 2949DOPG   PO457242  18.834  10.057  14.998 -0.0811  0.1324  0.2124
 2949DOPG   GL157243  19.024  10.461  15.311  0.1730  0.0400 -0.1479
 2949DOPG   GL257244  19.261  10.623  15.435  0.0526 -0.2557 -0.2156
 2949DOPG   C1A57245  18.818  10.834  15.421 -0.1727 -0.1802  0.1524
 2949DOPG   D2A57246  18.851  11.258  15.591  0.0717  0.2103  0.1930
 2949DOPG   C3A57247  19.257  11.169  15.527 -0.2461  0.3509  0.1426
 2949DOPG   C4A57248  19.517  11.538  15.339  0.3204 -0.1433 -0.2901
 2949DOPG   C1B57249  19.110  10.779  15.823  0.0325  0.1187  0.1335
 2949DOPG   D2B57250  19.025  11.162  16.085  0.1224 -0.2182  0.2955
 2949DOPG   C3B57251  18.723  11.521  16.324 -0.0240 -0.1436 -0.0768
 2949DOPG   C4B57252  19.043  11.680  16.688 -0.0367  0.0330  0.0488
 2950DOPG   GL057253  21.979  13.706  14.404  0.3279  0.0927  0.0202
 2950DOPG   PO457254  22.012  13.467  14.718  0.0729 -0.0493  0.3653
 2950DOPG   GL157255  21.885  13.842  15.001  0.0132  0.3967  0.0987
 2950DOPG   GL257256  21.904  14.079  14.829  0.0675 -0.2024  0.3418
 2950DOPG   C1A57257  21.967  14.017  15.307  0.4661  0.4074  0.0782
 2950DOPG   D2A57258  21.947  14.213  15.676 -0.0569 -0.2300 -0.1263
 2950DOPG   C3A57259  21.568  13.986  15.952 -0.0170 -0.0898  0.1386
 2950DOPG   C4A57260  21.509  13.848  16.287 -0.4591  0.1466 -0.1022
 2950DOPG   C1B57261  21.556  14.245  15.029 -0.1908 -0.0372  0.2187
 2950DOPG   D2B57262  21.608  14.447  15.344 -0.3105 -0.0826 -0.1976
 2950DOPG   C3B57263  21.533  14.839  15.450 -0.0182  0.1971 -0.2568
 2950DOPG   C4B57264  21.727  15.285  15.529  0.1659 -0.2268 -0.1522
 2951DOPG   GL057265  14.055  25.218  16.143 -0.1226  0.2124 -0.1923
 2951DOPG   PO457266  13.900  25.205  15.819  0.0776  0.1824 -0.0182
 2951DOPG   GL157267  13.765  24.828  15.901 -0.3398  0.2205  0.0123
 2951DOPG   GL257268  14.033  24.535  15.867  0.1320 -0.6006  0.1226
 2951DOPG   C1A57269  13.473  24.627  16.116 -0.2150 -0.2475  0.0219
 2951DOPG   D2A57270  13.351  24.732  16.555 -0.2336  0.2770  0.1290
 2951DOPG   C3A57271  13.379  24.306  16.825 -0.1200  0.1102  0.1813
 2951DOPG   C4A57272  13.647  23.884  16.895 -0.0505  0.2257 -0.1383
 2951DOPG   C1B57273  14.046  24.029  16.015 -0.0971 -0.2125 -0.0305
 2951DOPG   D2B57274  14.186  23.767  16.226 -0.0005  0.0879  0.0952
 2951DOPG   C3B57275  14.392  23.450  16.340  0.1562  0.4363 -0.1298
 2951DOPG   C4B57276  14.341  23.188  16.041 -0.0093 -0.2324 -0.2748
 2952DOPG   GL057277  19.672   9.259  17.468 -0.2277 -0.2133  0.1164
 2952DOPG   PO457278  19.443   9.668  17.470 -0.2923 -0.1779  0.0483
 2952DOPG   GL157279  19.213   9.375  17.214  0.2235 -0.0011 -0.0018
 2952DOPG   GL257280  18.825   9.427  17.088  0.0836 -0.0115 -0.2178
 2952DOPG   C1A57281  19.443   9.046  17.077 -0.0547  0.1940  0.0438
 2952DOPG   D2A57282  19.746   8.877  16.756  0.0310 -0.0045 -0.0106
 2952DOPG   C3A57283  19.710   8.472  16.585  0.0480  0.3261  0.1873
 2952DOPG   C4A57284  19.510   7.963  16.595  0.0671 -0.1046  0.0579
 2952DOPG   C1B57285  18.601   9.877  17.191 -0.1956 -0.0435 -0.1286
 2952DOPG   D2B57286  18.386  10.198  17.548  0.0152  0.2440 -0.0692
 2952DOPG   C3B57287  18.546  10.339  17.921 -0.0087 -0.2263 -0.1436
 2952DOPG   C4B57288  18.799  10.429  18.108 -0.0200 -0.6410 -0.0574
 2953DOPG   GL057289  18.216  21.979  13.048 -0.2934  0.0096  0.1322
 2953DOPG   PO457290  17.921  21.785  12.826 -0.1402 -0.1620 -0.0730
 2953DOPG   GL157291  17.963  21.515  13.147  0.0838  0.0272 -0.1204
 2953DOPG   GL257292  17.741  21.256  13.144  0.3358 -0.1174 -0.0010
 2953DOPG   C1A57293  18.216  21.219  13.497 -0.2292 -0.0504 -0.2171
 2953DOPG   D2A57294  18.207  21.076  13.918 -0.0965 -0.1523 -0.0252
 2953DOPG   C3A57295  17.877  21.133  14.260 -0.1320  0.1775  0.1892
 2953DOPG   C4A57296  17.790  20.747  14.425 -0.4284  0.2690 -0.0636
 2953DOPG   C1B57297  17.368  20.940  13.022  0.1705 -0.2173  0.1422
 2953DOPG   D2B57298  17.154  20.500  12.918 -0.2798 -0.0430 -0.0557
 2953DOPG   C3B57299  17.252  20.235  13.167 -0.1517  0.2146 -0.3557
 2953DOPG   C4B57300  17.341  20.160  13.598  0.0542 -0.0682  0.0295
 2954DOPG   GL057301  19.273  23.654  13.804  0.1559 -0.2012  0.3025
 2954DOPG   PO457302  19.214  23.288  14.228  0.0827 -0.0483 -0.3022
 2954DOPG   GL157303  19.005  22.938  14.348  0.1516 -0.1534 -0.1763
 2954DOPG   GL257304  18.788  23.092  14.594  0.3396 -0.1838  0.1583
 2954DOPG   C1A57305  18.701  22.525  14.248 -0.0310  0.4233 -0.0504
 2954DOPG   D2A57306  18.499  22.222  14.635 -0.1625 -0.3523  0.0818
 2954DOPG   C3A57307  18.492  22.035  15.035 -0.1366  0.0118  0.0697
 2954DOPG   C4A57308  18.643  21.740  15.325  0.0305  0.0949 -0.0251
 2954DOPG   C1B57309  19.011  23.020  14.890  0.1661  0.3585 -0.3259
 2954DOPG   D2B57310  19.143  22.971  15.297 -0.1540  0.3563 -0.2467
 2954DOPG   C3B57311  19.321  23.236  15.541  0.2579  0.2535 -0.0429
 2954DOPG   C4B57312  19.397  23.521  15.891  0.0799 -0.0698 -0.1551
 2955DOPG   GL057313  18.508   8.992  17.755  0.0195  0.0943 -0.0885
 2955DOPG   PO457314  18.130   8.808  17.752  0.1105  0.2760 -0.0141
 2955DOPG   GL157315  17.885   9.111  17.551 -0.3006 -0.3538  0.0057
 2955DOPG   GL257316  18.091   9.294  17.406 -0.0766  0.2337  0.3895
 2955DOPG   C1A57317  17.627   9.606  17.440 -0.0779  0.0236  0.0176
 2955DOPG   D2A57318  17.333   9.508  17.226 -0.0983  0.0427  0.2254
 2955DOPG   C3A57319  16.806   9.416  17.319  0.1604 -0.2714  0.2551
 2955DOPG   C4A57320  16.498   9.440  17.304 -0.0736  0.1617 -0.1274
 2955DOPG   C1B57321  18.156   9.698  17.508  0.0887 -0.1863 -0.0739
 2955DOPG   D2B57322  18.151   9.940  17.874 -0.1383  0.0206  0.2156
 2955DOPG   C3B57323  18.558   9.941  18.154  0.0324 -0.0412 -0.1598
 2955DOPG   C4B57324  19.101  10.043  18.177  0.1694  0.0159 -0.0900
 2956DOPG   GL057325   8.632  14.656  12.620  0.0097  0.0877  0.3194
 2956DOPG   PO457326   9.053  14.807  12.818  0.0863  0.0797 -0.0845
 2956DOPG   GL157327   9.268  14.938  13.204  0.0885  0.0295 -0.1517
 2956DOPG   GL257328   9.028  15.106  13.351  0.0634  0.2711 -0.3808
 2956DOPG   C1A57329   9.765  15.022  13.230  0.0605 -0.0958  0.1496
 2956DOPG   D2A57330  10.180  14.915  13.017  0.1588 -0.3224 -0.1716
 2956DOPG   C3A57331  10.561  14.792  13.331 -0.1626 -0.1714 -0.0244
 2956DOPG   C4A57332  10.707  14.930  13.679 -0.0095  0.1357 -0.0107
 2956DOPG   C1B57333   9.322  15.463  13.220  0.0217  0.3107  0.1376
 2956DOPG   D2B57334   9.700  15.486  13.491  0.0327  0.0182  0.2304
 2956DOPG   C3B57335   9.784  15.140  13.829 -0.3792 -0.2007  0.2381
 2956DOPG   C4B57336   9.812  14.655  13.985  0.2075  0.0796  0.1104
 2957DOPG   GL057337  23.741  13.229  15.839 -0.0465 -0.3434  0.3753
 2957DOPG   PO457338  23.708  13.508  15.432 -0.0596  0.0877  0.2952
 2957DOPG   GL157339  23.443  13.579  15.601 -0.1783  0.2014  0.2647
 2957DOPG   GL257340  23.114  13.502  15.484  0.1717 -0.4397  0.2074
 2957DOPG   C1A57341  23.184  13.898  15.864 -0.0443  0.2208 -0.5813
 2957DOPG   D2A57342  22.998  13.904  16.258  0.0035 -0.2276 -0.0974
 2957DOPG   C3A57343  23.029  14.313  16.368  0.1110 -0.1770 -0.1902
 2957DOPG   C4A57344  23.019  14.676  16.568 -0.2975 -0.0678  0.0594
 2957DOPG   C1B57345  22.756  13.677  15.658  0.1121 -0.0194  0.0966
 2957DOPG   D2B57346  22.378  13.885  15.634 -0.0845  0.3143 -0.0425
 2957DOPG   C3B57347  22.095  14.033  16.093  0.1534  0.0171 -0.0965
 2957DOPG   C4B57348  21.870  14.417  16.211  0.0696 -0.4283 -0.0386
 2958DOPG   GL057349  23.071  22.037  13.462 -0.4072  0.2297 -0.1199
 2958DOPG   PO457350  22.942  21.713  13.443 -0.0550  0.0646 -0.1870
 2958DOPG   GL157351  23.022  21.359  13.663 -0.0325  0.0744 -0.0230
 2958DOPG   GL257352  22.774  21.164  13.568 -0.0656  0.1386  0.0882
 2958DOPG   C1A57353  22.891  21.318  14.066  0.0091  0.0917 -0.0677
 2958DOPG   D2A57354  22.859  21.201  14.540 -0.0941  0.1715 -0.2138
 2958DOPG   C3A57355  22.508  21.085  14.721  0.2612 -0.1147  0.2053
 2958DOPG   C4A57356  22.202  21.303  15.028  0.2440 -0.0084  0.0015
 2958DOPG   C1B57357  22.792  20.880  13.875  0.1232 -0.2907 -0.1131
 2958DOPG   D2B57358  23.048  20.509  13.976  0.0024 -0.0634 -0.1840
 2958DOPG   C3B57359  23.394  20.674  13.817  0.1719  0.0243  0.2113
 2958DOPG   C4B57360  23.791  20.340  13.544  0.3499 -0.0408  0.1329
 2959DOPG   GL057361  12.514  11.394  11.979 -0.0524  0.2156 -0.0680
 2959DOPG   PO457362  12.625  11.669  12.281  0.4793 -0.0490 -0.3731
 2959DOPG   GL157363  12.648  11.601  12.676  0.0848 -0.3227  0.3547
 2959DOPG   GL257364  12.349  11.499  12.661  0.0340  0.1340  0.0956
 2959DOPG   C1A57365  12.694  11.747  13.095 -0.0525 -0.1665 -0.0248
 2959DOPG   D2A57366  12.411  11.755  13.447 -0.2236  0.4232  0.0071
 2959DOPG   C3A57367  12.433  11.874  13.940 -0.0868  0.1255 -0.2871
 2959DOPG   C4A57368  12.391  12.205  14.161 -0.1951 -0.4449  0.2704
 2959DOPG   C1B57369  12.311  11.949  12.919  0.0765  0.1743 -0.0182
 2959DOPG   D2B57370  12.193  12.182  13.318 -0.0319  0.0160  0.0714
 2959DOPG   C3B57371  12.386  12.339  13.621  0.4890  0.0467  0.1376
 2959DOPG   C4B57372  12.461  12.686  13.951 -0.3140  0.2098  0.0599
 2960DOPG   GL057373  14.359  14.393  11.029 -0.0759  0.0835 -0.0171
 2960DOPG   PO457374  14.164  13.951  11.170 -0.4353  0.0299 -0.5981
 2960DOPG   GL157375  14.184  14.224  11.519 -0.2492  0.2856 -0.1527
 2960DOPG   GL257376  14.072  13.876  11.671 -0.1926  0.1353  0.2304
 2960DOPG   C1A57377  14.090  14.248  11.967  0.4740 -0.0312  0.0659
 2960DOPG   D2A57378  14.264  14.144  12.371  0.2336  0.0547 -0.0340
 2960DOPG   C3A57379  14.180  13.781  12.513  0.1614 -0.0484 -0.1647
 2960DOPG   C4A57380  14.159  13.299  12.655 -0.1533  0.1009 -0.1131
 2960DOPG   C1B57381  13.807  13.736  12.103  0.1957 -0.0989  0.4723
 2960DOPG   D2B57382  13.697  13.498  12.470  0.1493  0.0285 -0.1903
 2960DOPG   C3B57383  13.768  13.012  12.440 -0.2179 -0.0042 -0.3858
 2960DOPG   C4B57384  13.986  12.672  12.270 -0.1834  0.1744  0.3890
 2961DOPG   GL057385  14.926   9.988  12.631  0.0727 -0.0258 -0.0130
 2961DOPG   PO457386  15.214  10.247  12.705  0.1653  0.2142  0.0537
 2961DOPG   GL157387  15.229  10.373  13.050 -0.0964  0.0047  0.2432
 2961DOPG   GL257388  15.502  10.523  13.242 -0.0394  0.1203 -0.2755
 2961DOPG   C1A57389  15.056  10.731  13.183  0.0975  0.0311 -0.1209
 2961DOPG   D2A57390  14.907  11.227  13.259  0.2544  0.0797  0.1263
 2961DOPG   C3A57391  14.687  11.569  13.089 -0.0708  0.0658  0.1121
 2961DOPG   C4A57392  14.563  11.969  13.281  0.1592 -0.0809 -0.3276
 2961DOPG   C1B57393  15.222  10.400  13.580  0.2710  0.3606  0.1534
 2961DOPG   D2B57394  14.983  10.445  13.915 -0.0672 -0.1337  0.1394
 2961DOPG   C3B57395  14.835  10.044  14.162 -0.2226  0.0684 -0.0687
 2961DOPG   C4B57396  14.648   9.743  14.446 -0.2885 -0.1762  0.0603
 2962DOPG   GL057397  16.066   8.230  15.015 -0.0007 -0.1818 -0.3131
 2962DOPG   PO457398  15.671   8.105  15.224 -0.0799 -0.2545  0.2182
 2962DOPG   GL157399  15.801   8.536  15.314  0.3089 -0.1652 -0.1912
 2962DOPG   GL257400  15.542   8.676  15.270  0.0277 -0.1087  0.0605
 2962DOPG   C1A57401  15.963   8.798  15.528  0.2205  0.0274  0.2347
 2962DOPG   D2A57402  16.183   8.914  15.879  0.2437  0.0948  0.1984
 2962DOPG   C3A57403  15.799   9.173  16.026  0.2482 -0.1220 -0.1340
 2962DOPG   C4A57404  15.809   9.553  16.047 -0.1157 -0.0280  0.0342
 2962DOPG   C1B57405  15.375   8.883  15.477 -0.0305 -0.2078 -0.2410
 2962DOPG   D2B57406  15.354   8.944  15.845 -0.0408  0.3288  0.0677
 2962DOPG   C3B57407  15.420   8.704  16.156  0.0162 -0.1258 -0.0495
 2962DOPG   C4B57408  15.313   8.451  16.468  0.1099  0.1676 -0.0881
 2963DOPG   GL057409  16.433  17.799  10.394 -0.0465 -0.2512  0.2790
 2963DOPG   PO457410  16.744  17.706  10.723 -0.0685 -0.1033  0.3806
 2963DOPG   GL157411  16.905  17.580  11.092  0.3496  0.0235 -0.0557
 2963DOPG   GL257412  16.720  17.554  11.314 -0.3285 -0.0930  0.1422
 2963DOPG   C1A57413  17.159  17.862  11.400 -0.3347  0.4129  0.0189
 2963DOPG   D2A57414  17.481  17.700  11.676 -0.2898 -0.3743  0.1979
 2963DOPG   C3A57415  17.376  17.355  11.962 -0.0274 -0.2081 -0.1819
 2963DOPG   C4A57416  17.449  17.269  12.386  0.2422 -0.1646  0.3438
 2963DOPG   C1B57417  17.039  17.400  11.616  0.3124  0.2944  0.2884
 2963DOPG   D2B57418  17.147  16.941  11.702  0.0612  0.1872 -0.1172
 2963DOPG   C3B57419  17.278  16.855  12.106 -0.0018  0.3719  0.2900
 2963DOPG   C4B57420  17.391  16.752  12.583  0.1701  0.1623 -0.1755
 2964DOPG   GL057421   9.715   7.887  16.176 -0.0422 -0.0745 -0.3352
 2964DOPG   PO457422  10.102   7.852  16.342 -0.0630 -0.0508  0.1852
 2964DOPG   GL157423   9.983   8.265  16.518 -0.1596  0.2293  0.1460
 2964DOPG   GL257424  10.210   8.316  16.673 -0.0716  0.1018 -0.1643
 2964DOPG   C1A57425   9.744   8.608  16.642  0.0822  0.2766 -0.1657
 2964DOPG   D2A57426   9.441   8.621  16.958 -0.0401 -0.1474  0.0948
 2964DOPG   C3A57427   9.548   8.435  17.328 -0.1628  0.1832 -0.1188
 2964DOPG   C4A57428   9.810   8.121  17.455  0.1232 -0.2853  0.1585
 2964DOPG   C1B57429  10.619   8.272  16.632  0.2934 -0.2173 -0.0539
 2964DOPG   D2B57430  11.037   8.046  16.384  0.1901  0.1081  0.3771
 2964DOPG   C3B57431  11.033   8.079  16.015 -0.1825 -0.1590 -0.0141
 2964DOPG   C4B57432  11.055   8.461  15.688  0.0010 -0.1957  0.0128
 2965DOPG   GL057433  12.353   8.131  14.838 -0.2133 -0.0175 -0.3603
 2965DOPG   PO457434  12.198   7.786  14.665  0.4475  0.0185  0.2271
 2965DOPG   GL157435  11.861   8.111  14.682 -0.0152 -0.3087 -0.1260
 2965DOPG   GL257436  11.998   8.358  14.603 -0.2901  0.0754 -0.0420
 2965DOPG   C1A57437  11.464   8.177  14.919 -0.2185 -0.0902 -0.0826
 2965DOPG   D2A57438  11.125   7.955  15.231  0.2182  0.0488  0.2333
 2965DOPG   C3A57439  10.732   7.790  15.044 -0.1223 -0.1723  0.0685
 2965DOPG   C4A57440  10.339   8.031  15.012 -0.1950 -0.0808  0.1604
 2965DOPG   C1B57441  11.840   8.603  14.910 -0.1911  0.1400 -0.0838
 2965DOPG   D2B57442  12.011   9.034  15.000  0.3323 -0.0711 -0.0273
 2965DOPG   C3B57443  12.419   9.094  14.823 -0.0669 -0.1402  0.1517
 2965DOPG   C4B57444  12.865   8.883  14.588  0.1317  0.2366  0.0038
 2966DOPG   GL057445  11.001  25.198  15.795 -0.0639 -0.0494 -0.1247
 2966DOPG   PO457446  10.651  25.114  15.517  0.3437 -0.3007 -0.1761
 2966DOPG   GL157447  10.809  24.731  15.675 -0.1072 -0.2837 -0.0325
 2966DOPG   GL257448  11.147  24.767  15.694 -0.1784  0.0196  0.0473
 2966DOPG   C1A57449  10.627  24.339  15.711  0.1136 -0.0530 -0.1688
 2966DOPG   D2A57450  10.289  24.237  15.712  0.3846  0.0171  0.3751
 2966DOPG   C3A57451  10.390  23.817  15.840 -0.1754 -0.1464  0.2584
 2966DOPG   C4A57452  10.596  23.495  15.731 -0.1485 -0.1269  0.1597
 2966DOPG   C1B57453  11.430  24.478  15.748 -0.1606 -0.3114  0.1198
 2966DOPG   D2B57454  11.817  24.369  15.759 -0.1867  0.1006 -0.1311
 2966DOPG   C3B57455  11.894  23.904  16.044 -0.0170  0.1397  0.0019
 2966DOPG   C4B57456  11.986  23.401  16.045  0.3058  0.0083  0.0901
 2967DOPG   GL057457  14.925  23.337  12.951 -0.1505 -0.3211 -0.1039
 2967DOPG   PO457458  14.516  23.159  13.034 -0.0927  0.0241  0.2657
 2967DOPG   GL157459  14.339  22.954  13.303  0.0036 -0.2354  0.1614
 2967DOPG   GL257460  14.249  23.061  13.538  0.3217  0.1564 -0.0314
 2967DOPG   C1A57461  14.212  22.481  13.311 -0.1765 -0.2137  0.1409
 2967DOPG   D2A57462  14.097  22.231  13.657  0.1506 -0.0686 -0.4749
 2967DOPG   C3A57463  14.453  22.146  13.879 -0.3846  0.0941  0.1661
 2967DOPG   C4A57464  14.619  21.854  14.053 -0.1835  0.3282 -0.0009
 2967DOPG   C1B57465  14.116  22.780  13.857  0.0509  0.0478  0.2991
 2967DOPG   D2B57466  14.071  22.437  14.086 -0.1097 -0.0770  0.1314
 2967DOPG   C3B57467  13.808  22.347  14.443  0.1757 -0.0815 -0.0873
 2967DOPG   C4B57468  13.584  22.215  14.782  0.0749 -0.3258 -0.2778
 2968DOPG   GL057469  18.770  15.247  11.170 -0.0110  0.1818  0.1054
 2968DOPG   PO457470  18.633  14.909  11.443  0.0491  0.3938  0.0984
 2968DOPG   GL157471  18.579  15.011  11.837  0.0181  0.1933  0.0526
 2968DOPG   GL257472  18.653  14.727  12.025  0.0581 -0.0402 -0.0424
 2968DOPG   C1A57473  18.205  15.040  12.144 -0.1426  0.0355 -0.3133
 2968DOPG   D2A57474  18.226  15.031  12.597 -0.4261  0.1861  0.4376
 2968DOPG   C3A57475  17.992  15.297  12.966 -0.0025 -0.0264  0.2806
 2968DOPG   C4A57476  17.702  15.529  13.137 -0.1202 -0.2149 -0.1626
 2968DOPG   C1B57477  19.060  14.958  12.132 -0.2387  0.1672 -0.0422
 2968DOPG   D2B57478  19.249  15.227  12.289 -0.1761 -0.0512 -0.1674
 2968DOPG   C3B57479  18.977  15.505  12.593  0.1442 -0.1856 -0.2588
 2968DOPG   C4B57480  18.672  15.751  12.385  0.0404  0.1439 -0.3252
 2969DOPG   GL057481  18.925  12.309  13.122 -0.0031 -0.1912 -0.0863
 2969DOPG   PO457482  18.825  11.791  13.191 -0.0447  0.4357 -0.0273
 2969DOPG   GL157483  18.862  11.976  13.505  0.0331  0.0598 -0.3912
 2969DOPG   GL257484  19.004  11.853  13.737  0.1674 -0.0266 -0.1791
 2969DOPG   C1A57485  19.082  12.331  13.556 -0.0302 -0.0648  0.0765
 2969DOPG   D2A57486  19.069  12.779  13.599 -0.2428  0.1610  0.0606
 2969DOPG   C3A57487  19.207  13.170  13.484  0.0966 -0.0406  0.2152
 2969DOPG   C4A57488  19.008  13.466  13.458 -0.0361  0.0306 -0.2297
 2969DOPG   C1B57489  18.905  11.628  14.014  0.1522  0.0181 -0.1667
 2969DOPG   D2B57490  18.912  11.403  14.583  0.0670  0.1268  0.1791
 2969DOPG   C3B57491  18.607  11.565  14.918 -0.0667 -0.0097 -0.1037
 2969DOPG   C4B57492  18.416  11.274  15.289 -0.0016  0.2448  0.1265
 2970DOPG   GL057493  19.937  24.203  17.322  0.3609 -0.1745 -0.0471
 2970DOPG   PO457494  20.122  24.007  16.903 -0.0365 -0.3194 -0.1890
 2970DOPG   GL157495  20.442  23.687  16.977 -0.1243  0.2851 -0.1263
 2970DOPG   GL257496  20.770  23.645  16.999  0.0853 -0.1402 -0.0369
 2970DOPG   C1A57497  20.539  23.219  16.962 -0.0265 -0.0415 -0.1639
 2970DOPG   D2A57498  20.793  22.869  16.910 -0.0890 -0.0821  0.3480
 2970DOPG   C3A57499  20.999  22.807  16.616  0.2268 -0.2500 -0.4124
 2970DOPG   C4A57500  21.431  22.811  16.466 -0.0364  0.1406  0.1218
 2970DOPG   C1B57501  20.803  23.772  17.364  0.1243  0.4307 -0.0077
 2970DOPG   D2B57502  20.735  23.757  17.788 -0.5183  0.0379  0.1251
 2970DOPG   C3B57503  20.404  23.556  17.842  0.1819 -0.0249  0.0647
 2970DOPG   C4B57504  20.169  23.589  18.269 -0.0291  0.0197 -0.1073
 2971DOPG   GL057505  15.936  10.340  13.390 -0.0585  0.1681  0.2601
 2971DOPG   PO457506  15.993   9.841  13.525  0.0951  0.0911 -0.0779
 2971DOPG   GL157507  16.047   9.910  13.966 -0.2214  0.3581 -0.1929
 2971DOPG   GL257508  15.782   9.794  14.148 -0.2619  0.0825  0.2863
 2971DOPG   C1A57509  16.124  10.306  14.302 -0.3844 -0.0223 -0.3390
 2971DOPG   D2A57510  16.066  10.718  14.223 -0.2393  0.3266 -0.2394
 2971DOPG   C3A57511  15.916  10.994  14.536  0.0248  0.0947  0.0807
 2971DOPG   C4A57512  15.473  10.934  14.590 -0.2168  0.0235  0.1521
 2971DOPG   C1B57513  15.702  10.071  14.429  0.0895  0.0953 -0.0288
 2971DOPG   D2B57514  15.609  10.478  14.451  0.0898  0.1447  0.2185
 2971DOPG   C3B57515  15.546  10.776  14.043  0.1667  0.2809 -0.0791
 2971DOPG   C4B57516  15.742  11.175  14.043 -0.1530  0.0349 -0.0751
 2972DOPG   GL057517  11.003   9.190  12.748 -0.1127 -0.0670  0.1284
 2972DOPG   PO457518  10.922   9.622  12.701 -0.0507  0.3202 -0.2344
 2972DOPG   GL157519  11.073   9.852  13.044  0.2105  0.0447 -0.2171
 2972DOPG   GL257520  11.251   9.745  13.324  0.1925 -0.0427  0.0580
 2972DOPG   C1A57521  10.934  10.196  13.349 -0.0140 -0.0131 -0.1107
 2972DOPG   D2A57522  10.882  10.595  13.455  0.2365  0.0752  0.1866
 2972DOPG   C3A57523  10.929  10.946  13.617  0.0748 -0.1253 -0.0651
 2972DOPG   C4A57524  11.298  11.177  13.758 -0.2207 -0.1897  0.0435
 2972DOPG   C1B57525  11.624   9.945  13.459 -0.0631 -0.2257  0.2645
 2972DOPG   D2B57526  11.935  10.130  13.378 -0.1147 -0.3824 -0.0250
 2972DOPG   C3B57527  12.261  10.451  13.505  0.2499 -0.0501  0.1335
 2972DOPG   C4B57528  12.704  10.584  13.485  0.1249 -0.0271  0.3406
 2973DOPG   GL057529  22.559  24.101  18.053 -0.1214 -0.0079  0.2175
 2973DOPG   PO457530  22.398  24.302  18.420 -0.3096 -0.6740  0.0769
 2973DOPG   GL157531  22.277  23.847  18.394 -0.2994 -0.0031 -0.4062
 2973DOPG   GL257532  21.896  23.818  18.361  0.0273  0.3665 -0.0137
 2973DOPG   C1A57533  22.462  23.516  18.391 -0.0882 -0.0433 -0.0407
 2973DOPG   D2A57534  22.265  23.174  18.199 -0.2683 -0.2426  0.3808
 2973DOPG   C3A57535  22.549  22.882  17.935 -0.1375  0.4081 -0.2894
 2973DOPG   C4A57536  23.001  22.778  18.105  0.1170 -0.2251  0.0069
 2973DOPG   C1B57537  21.771  23.390  18.327 -0.0093  0.1219  0.0761
 2973DOPG   D2B57538  21.744  22.888  18.076 -0.0782  0.1741  0.2842
 2973DOPG   C3B57539  22.034  22.778  17.850 -0.1004 -0.1575  0.1902
 2973DOPG   C4B57540  22.393  22.464  17.715  0.0614  0.1839 -0.1370
 2974DOPG   GL057541  18.526  20.435  11.647 -0.1187  0.0892  0.1013
 2974DOPG   PO457542  18.405  20.074  11.734  0.0940  0.1242 -0.0824
 2974DOPG   GL157543  18.582  19.969  12.174  0.3172 -0.2049 -0.1078
 2974DOPG   GL257544  18.451  20.274  12.196  0.0116 -0.1841  0.0348
 2974DOPG   C1A57545  18.916  20.051  12.445  0.2844 -0.2876 -0.1265
 2974DOPG   D2A57546  19.104  20.109  12.813 -0.0165  0.2175  0.1139
 2974DOPG   C3A57547  19.409  20.493  12.821  0.1393  0.0514 -0.1412
 2974DOPG   C4A57548  19.805  20.610  12.990  0.2181  0.0965  0.0555
 2974DOPG   C1B57549  18.200  20.167  12.567 -0.2421  0.1712 -0.0848
 2974DOPG   D2B57550  17.880  20.370  12.986  0.2753  0.0045  0.1896
 2974DOPG   C3B57551  17.763  20.053  13.232 -0.1024  0.1942 -0.2113
 2974DOPG   C4B57552  17.629  19.671  13.519  0.1215 -0.1900  0.1978
 2975DOPG   GL057553  14.269  24.942  15.055  0.1959 -0.1819  0.3292
 2975DOPG   PO457554  14.089  24.655  15.332  0.0327 -0.0597  0.3897
 2975DOPG   GL157555  13.801  24.530  15.414  0.2501 -0.2961  0.0720
 2975DOPG   GL257556  13.451  24.592  15.560  0.0332 -0.3074 -0.1701
 2975DOPG   C1A57557  13.512  24.116  15.302 -0.1599  0.1133  0.2771
 2975DOPG   D2A57558  13.308  23.828  15.268 -0.0169  0.1146  0.2875
 2975DOPG   C3A57559  13.148  23.453  15.589  0.0722 -0.0245 -0.1226
 2975DOPG   C4A57560  12.869  23.402  15.909 -0.0795  0.1717  0.0053
 2975DOPG   C1B57561  13.654  24.249  15.814  0.1156 -0.3047 -0.1999
 2975DOPG   D2B57562  13.850  23.879  15.625  0.3415 -0.1131  0.5858
 2975DOPG   C3B57563  13.868  23.431  15.797 -0.1703  0.0387  0.4621
 2975DOPG   C4B57564  13.843  23.261  16.195  0.0789 -0.0563  0.2645
 2976DOPG   GL057565  11.837  16.731  11.128  0.4527 -0.0018 -0.1301
 2976DOPG   PO457566  11.993  16.685  10.849 -0.1149  0.0195  0.1814
 2976DOPG   GL157567  12.273  16.458  11.273  0.1955  0.1048  0.1628
 2976DOPG   GL257568  12.270  16.083  11.304 -0.2693 -0.1341 -0.2909
 2976DOPG   C1A57569  12.585  16.655  11.499 -0.2094 -0.3147 -0.2052
 2976DOPG   D2A57570  12.892  16.987  11.722 -0.0268  0.1204  0.1836
 2976DOPG   C3A57571  13.332  16.906  11.692 -0.2462 -0.0069 -0.1496
 2976DOPG   C4A57572  13.646  16.604  11.958 -0.1051  0.0146 -0.1536
 2976DOPG   C1B57573  12.141  16.336  11.751 -0.1026  0.3368  0.1681
 2976DOPG   D2B57574  11.939  16.251  12.079  0.0265 -0.1386  0.0559
 2976DOPG   C3B57575  11.709  15.824  11.931  0.0685  0.1202 -0.1015
 2976DOPG   C4B57576  11.730  15.396  11.921  0.0736  0.1192  0.0449
 2977DOPG   GL057577  18.166  18.341  10.843 -0.2301 -0.1232  0.3802
 2977DOPG   PO457578  17.792  18.462  11.055  0.1910 -0.2628 -0.1131
 2977DOPG   GL157579  17.923  18.720  11.407 -0.0342 -0.1317  0.2087
 2977DOPG   GL257580  17.762  18.990  11.396  0.3802 -0.0167  0.0893
 2977DOPG   C1A57581  18.267  18.590  11.717  0.0289  0.0682  0.0197
 2977DOPG   D2A57582  18.230  18.688  12.194  0.0726 -0.1363  0.0706
 2977DOPG   C3A57583  17.990  18.652  12.478 -0.0581  0.3396 -0.1162
 2977DOPG   C4A57584  17.626  18.595  12.683  0.0305 -0.1229 -0.0636
 2977DOPG   C1B57585  17.499  18.610  11.665  0.0682  0.4033 -0.1970
 2977DOPG   D2B57586  17.266  18.196  11.771 -0.2786  0.1792 -0.0417
 2977DOPG   C3B57587  16.973  18.190  12.258  0.1216 -0.0085 -0.0183
 2977DOPG   C4B57588  16.808  18.131  12.650 -0.1879 -0.1575  0.1065
 2978DOPG   GL057589   7.203  17.996  14.448 -0.3269 -0.0640  0.2934
 2978DOPG   PO457590   6.935  18.269  14.238  0.0017 -0.0508 -0.1790
 2978DOPG   GL157591   6.525  18.255  14.292 -0.1835  0.0114  0.0210
 2978DOPG   GL257592   6.440  18.437  14.517  0.0951 -0.0495  0.1519
 2978DOPG   C1A57593   6.091  18.074  14.414 -0.0471  0.0924 -0.1078
 2978DOPG   D2A57594   5.815  17.638  14.447 -0.2036  0.0495 -0.2650
 2978DOPG   C3A57595   5.453  17.677  14.187 -0.0892  0.2567  0.1925
 2978DOPG   C4A57596   5.201  17.955  13.896 -0.1715 -0.2251 -0.0552
 2978DOPG   C1B57597   6.023  18.524  14.653 -0.0737  0.1489 -0.0373
 2978DOPG   D2B57598   5.793  18.170  14.855 -0.0439 -0.2930  0.3912
 2978DOPG   C3B57599   5.684  18.404  15.255  0.1447  0.0083  0.1109
 2978DOPG   C4B57600   5.994  18.574  15.607 -0.2437 -0.5727  0.0892
 2979DOPG   GL057601  24.387  22.927  17.104  0.2088  0.0120  0.4679
 2979DOPG   PO457602  24.595  22.631  17.028 -0.0861 -0.2474  0.0998
 2979DOPG   GL157603  24.517  22.248  17.138  0.3378 -0.2381 -0.0322
 2979DOPG   GL257604  24.873  22.209  17.360  0.1005 -0.2356 -0.2295
 2979DOPG   C1A57605  24.257  21.888  17.052  0.2452  0.2618 -0.1141
 2979DOPG   D2A57606  24.198  21.581  17.315  0.0688 -0.1993 -0.0276
 2979DOPG   C3A57607  23.980  21.769  17.725 -0.0060 -0.0872 -0.1903
 2979DOPG   C4A57608  23.647  21.624  17.992  0.0241  0.1146 -0.1854
 2979DOPG   C1B57609  24.928  21.821  17.208 -0.0351 -0.1855 -0.3807
 2979DOPG   D2B57610  25.195  21.781  16.848  0.1852  0.2290 -0.3295
 2979DOPG   C3B57611  25.008  21.459  16.490 -0.1842  0.1593  0.1049
 2979DOPG   C4B57612  24.999  21.165  16.144  0.2111  0.1349  0.1893
 2980DOPG   GL057613  11.655  11.194  11.899 -0.0192  0.1366 -0.0066
 2980DOPG   PO457614  11.321  11.134  12.134 -0.0733 -0.1078  0.1512
 2980DOPG   GL157615  11.599  11.412  12.383 -0.0117 -0.0790  0.0998
 2980DOPG   GL257616  11.459  11.635  12.431 -0.1567  0.3175  0.1970
 2980DOPG   C1A57617  11.812  11.325  12.743 -0.0106 -0.0793 -0.2063
 2980DOPG   D2A57618  11.765  11.018  13.116 -0.3117 -0.1885  0.1873
 2980DOPG   C3A57619  11.805  10.676  13.045  0.0647  0.3589 -0.0428
 2980DOPG   C4A57620  11.544  10.377  13.197  0.0951 -0.1655  0.0196
 2980DOPG   C1B57621  11.428  11.869  12.792  0.1770  0.0131 -0.1726
 2980DOPG   D2B57622  11.271  12.049  13.237  0.1207  0.0182 -0.0571
 2980DOPG   C3B57623  11.346  12.341  13.446  0.1451  0.3685  0.0594
 2980DOPG   C4B57624  11.677  12.642  13.337 -0.0173  0.2142 -0.1084
 2981DOPG   GL057625  24.626  23.198  16.190 -0.2914 -0.3177  0.0376
 2981DOPG   PO457626  24.288  23.137  15.825 -0.2888  0.1901  0.0883
 2981DOPG   GL157627  23.976  22.797  15.688  0.1377 -0.1515 -0.1469
 2981DOPG   GL257628  23.853  22.634  15.383  0.0985 -0.0752 -0.0132
 2981DOPG   C1A57629  23.752  22.445  15.920 -0.0432  0.0721  0.0085
 2981DOPG   D2A57630  23.473  22.126  16.084  0.1108 -0.0918 -0.0421
 2981DOPG   C3A57631  23.708  21.719  16.119 -0.0723 -0.1194 -0.0477
 2981DOPG   C4A57632  23.843  21.277  16.016  0.1364  0.0743  0.0616
 2981DOPG   C1B57633  24.144  22.339  15.411 -0.1965 -0.1331 -0.2936
 2981DOPG   D2B57634  24.278  21.942  15.463 -0.1574 -0.0409  0.2369
 2981DOPG   C3B57635  24.495  21.741  15.824  0.3602  0.1106 -0.2446
 2981DOPG   C4B57636  24.904  21.583  15.785 -0.0584 -0.0040 -0.0052
 2982DOPG   GL057637   9.194  16.171  13.166  0.1136  0.2738 -0.0791
 2982DOPG   PO457638   8.907  16.354  13.325  0.1659 -0.0009 -0.1897
 2982DOPG   GL157639   9.029  16.602  13.615  0.1031 -0.0993  0.0957
 2982DOPG   GL257640   9.323  16.367  13.674 -0.1404 -0.0387 -0.1029
 2982DOPG   C1A57641   8.936  16.684  14.026  0.1045 -0.0433 -0.1774
 2982DOPG   D2A57642   9.124  16.781  14.423  0.2101 -0.1713 -0.0236
 2982DOPG   C3A57643   9.229  16.918  14.854 -0.0493 -0.0886 -0.0501
 2982DOPG   C4A57644   9.397  17.103  15.244 -0.1249  0.2510  0.2185
 2982DOPG   C1B57645   9.597  16.568  13.915 -0.2039  0.1497 -0.3801
 2982DOPG   D2B57646   9.876  16.795  14.167 -0.0759 -0.1987 -0.2078
 2982DOPG   C3B57647   9.563  17.024  14.421 -0.3737  0.2664  0.1037
 2982DOPG   C4B57648   9.817  17.197  14.889 -0.2932 -0.1326 -0.0604
 2983DOPG   GL057649  16.530  18.574  11.073 -0.2955 -0.0965  0.4114
 2983DOPG   PO457650  16.536  18.832  11.366 -0.0799  0.2056 -0.0634
 2983DOPG   GL157651  16.293  18.412  11.518 -0.0673 -0.0922  0.2871
 2983DOPG   GL257652  15.936  18.573  11.629 -0.0350  0.2604  0.1688
 2983DOPG   C1A57653  16.196  18.108  11.928 -0.0826  0.0853  0.0397
 2983DOPG   D2A57654  16.096  17.740  11.900 -0.2590  0.0928  0.2023
 2983DOPG   C3A57655  15.856  17.298  11.969 -0.0559  0.1382 -0.3900
 2983DOPG   C4A57656  15.906  17.109  12.367  0.1299 -0.0112  0.0431
 2983DOPG   C1B57657  15.923  18.458  12.062 -0.1782  0.0314  0.2457
 2983DOPG   D2B57658  15.790  18.179  12.303 -0.2113  0.5630 -0.0822
 2983DOPG   C3B57659  16.125  17.859  12.436  0.0006  0.4531  0.1335
 2983DOPG   C4B57660  16.263  17.429  12.283 -0.0614  0.1284  0.0818
 2984DOPG   GL057661  11.775   9.085  12.819 -0.3250 -0.0231  0.1380
 2984DOPG   PO457662  12.061   9.073  13.145 -0.1197 -0.2553  0.2265
 2984DOPG   GL157663  12.081   9.159  13.648 -0.0095  0.0105  0.0020
 2984DOPG   GL257664  12.480   9.352  13.619 -0.1751  0.3427 -0.0279
 2984DOPG   C1A57665  12.006   9.281  14.023  0.1453  0.2499  0.0812
 2984DOPG   D2A57666  12.087   9.628  14.257  0.2029 -0.1882 -0.1092
 2984DOPG   C3A57667  12.357   9.918  14.173 -0.1925  0.0116  0.0551
 2984DOPG   C4A57668  12.531  10.274  13.886 -0.0496  0.1038  0.0023
 2984DOPG   C1B57669  12.717   9.706  13.865 -0.0603 -0.1039 -0.1447
 2984DOPG   D2B57670  12.877   9.849  14.176  0.1583  0.0879 -0.2556
 2984DOPG   C3B57671  13.361   9.763  14.288 -0.1556 -0.1380  0.4607
 2984DOPG   C4B57672  13.731   9.769  14.091  0.1658  0.1675  0.0030
 2985DOPG   GL057673   6.600  11.500  14.146 -0.2561 -0.0257  0.0844
 2985DOPG   PO457674   6.954  11.615  14.343  0.1463 -0.0553  0.4867
 2985DOPG   GL157675   7.026  11.901  14.616  0.0380  0.0232 -0.2777
 2985DOPG   GL257676   6.917  12.162  14.564  0.0811 -0.0301  0.0420
 2985DOPG   C1A57677   7.256  12.049  14.931  0.1837 -0.1684 -0.2377
 2985DOPG   D2A57678   7.548  12.262  15.193  0.1304 -0.2100  0.0498
 2985DOPG   C3A57679   8.022  12.291  15.297 -0.2950  0.1103 -0.2256
 2985DOPG   C4A57680   8.458  12.324  15.181  0.0964  0.2707 -0.2854
 2985DOPG   C1B57681   6.896  12.529  14.758  0.1636 -0.2131 -0.0988
 2985DOPG   D2B57682   7.248  12.714  15.021  0.2601  0.0241 -0.0413
 2985DOPG   C3B57683   7.096  12.935  15.382 -0.2642 -0.0736 -0.2343
 2985DOPG   C4B57684   6.950  13.087  15.820 -0.2496 -0.0904 -0.2004
 2986DOPG   GL057685  24.651  22.804  14.667  0.1453 -0.0733  0.0849
 2986DOPG   PO457686  24.703  22.530  14.360 -0.3277 -0.2432  0.2201
 2986DOPG   GL157687  24.675  22.105  14.424  0.0651  0.1367 -0.3049
 2986DOPG   GL257688  24.336  22.043  14.178 -0.0624  0.0209  0.2298
 2986DOPG   C1A57689  24.602  21.687  14.715 -0.2725  0.0960 -0.1112
 2986DOPG   D2A57690  24.436  21.321  14.770 -0.3738 -0.2142  0.0755
 2986DOPG   C3A57691  24.250  21.046  15.094 -0.0451  0.3881 -0.0786
 2986DOPG   C4A57692  24.401  20.938  15.611 -0.1154  0.1185 -0.2938
 2986DOPG   C1B57693  24.109  21.726  14.515  0.1167  0.1691  0.0864
 2986DOPG   D2B57694  23.935  21.353  14.771 -0.1443 -0.1616  0.2031
 2986DOPG   C3B57695  23.857  21.442  15.209 -0.2517  0.2715  0.2512
 2986DOPG   C4B57696  23.629  21.362  15.520 -0.0350  0.2661 -0.1449
 2987DOPG   GL057697  12.102   6.439  18.645 -0.0987  0.0383 -0.0585
 2987DOPG   PO457698  12.370   6.744  18.784 -0.1225  0.0786 -0.1853
 2987DOPG   GL157699  12.438   7.152  18.677 -0.2349  0.4523  0.3556
 2987DOPG   GL257700  12.178   7.307  18.914 -0.4674  0.3595  0.1462
 2987DOPG   C1A57701  12.561   7.530  18.478 -0.3842  0.2280  0.3130
 2987DOPG   D2A57702  12.486   7.883  18.319 -0.1465 -0.1958  0.2139
 2987DOPG   C3A57703  12.313   8.269  18.601 -0.2420 -0.2398 -0.1261
 2987DOPG   C4A57704  12.284   8.695  18.488 -0.0836  0.0140  0.0685
 2987DOPG   C1B57705  11.732   7.540  18.821 -0.2976  0.1062  0.1137
 2987DOPG   D2B57706  11.342   7.691  18.740  0.5233 -0.2952 -0.2736
 2987DOPG   C3B57707  11.432   8.098  18.592 -0.1761 -0.5207  0.6824
 2987DOPG   C4B57708  11.323   8.451  18.517  0.1452 -0.0281  0.1210
 2988DOPG   GL057709  11.735  12.013  11.742 -0.1036  0.0528  0.2326
 2988DOPG   PO457710  11.666  11.715  11.976 -0.0175  0.0971  0.1638
 2988DOPG   GL157711  11.889  11.877  12.323 -0.2405  0.1107  0.0028
 2988DOPG   GL257712  11.945  12.164  12.164  0.0710  0.1654 -0.2655
 2988DOPG   C1A57713  11.929  11.818  12.680 -0.0985 -0.1696  0.3342
 2988DOPG   D2A57714  11.980  11.535  13.188 -0.1119 -0.2739 -0.1213
 2988DOPG   C3A57715  11.820  11.301  13.582  0.0805  0.3460  0.1962
 2988DOPG   C4A57716  11.978  11.115  14.015 -0.0780  0.1519 -0.0444
 2988DOPG   C1B57717  12.239  12.142  12.445  0.0549  0.0546 -0.1384
 2988DOPG   D2B57718  12.609  12.137  12.622 -0.0658  0.2834 -0.1024
 2988DOPG   C3B57719  12.683  12.388  12.963  0.2072  0.2642  0.0647
 2988DOPG   C4B57720  12.741  12.165  13.385  0.0192 -0.3265  0.0257
 2989DOPG   GL057721  21.019  12.979  14.535 -0.2284 -0.1515  0.2215
 2989DOPG   PO457722  20.766  13.084  14.253 -0.2347 -0.2198  0.1725
 2989DOPG   GL157723  20.609  13.556  14.265 -0.2556 -0.4663 -0.0695
 2989DOPG   GL257724  20.738  13.830  14.478 -0.0060  0.1248  0.2770
 2989DOPG   C1A57725  20.242  13.911  14.348  0.0972  0.1510 -0.0087
 2989DOPG   D2A57726  19.923  14.054  14.761 -0.0950 -0.0990  0.1079
 2989DOPG   C3A57727  19.696  14.457  14.822 -0.1656 -0.0977 -0.0701
 2989DOPG   C4A57728  19.287  14.494  14.803 -0.1904 -0.0645  0.3455
 2989DOPG   C1B57729  20.686  14.079  14.169 -0.0676  0.0435 -0.3372
 2989DOPG   D2B57730  20.327  14.308  14.064  0.0605  0.0957  0.1188
 2989DOPG   C3B57731  20.564  14.669  14.023 -0.1302  0.0341  0.0330
 2989DOPG   C4B57732  20.535  15.099  13.983 -0.1069 -0.4015 -0.0672
 2990DOPG   GL057733  21.648  18.239  12.532  0.1831  0.1360 -0.2871
 2990DOPG   PO457734  21.657  18.681  12.487 -0.0713  0.1072 -0.1562
 2990DOPG   GL157735  21.615  18.632  13.038 -0.1789  0.0157 -0.1139
 2990DOPG   GL257736  21.886  18.536  13.091 -0.0597  0.2530  0.3043
 2990DOPG   C1A57737  21.192  18.738  13.108 -0.0475 -0.0399 -0.1423
 2990DOPG   D2A57738  20.829  18.721  13.118  0.3096 -0.1619  0.3498
 2990DOPG   C3A57739  20.716  18.944  13.406  0.4646 -0.1233 -0.1872
 2990DOPG   C4A57740  20.582  19.055  13.784 -0.0783 -0.1668  0.1933
 2990DOPG   C1B57741  22.139  18.776  13.293 -0.1032  0.2733 -0.1760
 2990DOPG   D2B57742  22.131  18.916  13.664 -0.1770  0.1071 -0.1994
 2990DOPG   C3B57743  22.566  18.875  13.949  0.0725 -0.0467 -0.0092
 2990DOPG   C4B57744  22.922  18.756  14.274 -0.1220  0.4162 -0.1687
 2991DOPG   GL057745  11.485  14.516  11.271  0.1590  0.1347 -0.0503
 2991DOPG   PO457746  11.083  14.218  11.362 -0.4452 -0.2310  0.1819
 2991DOPG   GL157747  11.018  14.306  11.785 -0.0110  0.1962 -0.4028
 2991DOPG   GL257748  11.097  14.672  11.851 -0.0245 -0.0810 -0.0405
 2991DOPG   C1A57749  11.178  14.133  12.286  0.0368  0.2576  0.0553
 2991DOPG   D2A57750  11.452  13.943  12.544  0.1580  0.2754 -0.1190
 2991DOPG   C3A57751  11.793  13.833  12.822 -0.1590  0.3393 -0.2603
 2991DOPG   C4A57752  12.104  13.489  12.841  0.4912  0.0133 -0.0838
 2991DOPG   C1B57753  11.317  14.594  12.229 -0.0792 -0.4407 -0.1691
 2991DOPG   D2B57754  11.553  14.647  12.504 -0.1304  0.4092 -0.2438
 2991DOPG   C3B57755  11.471  14.832  12.890 -0.4392  0.1093 -0.1126
 2991DOPG   C4B57756  11.619  14.704  13.345 -0.1264  0.0998  0.1058
 2992DOPG   GL057757  15.549   9.133  13.773  0.0956 -0.0680 -0.4082
 2992DOPG   PO457758  15.127   9.238  13.819 -0.0405  0.1993  0.1925
 2992DOPG   GL157759  15.036   9.497  14.144 -0.0437 -0.0488 -0.0670
 2992DOPG   GL257760  15.379   9.456  14.206 -0.1864 -0.0030  0.0337
 2992DOPG   C1A57761  15.065   9.363  14.583  0.0676 -0.0248  0.1174
 2992DOPG   D2A57762  15.132   9.617  15.019 -0.3379 -0.1617  0.1803
 2992DOPG   C3A57763  14.635   9.655  15.375  0.4452 -0.2237  0.1729
 2992DOPG   C4A57764  14.564  10.048  15.712  0.0150 -0.1287  0.0760
 2992DOPG   C1B57765  15.208   9.845  14.507  0.2767  0.1970 -0.0169
 2992DOPG   D2B57766  15.087  10.281  14.511  0.0016 -0.1250  0.0751
 2992DOPG   C3B57767  15.043  10.678  14.350 -0.0964  0.1203 -0.1673
 2992DOPG   C4B57768  14.740  10.947  14.170 -0.0449 -0.1855  0.0490
 2993DOPG   GL057769   5.380  23.275  13.793 -0.1036  0.0433  0.0148
 2993DOPG   PO457770   5.655  23.030  13.550  0.1801 -0.0701 -0.0364
 2993DOPG   GL157771   6.002  22.855  13.462  0.0283  0.1749  0.2071
 2993DOPG   GL257772   6.038  22.665  13.820  0.1316 -0.2505  0.0437
 2993DOPG   C1A57773   6.206  22.518  13.301  0.2798 -0.0272 -0.2526
 2993DOPG   D2A57774   6.456  22.096  13.193  0.2596 -0.2587  0.2271
 2993DOPG   C3A57775   6.853  22.023  12.954  0.1213 -0.1348 -0.3857
 2993DOPG   C4A57776   6.981  21.713  12.775  0.2206  0.1046 -0.1993
 2993DOPG   C1B57777   6.024  22.153  13.978  0.0476 -0.3574 -0.0591
 2993DOPG   D2B57778   6.027  21.708  13.896 -0.1471  0.4045  0.1874
 2993DOPG   C3B57779   6.297  21.450  13.661  0.2555  0.2236 -0.1653
 2993DOPG   C4B57780   6.687  21.246  13.760 -0.3161  0.1086 -0.0284
 2994DOPG   GL057781  17.578  12.243  13.045 -0.3734 -0.0786 -0.3648
 2994DOPG   PO457782  17.259  12.145  12.730 -0.0765 -0.0158 -0.0633
 2994DOPG   GL157783  17.089  12.348  13.157  0.0183  0.1939 -0.0059
 2994DOPG   GL257784  16.790  12.344  13.034 -0.1313  0.2940 -0.0148
 2994DOPG   C1A57785  16.819  12.651  13.405 -0.1794 -0.1364  0.1787
 2994DOPG   D2A57786  16.819  12.668  13.774  0.0714  0.4198  0.2410
 2994DOPG   C3A57787  16.449  12.781  13.977 -0.1022  0.0494 -0.0569
 2994DOPG   C4A57788  16.197  12.956  14.268 -0.3040 -0.2849  0.0471
 2994DOPG   C1B57789  16.597  11.962  13.186 -0.3721 -0.0962 -0.3511
 2994DOPG   D2B57790  16.706  11.567  13.387  0.2379 -0.0866 -0.1407
 2994DOPG   C3B57791  17.120  11.592  13.737 -0.0164  0.1586  0.2701
 2994DOPG   C4B57792  17.298  11.852  13.963  0.1401 -0.2185 -0.2722
 2995DOPG   GL057793  10.707   8.547  13.833 -0.0894 -0.1552  0.0760
 2995DOPG   PO457794  10.713   8.508  13.397 -0.1897  0.0945  0.1198
 2995DOPG   GL157795  10.782   8.954  13.531  0.3177  0.1628 -0.3642
 2995DOPG   GL257796  11.117   9.124  13.649  0.0991  0.3262  0.1569
 2995DOPG   C1A57797  10.668   9.399  13.841  0.0829  0.0922  0.0745
 2995DOPG   D2A57798  10.893   9.469  14.195  0.1550  0.2623  0.3195
 2995DOPG   C3A57799  10.749   9.491  14.543  0.2046  0.2649 -0.2597
 2995DOPG   C4A57800  10.810   9.614  14.984  0.0425 -0.0613 -0.0321
 2995DOPG   C1B57801  11.225   9.524  13.803 -0.1094  0.3123  0.2066
 2995DOPG   D2B57802  11.593   9.629  14.063  0.1518 -0.1808  0.3487
 2995DOPG   C3B57803  11.504   9.454  14.319 -0.1928  0.2217 -0.2239
 2995DOPG   C4B57804  11.190   9.268  14.556  0.2736  0.0001  0.0745
 2996DOPG   GL057805  15.010  20.250  11.752 -0.0397 -0.2476 -0.4813
 2996DOPG   PO457806  15.048  19.970  11.388 -0.2664  0.0617  0.0327
 2996DOPG   GL157807  14.659  19.849  11.637 -0.3125 -0.1506  0.1093
 2996DOPG   GL257808  14.603  19.577  11.861 -0.1511  0.2393  0.4201
 2996DOPG   C1A57809  14.221  19.802  11.916  0.0559 -0.1545  0.1655
 2996DOPG   D2A57810  13.949  20.066  12.106  0.1171  0.3737 -0.2309
 2996DOPG   C3A57811  13.750  19.834  12.392 -0.0207  0.0140 -0.6456
 2996DOPG   C4A57812  13.447  19.544  12.731 -0.0083  0.1554 -0.0615
 2996DOPG   C1B57813  14.899  19.760  12.242  0.0890  0.1520 -0.0811
 2996DOPG   D2B57814  15.261  19.889  12.348  0.0812  0.0061 -0.2514
 2996DOPG   C3B57815  15.442  20.160  12.628  0.3978 -0.5077  0.0345
 2996DOPG   C4B57816  15.380  20.573  12.614  0.2042  0.1059 -0.0351
 2997DOPG   GL057817  20.606  17.475  11.782 -0.0884  0.1728  0.1192
 2997DOPG   PO457818  20.892  17.789  11.927 -0.0283  0.0845  0.0141
 2997DOPG   GL157819  20.517  17.669  12.209  0.2997 -0.0047 -0.0429
 2997DOPG   GL257820  20.679  17.515  12.520  0.0529  0.3133  0.2056
 2997DOPG   C1A57821  20.222  17.805  12.251  0.1374 -0.2751 -0.3399
 2997DOPG   D2A57822  20.027  18.118  12.338 -0.0876  0.1577  0.0826
 2997DOPG   C3A57823  19.652  18.152  12.307 -0.2169 -0.1005 -0.2184
 2997DOPG   C4A57824  19.346  18.020  12.087  0.1111  0.1327  0.5947
 2997DOPG   C1B57825  20.918  17.470  12.912 -0.1286 -0.1313 -0.2104
 2997DOPG   D2B57826  21.373  17.488  13.041  0.1636 -0.0269 -0.1407
 2997DOPG   C3B57827  21.661  17.256  13.211 -0.1276  0.3063  0.2718
 2997DOPG   C4B57828  21.930  16.856  13.024 -0.2743  0.0050 -0.1247
 2998DOPG   GL057829  20.925  16.739  12.077 -0.2644 -0.0648 -0.2815
 2998DOPG   PO457830  20.559  16.707  11.957  0.0621 -0.0952 -0.0143
 2998DOPG   GL157831  20.544  16.672  12.462 -0.3965 -0.4375 -0.2394
 2998DOPG   GL257832  20.876  16.611  12.734  0.1690 -0.2166  0.0767
 2998DOPG   C1A57833  20.375  16.577  12.988 -0.1739  0.1678 -0.1537
 2998DOPG   D2A57834  20.271  16.288  13.199  0.1744  0.0981  0.0792
 2998DOPG   C3A57835  20.093  16.367  13.580  0.2911 -0.1758  0.2767
 2998DOPG   C4A57836  20.048  16.344  13.961  0.0980 -0.0784 -0.0041
 2998DOPG   C1B57837  20.832  16.250  13.063 -0.3900 -0.1899 -0.0345
 2998DOPG   D2B57838  20.778  16.208  13.526 -0.0487 -0.1574  0.1133
 2998DOPG   C3B57839  20.528  16.474  13.843  0.0783  0.1020 -0.2386
 2998DOPG   C4B57840  20.287  16.832  13.860 -0.0604 -0.1549  0.0984
 2999DOPG   GL057841  12.177  19.867  11.512  0.1872 -0.1770  0.0062
 2999DOPG   PO457842  11.776  19.831  11.625  0.2315  0.1555  0.1199
 2999DOPG   GL157843  12.010  19.501  11.839 -0.0900  0.1041 -0.1213
 2999DOPG   GL257844  12.235  19.693  11.970 -0.0349 -0.1097 -0.0185
 2999DOPG   C1A57845  11.947  19.346  12.240  0.0018  0.2480 -0.1279
 2999DOPG   D2A57846  12.099  19.022  12.514  0.0233 -0.0787  0.3122
 2999DOPG   C3A57847  11.812  18.997  12.852  0.2933  0.1051  0.1005
 2999DOPG   C4A57848  11.812  19.057  13.317  0.5266 -0.0297 -0.2515
 2999DOPG   C1B57849  12.014  19.865  12.352  0.1122 -0.0935  0.0193
 2999DOPG   D2B57850  12.209  19.988  12.694  0.0004  0.0327 -0.1199
 2999DOPG   C3B57851  12.466  19.721  12.986 -0.0885 -0.2048 -0.0745
 2999DOPG   C4B57852  12.857  19.850  12.773 -0.2021  0.2885  0.3352
 3000DOPG   GL057853  14.761   7.273  15.141 -0.1229  0.0277 -0.0703
 3000DOPG   PO457854  14.513   7.241  15.407  0.0748  0.1489 -0.1288
 3000DOPG   GL157855  14.399   7.669  15.445  0.0701 -0.1932 -0.1160
 3000DOPG   GL257856  14.309   7.896  15.316 -0.0205 -0.0090 -0.0351
 3000DOPG   C1A57857  14.453   8.117  15.664  0.2474 -0.0667  0.0661
 3000DOPG   D2A57858  14.421   8.341  16.075 -0.2903 -0.0456 -0.1892
 3000DOPG   C3A57859  14.456   8.810  16.013 -0.2833 -0.1929 -0.2427
 3000DOPG   C4A57860  14.152   9.154  16.079 -0.3009 -0.5027  0.2436
 3000DOPG   C1B57861  14.234   8.426  15.290  0.0091 -0.0818 -0.0224
 3000DOPG   D2B57862  14.212   8.738  15.552  0.3024 -0.2297 -0.0470
 3000DOPG   C3B57863  13.915   8.740  15.925 -0.0074 -0.0789 -0.0738
 3000DOPG   C4B57864  13.567   8.591  15.891  0.1377  0.1618  0.1095
 3001DOPG   GL057865  12.320  25.241  15.736  0.0375 -0.1188 -0.2980
 3001DOPG   PO457866  11.966  25.463  15.784 -0.0057  0.0976 -0.2224
 3001DOPG   GL157867  11.893  24.964  15.868 -0.3863  0.3577  0.0912
 3001DOPG   GL257868  12.108  24.784  15.643 -0.1878  0.1267  0.4320
 3001DOPG   C1A57869  11.653  24.700  16.117 -0.2271  0.0762 -0.0923
 3001DOPG   D2A57870  11.513  24.352  16.334 -0.0896 -0.0221  0.2683
 3001DOPG   C3A57871  11.426  23.892  16.149 -0.0754  0.1509 -0.0208
 3001DOPG   C4A57872  11.528  23.565  16.329  0.0712 -0.0616  0.2721
 3001DOPG   C1B57873  12.284  24.447  15.523 -0.0987 -0.1442 -0.3215
 3001DOPG   D2B57874  12.660  24.298  15.623 -0.0921  0.0357 -0.2953
 3001DOPG   C3B57875  12.959  24.435  16.009  0.0825 -0.4008  0.1981
 3001DOPG   C4B57876  13.161  24.263  16.312  0.3705  0.0206 -0.3183
 3002DOPG   GL057877  12.777  14.287  10.881 -0.2048  0.0712 -0.0307
 3002DOPG   PO457878  12.916  14.713  11.042 -0.1106 -0.0746  0.3374
 3002DOPG   GL157879  12.713  15.071  11.159 -0.0065 -0.1308  0.0162
 3002DOPG   GL257880  12.502  14.970  11.487 -0.0722 -0.1293 -0.0810
 3002DOPG   C1A57881  12.647  15.421  11.470  0.0368 -0.2849  0.0438
 3002DOPG   D2A57882  12.272  15.584  11.518 -0.2196 -0.1244  0.3562
 3002DOPG   C3A57883  12.395  15.850  11.729 -0.0545  0.1750  0.2225
 3002DOPG   C4A57884  12.760  16.167  11.810  0.0996 -0.1503 -0.2236
 3002DOPG   C1B57885  12.273  15.164  11.795 -0.1223  0.1299 -0.0539
 3002DOPG   D2B57886  12.340  15.430  12.065  0.0814  0.1435 -0.2294
 3002DOPG   C3B57887  12.557  15.849  12.241  0.3115 -0.2506  0.0433
 3002DOPG   C4B57888  12.399  16.204  12.244  0.0427 -0.3184  0.1838
 3003DOPG   GL057889  11.188   8.580  13.197  0.3034  0.0437  0.1126
 3003DOPG   PO457890  11.472   8.656  13.552 -0.0630  0.0962 -0.3329
 3003DOPG   GL157891  11.603   9.074  13.720  0.2181  0.0152 -0.1534
 3003DOPG   GL257892  11.629   8.930  14.012  0.1139 -0.1147  0.0635
 3003DOPG   C1A57893  11.743   9.458  13.529  0.3351  0.0865  0.2760
 3003DOPG   D2A57894  12.121   9.718  13.791  0.1795 -0.4411  0.0745
 3003DOPG   C3A57895  11.928  10.168  13.869 -0.1723  0.4613 -0.0498
 3003DOPG   C4A57896  11.590  10.231  13.857 -0.2698 -0.0771  0.0523
 3003DOPG   C1B57897  11.198   9.087  14.116  0.0786  0.1202  0.1691
 3003DOPG   D2B57898  10.798   8.982  14.208 -0.2222 -0.2308  0.4447
 3003DOPG   C3B57899  10.646   9.010  14.644 -0.1562  0.1468  0.1375
 3003DOPG   C4B57900  10.905   9.118  14.979  0.0598  0.3794  0.3241
 3004DOPG   GL057901  12.072   7.941  13.754 -0.0060 -0.0958  0.2318
 3004DOPG   PO457902  12.401   8.336  13.522  0.2414  0.1460 -0.4185
 3004DOPG   GL157903  12.379   8.523  13.880  0.0878  0.1405 -0.0057
 3004DOPG   GL257904  12.568   8.856  13.973 -0.0227  0.1216  0.0156
 3004DOPG   C1A57905  12.065   8.753  14.147 -0.3467 -0.1932  0.0378
 3004DOPG   D2A57906  12.071   8.838  14.523  0.0794  0.3641 -0.0194
 3004DOPG   C3A57907  12.028   9.194  14.505  0.1961  0.2045 -0.0471
 3004DOPG   C4A57908  11.817   9.492  14.713 -0.1583  0.3577 -0.1574
 3004DOPG   C1B57909  12.501   9.141  14.283 -0.2185  0.0088 -0.1139
 3004DOPG   D2B57910  12.484   9.530  14.545  0.0051 -0.4564  0.0251
 3004DOPG   C3B57911  12.225   9.587  14.917 -0.0916 -0.2486 -0.0167
 3004DOPG   C4B57912  12.080  10.024  14.935  0.0622 -0.0451 -0.2905
 3005DOPG   GL057913  21.476  23.547  14.949 -0.3528  0.2246 -0.1258
 3005DOPG   PO457914  21.059  23.650  15.039  0.1209 -0.1010 -0.0098
 3005DOPG   GL157915  21.098  23.430  15.410  0.0845  0.2825  0.0639
 3005DOPG   GL257916  21.458  23.324  15.409 -0.0611 -0.2516  0.2117
 3005DOPG   C1A57917  21.011  23.038  15.365  0.1094 -0.2494  0.0280
 3005DOPG   D2A57918  20.898  22.781  15.100  0.1861  0.0413  0.1886
 3005DOPG   C3A57919  21.066  22.390  14.923 -0.6098 -0.0108 -0.1123
 3005DOPG   C4A57920  21.130  21.941  15.019  0.0874  0.0248  0.1681
 3005DOPG   C1B57921  21.718  23.251  15.726 -0.0264  0.2285  0.0204
 3005DOPG   D2B57922  21.726  23.124  16.124 -0.3766  0.0355 -0.0009
 3005DOPG   C3B57923  21.438  23.294  16.414  0.0800 -0.0221  0.1814
 3005DOPG   C4B57924  21.504  23.511  16.828 -0.0261  0.0598 -0.0265
 3006DOPG   GL057925   8.259  19.597  14.008 -0.1498 -0.1603  0.1727
 3006DOPG   PO457926   8.189  19.778  13.606 -0.0748  0.2468  0.1574
 3006DOPG   GL157927   7.743  19.732  13.790 -0.0079  0.1442 -0.0250
 3006DOPG   GL257928   7.505  19.805  13.637  0.0861 -0.0065 -0.1351
 3006DOPG   C1A57929   7.399  19.921  14.080 -0.0341  0.4423 -0.0849
 3006DOPG   D2A57930   7.063  20.066  14.052  0.3260  0.2150 -0.0727
 3006DOPG   C3A57931   6.820  20.325  13.753  0.1177 -0.0015 -0.0888
 3006DOPG   C4A57932   6.624  20.434  13.439  0.0791 -0.2251  0.0440
 3006DOPG   C1B57933   7.094  19.812  13.584 -0.2244 -0.0998  0.4282
 3006DOPG   D2B57934   6.863  19.538  13.659  0.0934  0.0608  0.1847
 3006DOPG   C3B57935   6.608  19.479  13.191  0.2431  0.0623 -0.1506
 3006DOPG   C4B57936   6.489  19.814  12.933  0.1000  0.3645  0.3803
 3007DOPG   GL057937  16.855  22.833  14.029 -0.0300  0.1001  0.1066
 3007DOPG   PO457938  16.598  22.690  13.574 -0.0132  0.2569 -0.2650
 3007DOPG   GL157939  16.571  22.358  13.851  0.2055 -0.1618 -0.0886
 3007DOPG   GL257940  16.725  22.103  13.679  0.1465  0.0122 -0.3279
 3007DOPG   C1A57941  16.523  22.199  14.202 -0.2587 -0.2959  0.0399
 3007DOPG   D2A57942  16.268  21.897  14.390 -0.0563 -0.0027  0.0154
 3007DOPG   C3A57943  16.310  21.697  14.802  0.0526  0.2884 -0.5223
 3007DOPG   C4A57944  16.320  21.770  15.219 -0.2075  0.1492 -0.0757
 3007DOPG   C1B57945  16.751  21.628  13.705  0.1696  0.0716 -0.0474
 3007DOPG   D2B57946  16.852  21.128  13.659  0.0878 -0.1679 -0.1914
 3007DOPG   C3B57947  17.025  20.877  13.935 -0.1319  0.1256  0.1781
 3007DOPG   C4B57948  17.297  20.570  13.911  0.0615 -0.1328 -0.1443
 3008DOPG   GL057949   6.933  15.775  14.089 -0.3919  0.0313 -0.0426
 3008DOPG   PO457950   6.907  15.415  14.308 -0.2380 -0.0904 -0.0949
 3008DOPG   GL157951   7.254  15.411  14.426  0.1705 -0.2313  0.0221
 3008DOPG   GL257952   7.504  15.070  14.541  0.1459  0.0475  0.0922
 3008DOPG   C1A57953   7.547  15.653  14.722 -0.0865 -0.0026 -0.2824
 3008DOPG   D2A57954   7.942  15.952  14.577  0.0614  0.1469 -0.2690
 3008DOPG   C3A57955   8.237  15.719  14.510  0.0575  0.1006 -0.0282
 3008DOPG   C4A57956   8.297  15.330  14.366  0.0812 -0.0848 -0.2262
 3008DOPG   C1B57957   7.920  14.913  14.514  0.0540 -0.0824  0.4108
 3008DOPG   D2B57958   8.234  14.958  14.732 -0.3704  0.1161 -0.1004
 3008DOPG   C3B57959   8.667  14.973  14.666 -0.0643 -0.2043  0.0430
 3008DOPG   C4B57960   9.006  14.886  14.970 -0.1731 -0.3310 -0.3820
 3009DOPG   GL057961  23.256  14.054  14.717  0.1649  0.0879 -0.3352
 3009DOPG   PO457962  23.074  14.389  14.369  0.0807 -0.0682 -0.0123
 3009DOPG   GL157963  22.982  14.528  14.755 -0.3765  0.0030  0.1937
 3009DOPG   GL257964  23.037  14.864  14.620  0.1236 -0.4472 -0.0588
 3009DOPG   C1A57965  22.680  14.714  14.914 -0.1116  0.0295  0.0371
 3009DOPG   D2A57966  22.359  14.948  14.851 -0.1204 -0.4251 -0.3027
 3009DOPG   C3A57967  22.200  15.045  15.301 -0.0517  0.1020  0.0241
 3009DOPG   C4A57968  21.972  14.870  15.745 -0.0095 -0.2194  0.2470
 3009DOPG   C1B57969  22.843  15.164  14.880  0.1165 -0.0995  0.1638
 3009DOPG   D2B57970  22.470  15.464  14.874 -0.0412 -0.1071  0.2644
 3009DOPG   C3B57971  22.052  15.483  15.103 -0.1726 -0.2837 -0.0470
 3009DOPG   C4B57972  21.709  15.765  15.194 -0.0918 -0.2856 -0.2910
 3010DOPG   GL057973  15.028  20.610  11.179  0.0616 -0.0709  0.0434
 3010DOPG   PO457974  15.403  20.295  11.431  0.1237 -0.0484 -0.2469
 3010DOPG   GL157975  15.645  20.031  11.549 -0.0668 -0.0011 -0.1659
 3010DOPG   GL257976  15.337  19.874  11.783  0.1307  0.2220 -0.4819
 3010DOPG   C1A57977  15.889  19.773  11.698  0.0061  0.0101  0.0183
 3010DOPG   D2A57978  15.871  19.480  12.064  0.1778  0.1973 -0.2847
 3010DOPG   C3A57979  15.437  19.455  12.216 -0.4283 -0.2701  0.1887
 3010DOPG   C4A57980  15.071  19.371  12.517  0.1042  0.2620  0.0599
 3010DOPG   C1B57981  15.668  20.019  12.073  0.0824  0.1264  0.0382
 3010DOPG   D2B57982  15.935  20.000  12.341  0.2592  0.3494 -0.4589
 3010DOPG   C3B57983  16.064  19.624  12.519 -0.0570 -0.0505  0.0063
 3010DOPG   C4B57984  16.481  19.535  12.700  0.0149 -0.1632  0.1505
 3011DOPG   GL057985  17.283  23.829  15.037  0.3205  0.2612  0.0527
 3011DOPG   PO457986  17.053  23.658  15.253 -0.0405 -0.1189  0.0175
 3011DOPG   GL157987  17.058  23.424  15.590  0.2544  0.1283  0.0161
 3011DOPG   GL257988  16.669  23.451  15.605 -0.0262  0.3522  0.1200
 3011DOPG   C1A57989  17.203  23.094  15.683 -0.0813 -0.0376 -0.2601
 3011DOPG   D2A57990  17.199  22.672  16.023 -0.0181 -0.0724 -0.0064
 3011DOPG   C3A57991  17.418  22.286  15.972 -0.0731 -0.2023 -0.0404
 3011DOPG   C4A57992  17.330  21.851  15.869 -0.3401  0.1333 -0.2418
 3011DOPG   C1B57993  16.705  22.984  15.852  0.0334 -0.0742  0.2955
 3011DOPG   D2B57994  16.716  22.426  15.915  0.0227 -0.1964  0.0253
 3011DOPG   C3B57995  16.847  21.982  15.767  0.2979  0.0205  0.1912
 3011DOPG   C4B57996  16.600  21.627  15.675 -0.1134  0.2134 -0.0049
 3012DOPG   GL057997  12.285  24.670  14.390  0.0857  0.3088 -0.0054
 3012DOPG   PO457998  12.122  24.397  14.739  0.0994  0.1689 -0.0510
 3012DOPG   GL157999  11.843  23.997  14.847  0.1920 -0.2453  0.2198
 3012DOPG   GL258000  12.113  23.693  14.863  0.1677 -0.0483  0.1143
 3012DOPG   C1A58001  11.747  23.636  15.105 -0.2291  0.2420 -0.0233
 3012DOPG   D2A58002  11.869  23.322  15.354  0.1944  0.2777  0.0192
 3012DOPG   C3A58003  11.982  22.997  15.705 -0.2149  0.0287 -0.0905
 3012DOPG   C4A58004  11.886  22.728  16.058 -0.1794  0.1319 -0.0922
 3012DOPG   C1B58005  12.338  23.506  15.129 -0.0741 -0.1205  0.0448
 3012DOPG   D2B58006  12.563  23.253  14.960 -0.3534 -0.1419  0.0650
 3012DOPG   C3B58007  12.838  22.927  15.148 -0.0368  0.0854 -0.1291
 3012DOPG   C4B58008  12.890  22.478  15.219 -0.1266  0.3190  0.1339
 3013DOPG   GL058009   6.926  24.204  13.371  0.4920  0.3235  0.0597
 3013DOPG   PO458010   6.782  23.839  13.268 -0.1242  0.2172 -0.0773
 3013DOPG   GL158011   6.573  23.622  13.652 -0.3688 -0.1880 -0.0122
 3013DOPG   GL258012   6.527  23.367  13.407  0.0902  0.1174 -0.1589
 3013DOPG   C1A58013   6.727  23.210  13.965  0.3588  0.0939  0.1250
 3013DOPG   D2A58014   6.508  22.814  13.894 -0.1782 -0.1077  0.1317
 3013DOPG   C3A58015   6.398  22.635  14.244 -0.0263 -0.2980 -0.1936
 3013DOPG   C4A58016   6.209  22.370  14.530  0.0624 -0.3439  0.1138
 3013DOPG   C1B58017   6.816  23.021  13.474  0.1940  0.0396  0.0301
 3013DOPG   D2B58018   7.097  22.825  13.331  0.0394  0.1451  0.2077
 3013DOPG   C3B58019   7.288  22.316  13.268  0.2075 -0.1011 -0.0869
 3013DOPG   C4B58020   7.650  22.094  13.383 -0.2065  0.0503  0.0349
 3014DOPG   GL058021  12.510  16.343  10.554 -0.0374  0.0204 -0.1953
 3014DOPG   PO458022  12.582  16.233  10.929  0.0989 -0.2066 -0.1078
 3014DOPG   GL158023  12.860  16.177  11.286 -0.0047  0.3966 -0.0088
 3014DOPG   GL258024  12.716  15.869  11.292  0.0986  0.1114  0.0436
 3014DOPG   C1A58025  13.139  16.449  11.558 -0.2303 -0.1931 -0.1918
 3014DOPG   D2A58026  13.046  16.590  12.043  0.0442  0.0724 -0.2175
 3014DOPG   C3A58027  13.323  16.877  12.216 -0.1187 -0.2106  0.2824
 3014DOPG   C4A58028  13.653  17.119  12.266 -0.0164 -0.2117 -0.1639
 3014DOPG   C1B58029  13.083  15.695  11.534 -0.1157 -0.1412  0.0612
 3014DOPG   D2B58030  13.341  15.567  11.889 -0.2217 -0.1474  0.0666
 3014DOPG   C3B58031  13.256  15.443  12.312 -0.0029 -0.0181  0.4357
 3014DOPG   C4B58032  13.442  15.188  12.660 -0.3634 -0.3212 -0.1676
 3015DOPG   GL058033  23.489  22.466  13.906 -0.1425  0.0128  0.3251
 3015DOPG   PO458034  23.206  22.230  13.942 -0.2086 -0.1789  0.0132
 3015DOPG   GL158035  23.122  21.816  13.943  0.0991 -0.1082  0.3920
 3015DOPG   GL258036  22.771  21.839  13.894 -0.2479 -0.2044  0.2306
 3015DOPG   C1A58037  23.165  21.594  14.339  0.1434 -0.0778  0.2091
 3015DOPG   D2A58038  23.467  21.464  14.640  0.0872  0.5528 -0.3327
 3015DOPG   C3A58039  23.540  21.137  14.916  0.1703  0.1048  0.2104
 3015DOPG   C4A58040  23.783  20.820  15.056  0.0550 -0.0579 -0.1501
 3015DOPG   C1B58041  22.689  21.736  14.336  0.3431 -0.2441  0.0857
 3015DOPG   D2B58042  22.453  21.556  14.636  0.1574  0.2316 -0.0607
 3015DOPG   C3B58043  22.693  21.446  15.029  0.0213 -0.1297 -0.1651
 3015DOPG   C4B58044  22.681  21.120  15.254  0.2536  0.0766 -0.1056
 3016DOPG   GL058045   8.711   7.861  17.309  0.2568 -0.1927  0.4606
 3016DOPG   PO458046   8.489   8.309  17.168 -0.2406 -0.1388 -0.3395
 3016DOPG   GL158047   8.375   8.657  17.196 -0.0145  0.1499 -0.0901
 3016DOPG   GL258048   8.299   8.985  17.453 -0.1539  0.0089 -0.0939
 3016DOPG   C1A58049   8.294   9.110  16.956  0.0417 -0.1067 -0.4493
 3016DOPG   D2A58050   8.069   9.585  17.112 -0.1051  0.0247  0.0828
 3016DOPG   C3A58051   8.129   9.940  17.106 -0.2502  0.0208  0.1223
 3016DOPG   C4A58052   8.414  10.048  17.426  0.1535  0.0428  0.0417
 3016DOPG   C1B58053   8.718   8.823  17.492 -0.3033 -0.2573  0.0462
 3016DOPG   D2B58054   8.880   8.762  17.064  0.3382 -0.0481  0.1562
 3016DOPG   C3B58055   8.632   8.956  16.644  0.2601 -0.4269  0.0528
 3016DOPG   C4B58056   8.424   9.160  16.191  0.3124 -0.1582 -0.1510
 3017DOPG   GL058057  23.875  21.329  13.514 -0.1023 -0.1614  0.1292
 3017DOPG   PO458058  23.545  21.609  13.694 -0.0776  0.0139  0.2079
 3017DOPG   GL158059  23.493  21.162  13.830 -0.1747  0.1625 -0.3021
 3017DOPG   GL258060  23.340  21.117  14.113 -0.0204  0.1695 -0.2292
 3017DOPG   C1A58061  23.843  20.918  13.846 -0.0746 -0.0460  0.1202
 3017DOPG   D2A58062  24.121  20.688  13.507  0.0573 -0.1017  0.0700
 3017DOPG   C3A58063  24.311  20.221  13.464 -0.1285 -0.3057  0.6231
 3017DOPG   C4A58064  24.586  19.871  13.294  0.0507  0.2914  0.3198
 3017DOPG   C1B58065  23.128  20.881  14.290 -0.2280  0.2007 -0.0790
 3017DOPG   D2B58066  22.798  20.681  14.529  0.0207  0.1108 -0.1064
 3017DOPG   C3B58067  22.713  20.672  14.960 -0.0119  0.0605  0.2670
 3017DOPG   C4B58068  22.510  20.526  15.325 -0.0864  0.2456 -0.0078
 3018DOPG   GL058069  10.105   7.090  17.466  0.0677 -0.0899 -0.1875
 3018DOPG   PO458070  10.352   7.350  17.141 -0.3204  0.2485 -0.0294
 3018DOPG   GL158071  10.362   7.673  17.407  0.3146  0.2035 -0.0326
 3018DOPG   GL258072  10.507   7.670  17.663 -0.0324  0.2192  0.0186
 3018DOPG   C1A58073  10.388   8.097  17.517  0.0848 -0.1129  0.0332
 3018DOPG   D2A58074  10.769   8.462  17.430 -0.2764 -0.2340 -0.1708
 3018DOPG   C3A58075  10.579   8.715  17.765  0.2054 -0.1880  0.0168
 3018DOPG   C4A58076  10.339   8.655  18.060  0.1784  0.0726 -0.1183
 3018DOPG   C1B58077  10.926   7.661  17.466  0.1857 -0.0044 -0.1431
 3018DOPG   D2B58078  11.181   8.061  17.335  0.1966  0.2252 -0.0403
 3018DOPG   C3B58079  11.352   8.266  17.652 -0.3774 -0.2522 -0.2222
 3018DOPG   C4B58080  11.693   8.645  17.681 -0.0288  0.1685 -0.1383
 3019DOPG   GL058081  10.112   7.081  15.516 -0.0734  0.1626 -0.2991
 3019DOPG   PO458082  10.213   7.012  15.892 -0.1003  0.0060  0.1914
 3019DOPG   GL158083  10.508   7.319  16.084 -0.0193 -0.1564 -0.3137
 3019DOPG   GL258084  10.479   7.439  16.433 -0.1514  0.1644 -0.0698
 3019DOPG   C1A58085  10.669   7.739  16.111 -0.1353  0.1552 -0.1234
 3019DOPG   D2A58086  10.491   8.224  16.148 -0.0018  0.0038 -0.0382
 3019DOPG   C3A58087  10.783   8.591  16.151  0.2868 -0.1103  0.0141
 3019DOPG   C4A58088  11.048   8.942  16.144 -0.2032  0.1763  0.1895
 3019DOPG   C1B58089  10.591   7.621  16.686 -0.2037 -0.0231 -0.0321
 3019DOPG   D2B58090  10.681   7.893  17.102 -0.0364  0.1118  0.0522
 3019DOPG   C3B58091  10.954   8.310  16.996  0.2493 -0.0092 -0.2372
 3019DOPG   C4B58092  11.078   8.706  17.093  0.0717  0.0002  0.1791
 3020DOPG   GL058093  10.574  25.855  17.353  0.2134 -0.1943  0.1133
 3020DOPG   PO458094  10.367  25.543  17.328 -0.0926  0.2164  0.1306
 3020DOPG   GL158095  10.649  25.165  17.005  0.0358 -0.2251  0.1516
 3020DOPG   GL258096  10.521  25.238  16.744 -0.1808 -0.0935  0.3739
 3020DOPG   C1A58097  11.088  24.897  16.904 -0.1957  0.0261  0.0221
 3020DOPG   D2A58098  11.398  24.618  16.987  0.1256  0.1287 -0.1719
 3020DOPG   C3A58099  11.060  24.251  17.021 -0.0010 -0.0369 -0.1189
 3020DOPG   C4A58100  11.087  23.877  17.056 -0.0123  0.0094 -0.1168
 3020DOPG   C1B58101  10.708  24.829  16.524 -0.0792  0.3835 -0.1417
 3020DOPG   D2B58102  10.561  24.411  16.245  0.2040  0.4103  0.1549
 3020DOPG   C3B58103  10.270  24.150  16.375  0.1402 -0.0660 -0.4039
 3020DOPG   C4B58104  10.322  23.692  16.566 -0.0106  0.0219 -0.0307
 3021DOPG   GL058105  15.038  21.918  12.702  0.1096 -0.1466  0.2993
 3021DOPG   PO458106  14.851  21.704  12.372 -0.1454 -0.0072 -0.2108
 3021DOPG   GL158107  14.713  21.488  12.691 -0.1882 -0.0898 -0.2578
 3021DOPG   GL258108  14.352  21.503  12.939 -0.0045  0.1633  0.0243
 3021DOPG   C1A58109  14.566  21.074  12.830  0.1857  0.1058  0.0756
 3021DOPG   D2A58110  14.157  20.844  12.725  0.0147  0.0364  0.0443
 3021DOPG   C3A58111  13.670  20.819  12.851 -0.1801  0.3447  0.1046
 3021DOPG   C4A58112  13.282  20.733  13.038  0.1469 -0.0665 -0.1279
 3021DOPG   C1B58113  14.741  21.417  13.179  0.0002 -0.0378 -0.2377
 3021DOPG   D2B58114  14.717  21.461  13.614 -0.0068 -0.1728 -0.1604
 3021DOPG   C3B58115  14.539  21.266  14.022 -0.0454  0.0066  0.1138
 3021DOPG   C4B58116  14.353  21.455  14.326 -0.3302  0.2559 -0.0024
 3022DOPG   GL058117  12.458   6.519  18.066  0.0449  0.1927 -0.0651
 3022DOPG   PO458118  12.219   6.922  17.830 -0.2269 -0.1512  0.2393
 3022DOPG   GL158119  12.225   7.297  18.059  0.0018 -0.0761  0.2434
 3022DOPG   GL258120  12.583   7.422  18.025  0.2216 -0.4756  0.2395
 3022DOPG   C1A58121  11.985   7.524  18.356 -0.1790 -0.0542  0.3172
 3022DOPG   D2A58122  11.553   7.688  18.327 -0.2577 -0.0516  0.0528
 3022DOPG   C3A58123  11.272   7.921  17.999  0.2230  0.0529  0.1752
 3022DOPG   C4A58124  10.911   8.176  17.834 -0.1605  0.2908  0.1764
 3022DOPG   C1B58125  12.999   7.534  17.819  0.1156 -0.1626  0.0906
 3022DOPG   D2B58126  13.504   7.610  18.104 -0.1288 -0.0648  0.0932
 3022DOPG   C3B58127  13.615   7.601  18.490  0.0193 -0.1518  0.3768
 3022DOPG   C4B58128  13.461   7.980  18.644  0.0002 -0.3246 -0.1001
 3023DOPG   GL058129   5.982  13.333  14.306  0.1068 -0.1200  0.1982
 3023DOPG   PO458130   5.913  13.668  14.640  0.3119 -0.0562  0.0427
 3023DOPG   GL158131   6.076  13.738  15.152  0.0006 -0.1183  0.1619
 3023DOPG   GL258132   5.892  13.532  15.432 -0.0372  0.0312  0.2826
 3023DOPG   C1A58133   6.457  13.759  15.323 -0.3897 -0.2845  0.0081
 3023DOPG   D2A58134   6.853  13.574  15.085  0.0409  0.0506  0.1406
 3023DOPG   C3A58135   7.266  13.675  15.285  0.1755 -0.0989  0.1823
 3023DOPG   C4A58136   7.436  13.402  15.524  0.0312  0.2397  0.0192
 3023DOPG   C1B58137   6.188  13.341  15.592  0.0790 -0.0004 -0.1074
 3023DOPG   D2B58138   6.642  13.332  15.504  0.1664  0.1027 -0.1571
 3023DOPG   C3B58139   6.907  13.802  15.599  0.0091 -0.0056  0.0137
 3023DOPG   C4B58140   6.818  14.205  15.621 -0.5676 -0.1074 -0.0337
 3024DOPG   GL058141   8.437  21.296  13.545 -0.3263 -0.1191 -0.3153
 3024DOPG   PO458142   8.330  21.165  13.153  0.1283  0.0136  0.1346
 3024DOPG   GL158143   7.969  20.988  13.369 -0.1387 -0.0608  0.1178
 3024DOPG   GL258144   7.816  20.632  13.450  0.1833  0.0384  0.0033
 3024DOPG   C1A58145   7.464  20.893  13.267 -0.1184  0.1831  0.2377
 3024DOPG   D2A58146   7.127  20.620  13.484  0.1771 -0.3073  0.2115
 3024DOPG   C3A58147   7.104  20.592  14.041 -0.3414 -0.2249  0.1823
 3024DOPG   C4A58148   7.437  20.385  14.253  0.1595 -0.1077  0.0779
 3024DOPG   C1B58149   7.718  20.247  13.730 -0.1412 -0.0905 -0.1376
 3024DOPG   D2B58150   8.017  20.089  14.061  0.1151 -0.1264 -0.0025
 3024DOPG   C3B58151   8.068  20.387  14.365  0.0981 -0.1416  0.0183
 3024DOPG   C4B58152   7.730  20.672  14.588 -0.0050  0.0709  0.0096
 3025DOPG   GL058153   8.455  23.300  13.136 -0.3482  0.5408  0.2803
 3025DOPG   PO458154   8.128  23.171  13.425 -0.3638  0.1553 -0.1567
 3025DOPG   GL158155   8.189  22.795  13.767 -0.0081  0.1631  0.5351
 3025DOPG   GL258156   8.026  22.501  13.552  0.3527 -0.0054  0.0604
 3025DOPG   C1A58157   8.048  22.491  14.065 -0.0712 -0.1462 -0.1858
 3025DOPG   D2A58158   7.759  22.274  14.321 -0.0125  0.2107  0.1647
 3025DOPG   C3A58159   7.339  21.982  14.177 -0.1331  0.0169  0.0971
 3025DOPG   C4A58160   7.247  22.089  13.792  0.3571  0.1911 -0.2016
 3025DOPG   C1B58161   7.609  22.508  13.618  0.0443 -0.1090  0.2104
 3025DOPG   D2B58162   7.463  22.558  13.963 -0.2713 -0.1137  0.0086
 3025DOPG   C3B58163   7.194  22.771  14.228  0.1141 -0.1859 -0.1407
 3025DOPG   C4B58164   6.935  22.818  14.558  0.3158 -0.3689 -0.1160
 3026DOPG   GL058165  15.901   7.607  17.927 -0.0649 -0.5378  0.3296
 3026DOPG   PO458166  16.265   7.816  18.172 -0.1753 -0.2605 -0.0830
 3026DOPG   GL158167  15.898   8.079  18.080  0.1038  0.0221 -0.3608
 3026DOPG   GL258168  15.845   8.098  17.800  0.0391 -0.1215 -0.0844
 3026DOPG   C1A58169  15.647   8.431  18.285 -0.1379 -0.4909 -0.2694
 3026DOPG   D2A58170  15.438   8.819  18.232 -0.1471  0.0264 -0.0048
 3026DOPG   C3A58171  15.118   8.859  17.880  0.2698  0.0764 -0.2324
 3026DOPG   C4A58172  14.723   8.904  17.577  0.1050 -0.0685 -0.1256
 3026DOPG   C1B58173  15.781   8.540  17.846 -0.0044  0.1700 -0.2646
 3026DOPG   D2B58174  15.723   8.932  17.718 -0.1454  0.0724 -0.2877
 3026DOPG   C3B58175  15.475   9.294  17.867  0.1928  0.2852 -0.2725
 3026DOPG   C4B58176  15.226   9.638  17.911  0.2039  0.0522 -0.1783
 3027DOPG   GL058177  17.040  19.212  10.752 -0.3250 -0.0415 -0.4767
 3027DOPG   PO458178  17.011  18.776  11.008 -0.1966  0.2754 -0.0579
 3027DOPG   GL158179  17.146  18.840  11.435  0.1342  0.0993  0.1222
 3027DOPG   GL258180  17.282  19.037  11.601 -0.1838 -0.2954  0.1243
 3027DOPG   C1A58181  17.028  18.681  11.881 -0.1084 -0.0891  0.0558
 3027DOPG   D2A58182  16.899  18.714  12.324 -0.1513 -0.0277  0.1651
 3027DOPG   C3A58183  17.080  18.561  12.783 -0.0353  0.2254  0.1018
 3027DOPG   C4A58184  17.424  18.322  13.032  0.4193 -0.2318  0.0986
 3027DOPG   C1B58185  17.136  19.279  11.893 -0.2885 -0.1705  0.2900
 3027DOPG   D2B58186  17.071  19.232  12.272 -0.4933 -0.0395  0.2073
 3027DOPG   C3B58187  17.336  19.313  12.586  0.0710  0.1865  0.3421
 3027DOPG   C4B58188  17.712  19.113  12.741  0.0397 -0.3206  0.2991
 3028DOPG   GL058189  16.037   7.745  17.359  0.1288  0.0637  0.0389
 3028DOPG   PO458190  16.305   7.997  17.670 -0.1392 -0.0049 -0.1077
 3028DOPG   GL158191  16.125   8.326  17.425  0.0525  0.0079 -0.0024
 3028DOPG   GL258192  16.397   8.616  17.172  0.0723 -0.0137  0.3368
 3028DOPG   C1A58193  15.785   8.523  17.372  0.0798  0.0179  0.2039
 3028DOPG   D2A58194  15.652   8.911  17.272 -0.1902 -0.5249  0.2685
 3028DOPG   C3A58195  15.549   9.001  16.841 -0.1516  0.0616 -0.2395
 3028DOPG   C4A58196  15.619   9.400  16.494  0.2436 -0.1610 -0.2658
 3028DOPG   C1B58197  16.204   8.803  17.489  0.1718  0.3238  0.0849
 3028DOPG   D2B58198  16.234   9.134  17.572 -0.2864  0.0090 -0.0939
 3028DOPG   C3B58199  15.980   9.364  17.392  0.0711  0.2759 -0.0792
 3028DOPG   C4B58200  15.579   9.689  17.595  0.1384 -0.0254  0.3281
 3029DOPG   GL058201  15.930  18.169  10.716  0.1503  0.2397 -0.1512
 3029DOPG   PO458202  15.684  17.796  10.887  0.2389  0.4083  0.1185
 3029DOPG   GL158203  15.460  17.606  11.211 -0.1052  0.1521  0.2067
 3029DOPG   GL258204  15.290  17.831  11.282 -0.0009 -0.1927  0.1681
 3029DOPG   C1A58205  15.492  17.633  11.685  0.0371  0.2690 -0.1164
 3029DOPG   D2A58206  15.465  17.807  12.059  0.2920 -0.2428 -0.0781
 3029DOPG   C3A58207  15.580  17.637  12.408  0.0716  0.0987 -0.3590
 3029DOPG   C4A58208  15.491  17.265  12.666  0.2437 -0.2289  0.0619
 3029DOPG   C1B58209  15.093  17.916  11.743  0.0419  0.0261  0.1295
 3029DOPG   D2B58210  14.974  17.855  12.119  0.1637  0.1586 -0.0299
 3029DOPG   C3B58211  14.871  18.074  12.382 -0.1436 -0.0259 -0.2300
 3029DOPG   C4B58212  15.077  18.274  12.782  0.0591  0.2316 -0.0417
 3030DOPG   GL058213  15.992  23.091  13.328  0.0794  0.1830  0.0044
 3030DOPG   PO458214  15.751  22.756  13.138  0.0186  0.1248 -0.1479
 3030DOPG   GL158215  15.636  22.422  13.451  0.1690 -0.1348  0.1939
 3030DOPG   GL258216  15.743  22.069  13.392 -0.1447  0.0561  0.1561
 3030DOPG   C1A58217  15.529  22.384  13.889 -0.3771 -0.0226 -0.0449
 3030DOPG   D2A58218  15.308  22.416  14.340 -0.0847 -0.0671  0.0636
 3030DOPG   C3A58219  14.851  22.298  14.202  0.1586  0.0691 -0.2563
 3030DOPG   C4A58220  14.449  22.212  14.447 -0.3692 -0.0491  0.0420
 3030DOPG   C1B58221  15.633  21.937  13.826 -0.1750  0.2817  0.1091
 3030DOPG   D2B58222  15.765  21.957  14.243 -0.1853 -0.3200  0.1509
 3030DOPG   C3B58223  15.478  21.861  14.412 -0.1627 -0.2155  0.1188
 3030DOPG   C4B58224  15.323  21.508  14.611  0.0997  0.2294  0.1923
 3031DOPG   GL058225   8.880  22.077  13.280 -0.1643 -0.1605 -0.1670
 3031DOPG   PO458226   9.333  22.181  13.465 -0.2392 -0.0615  0.1169
 3031DOPG   GL158227   9.157  21.840  13.744 -0.2859  0.0078 -0.0765
 3031DOPG   GL258228   8.787  21.704  13.631 -0.0144 -0.1338  0.1771
 3031DOPG   C1A58229   9.074  21.551  14.058 -0.2256 -0.0538 -0.3734
 3031DOPG   D2A58230   9.284  21.151  14.179  0.1375  0.2531  0.1612
 3031DOPG   C3A58231   9.569  20.763  14.096  0.1102 -0.1148  0.1319
 3031DOPG   C4A58232   9.598  20.286  14.058  0.0266 -0.0110 -0.2759
 3031DOPG   C1B58233   8.433  21.548  13.954 -0.0506 -0.1955  0.1697
 3031DOPG   D2B58234   8.504  21.437  14.398  0.4150 -0.0618  0.0086
 3031DOPG   C3B58235   8.934  21.495  14.638  0.1490 -0.0933 -0.0209
 3031DOPG   C4B58236   9.320  21.152  14.651 -0.0573 -0.0587 -0.0674
 3032DOPG   GL058237   9.654   6.864  17.755  0.1471 -0.0013  0.0450
 3032DOPG   PO458238   9.570   7.295  17.746 -0.3608  0.0862  0.1091
 3032DOPG   GL158239   9.972   7.488  17.716  0.1168  0.0339  0.1013
 3032DOPG   GL258240  10.177   7.385  17.888 -0.0563  0.0583 -0.3466
 3032DOPG   C1A58241  10.014   7.921  17.837  0.3993 -0.0886 -0.0087
 3032DOPG   D2A58242  10.084   8.255  17.885  0.2271  0.1641 -0.1816
 3032DOPG   C3A58243  10.169   8.540  17.515 -0.0831  0.2307 -0.0524
 3032DOPG   C4A58244  10.001   8.686  17.177 -0.0300 -0.1470 -0.1508
 3032DOPG   C1B58245  10.473   7.676  18.140 -0.2599  0.0223 -0.0341
 3032DOPG   D2B58246  10.512   8.136  18.187  0.0728  0.0400  0.0218
 3032DOPG   C3B58247  10.812   8.476  18.179 -0.0132  0.1848  0.2629
 3032DOPG   C4B58248  11.014   8.928  18.102  0.2113 -0.1493 -0.0004
 3033DOPG   GL058249  22.602  17.136  13.079 -0.1918 -0.1665 -0.0355
 3033DOPG   PO458250  22.758  17.075  13.412  0.0195 -0.0988 -0.3189
 3033DOPG   GL158251  22.393  17.068  13.643 -0.0403  0.4098  0.6233
 3033DOPG   GL258252  22.227  16.978  13.416 -0.0299  0.0361  0.0969
 3033DOPG   C1A58253  22.303  17.031  14.023 -0.1262 -0.2110  0.0460
 3033DOPG   D2A58254  22.536  17.011  14.341  0.1137  0.1932  0.1349
 3033DOPG   C3A58255  22.652  16.750  14.710 -0.4652  0.1375  0.2019
 3033DOPG   C4A58256  22.962  16.583  14.968  0.0793  0.0096 -0.2424
 3033DOPG   C1B58257  21.948  17.278  13.685  0.0860  0.2833  0.1976
 3033DOPG   D2B58258  21.865  17.339  14.170 -0.2565  0.0225  0.2466
 3033DOPG   C3B58259  22.183  17.446  14.379  0.2445 -0.1754 -0.0133
 3033DOPG   C4B58260  22.550  17.736  14.348  0.1397  0.1104  0.0881
 3034DOPG   GL058261  15.293  15.863  10.508  0.1024  0.3468  0.2007
 3034DOPG   PO458262  15.002  16.145  10.828 -0.1140 -0.2632  0.2522
 3034DOPG   GL158263  14.775  16.241  11.253  0.0226  0.1635  0.1002
 3034DOPG   GL258264  15.048  16.094  11.289 -0.0301 -0.1557 -0.2198
 3034DOPG   C1A58265  14.833  16.559  11.511  0.0317  0.1265  0.1315
 3034DOPG   D2A58266  14.594  16.656  11.858 -0.0798  0.0697 -0.0150
 3034DOPG   C3A58267  14.699  17.067  12.176  0.0903 -0.0393  0.2862
 3034DOPG   C4A58268  14.681  17.433  11.919  0.3738 -0.4301  0.0735
 3034DOPG   C1B58269  15.182  16.244  11.628  0.4019 -0.0316 -0.3424
 3034DOPG   D2B58270  15.115  16.653  11.879 -0.0638 -0.1077  0.2219
 3034DOPG   C3B58271  14.883  16.535  12.228  0.4766 -0.0631  0.0085
 3034DOPG   C4B58272  14.856  16.404  12.694 -0.2333  0.0757 -0.1362
 3035DOPG   GL058273  16.921  11.019  12.516 -0.1052 -0.1238 -0.1655
 3035DOPG   PO458274  16.694  10.917  12.815  0.0888  0.1756  0.1091
 3035DOPG   GL158275  16.696  11.011  13.248  0.0505 -0.0522 -0.1310
 3035DOPG   GL258276  16.616  10.822  13.527  0.1810 -0.2630 -0.0755
 3035DOPG   C1A58277  16.364  11.265  13.558 -0.1307  0.0514 -0.5390
 3035DOPG   D2A58278  16.241  11.101  13.928  0.1792 -0.1632  0.1326
 3035DOPG   C3A58279  16.415  11.059  14.335  0.0730  0.0366 -0.0764
 3035DOPG   C4A58280  16.317  11.018  14.816  0.0114  0.2176  0.2411
 3035DOPG   C1B58281  16.571  10.636  13.968  0.3735  0.0158 -0.0396
 3035DOPG   D2B58282  16.600  10.502  14.306  0.0226  0.0572 -0.3797
 3035DOPG   C3B58283  16.422  10.579  14.622  0.4122  0.0811 -0.1382
 3035DOPG   C4B58284  16.310  10.566  15.113 -0.1226 -0.0294  0.1418
 3036DOPG   GL058285  23.273  19.345  13.489 -0.0801 -0.3912  0.2852
 3036DOPG   PO458286  23.409  19.715  13.233 -0.1352  0.0160 -0.0835
 3036DOPG   GL158287  23.490  19.909  13.644 -0.2233 -0.0983  0.1271
 3036DOPG   GL258288  23.517  19.628  13.781 -0.1141  0.0025  0.0166
 3036DOPG   C1A58289  23.410  20.140  14.002  0.0439 -0.0661 -0.0593
 3036DOPG   D2A58290  23.443  20.502  14.302  0.1667  0.0919  0.1470
 3036DOPG   C3A58291  23.378  20.543  14.707 -0.1075  0.2795 -0.1766
 3036DOPG   C4A58292  23.153  20.805  15.033 -0.1752  0.2802 -0.0139
 3036DOPG   C1B58293  23.783  19.572  14.057 -0.1279 -0.0714 -0.3159
 3036DOPG   D2B58294  23.973  19.772  14.448  0.2134  0.1754 -0.2753
 3036DOPG   C3B58295  23.833  19.610  14.838  0.1487 -0.1678 -0.0773
 3036DOPG   C4B58296  23.844  19.335  15.160  0.0099  0.0749 -0.1451
 3037DOPG   GL058297  18.918  16.624  11.136  0.1933  0.2152  0.1330
 3037DOPG   PO458298  18.718  16.201  11.172 -0.0709 -0.0963 -0.2813
 3037DOPG   GL158299  18.634  16.159  11.580  0.3381 -0.0094  0.3244
 3037DOPG   GL258300  18.710  15.790  11.526 -0.0508  0.4206  0.1458
 3037DOPG   C1A58301  18.330  16.190  11.843 -0.1775 -0.1146  0.1611
 3037DOPG   D2A58302  18.091  16.468  12.064  0.0350  0.0303  0.2941
 3037DOPG   C3A58303  18.077  16.800  11.906  0.1794 -0.1308 -0.0462
 3037DOPG   C4A58304  18.199  17.106  11.658  0.0408 -0.0872  0.1654
 3037DOPG   C1B58305  18.524  15.749  11.840 -0.2345 -0.0078 -0.0701
 3037DOPG   D2B58306  18.239  15.576  12.078 -0.1497 -0.1111  0.0344
 3037DOPG   C3B58307  18.173  15.520  12.462 -0.1001 -0.0481  0.1135
 3037DOPG   C4B58308  18.488  15.454  12.774 -0.0202 -0.0607  0.0825
 3038DOPG   GL058309  14.465  14.901  11.009  0.2133 -0.0264 -0.0493
 3038DOPG   PO458310  14.028  14.775  11.218 -0.0770  0.3013  0.0505
 3038DOPG   GL158311  13.965  14.654  11.594 -0.5261  0.2425 -0.3849
 3038DOPG   GL258312  14.265  14.651  11.854 -0.1047  0.0644  0.0734
 3038DOPG   C1A58313  13.823  14.810  12.021 -0.4684 -0.0782  0.2081
 3038DOPG   D2A58314  13.854  14.887  12.518 -0.0611  0.1175 -0.2685
 3038DOPG   C3A58315  13.875  14.551  12.865 -0.0857 -0.1912  0.0311
 3038DOPG   C4A58316  14.265  14.470  13.238 -0.0164  0.2879  0.0161
 3038DOPG   C1B58317  14.518  14.649  12.162  0.3082  0.1707 -0.0121
 3038DOPG   D2B58318  14.344  14.578  12.613  0.0847 -0.0890 -0.2304
 3038DOPG   C3B58319  14.266  14.853  12.870  0.0207  0.3011  0.0595
 3038DOPG   C4B58320  13.861  15.047  13.168  0.0040  0.1692  0.2018
 3039DOPG   GL058321  12.759   6.967  14.879 -0.0073 -0.2615 -0.0435
 3039DOPG   PO458322  13.166   7.085  14.838 -0.2809 -0.4208 -0.2298
 3039DOPG   GL158323  13.208   7.438  14.987  0.0493 -0.1977  0.0470
 3039DOPG   GL258324  13.227   7.761  14.792  0.2195 -0.0801  0.1749
 3039DOPG   C1A58325  13.317   7.759  15.361  0.1641  0.0421 -0.4299
 3039DOPG   D2A58326  12.940   8.072  15.530 -0.0527  0.1593  0.1111
 3039DOPG   C3A58327  12.971   8.396  15.797  0.2229 -0.1066 -0.2081
 3039DOPG   C4A58328  13.006   8.505  16.182 -0.1670  0.2195 -0.1927
 3039DOPG   C1B58329  12.842   7.855  15.116  0.3009  0.0672  0.1691
 3039DOPG   D2B58330  12.463   7.879  15.378 -0.3073 -0.2668  0.0110
 3039DOPG   C3B58331  12.520   7.835  15.786 -0.0070  0.2137  0.0962
 3039DOPG   C4B58332  12.643   8.187  16.135  0.2302  0.2241  0.1459
 3040DOPG   GL058333  12.790  19.510  11.134  0.1530 -0.2335  0.2381
 3040DOPG   PO458334  12.995  19.788  11.356  0.2154  0.2752  0.0058
 3040DOPG   GL158335  12.884  19.581  11.690  0.1613  0.0467 -0.0327
 3040DOPG   GL258336  12.721  19.211  11.850  0.0047  0.0132 -0.1647
 3040DOPG   C1A58337  12.695  19.724  12.089  0.1611  0.2089  0.2418
 3040DOPG   D2A58338  12.901  20.000  12.183 -0.1665 -0.1426  0.0760
 3040DOPG   C3A58339  12.669  20.216  12.538  0.1238 -0.2546 -0.2477
 3040DOPG   C4A58340  12.588  20.270  13.036  0.3227  0.3086  0.2824
 3040DOPG   C1B58341  12.475  19.290  12.197  0.2410 -0.0319  0.0640
 3040DOPG   D2B58342  12.381  19.605  12.464  0.2547 -0.0434  0.3124
 3040DOPG   C3B58343  12.043  19.482  12.723  0.2007  0.0840 -0.0703
 3040DOPG   C4B58344  12.090  19.447  13.117  0.0701 -0.2296 -0.1224
 3041DOPG   GL058345  21.072  11.901  15.632 -0.1210 -0.1276 -0.0926
 3041DOPG   PO458346  20.901  12.261  15.352  0.0930  0.0663  0.1322
 3041DOPG   GL158347  20.660  12.532  15.509 -0.2168 -0.4298  0.1488
 3041DOPG   GL258348  20.563  12.378  15.824 -0.2214 -0.1663 -0.4298
 3041DOPG   C1A58349  20.443  12.836  15.716  0.0324  0.2375  0.0922
 3041DOPG   D2A58350  20.159  12.912  16.077  0.0812 -0.0773  0.0258
 3041DOPG   C3A58351  19.722  13.024  15.932  0.0282 -0.0222 -0.1527
 3041DOPG   C4A58352  19.431  13.375  15.697  0.1236  0.1822 -0.0243
 3041DOPG   C1B58353  20.339  12.359  16.177 -0.0205  0.0517  0.1618
 3041DOPG   D2B58354  20.024  12.463  16.264  0.1446  0.0049 -0.3550
 3041DOPG   C3B58355  19.721  12.591  16.115 -0.3319  0.2503  0.0949
 3041DOPG   C4B58356  19.317  12.654  16.192 -0.2031 -0.1223  0.1448
 3042DOPG   GL058357  11.968  17.559  10.629 -0.0683  0.1382  0.1663
 3042DOPG   PO458358  11.932  17.514  11.097  0.1019  0.1767  0.1636
 3042DOPG   GL158359  11.723  17.178  11.322 -0.0432  0.1069 -0.2318
 3042DOPG   GL258360  11.395  17.082  11.327  0.1236  0.0446  0.0565
 3042DOPG   C1A58361  11.635  17.092  11.810  0.1627 -0.0071 -0.0043
 3042DOPG   D2A58362  11.303  17.058  12.111 -0.1544 -0.1656 -0.0109
 3042DOPG   C3A58363  11.278  16.948  12.508  0.0303  0.2103 -0.1199
 3042DOPG   C4A58364  11.465  16.870  12.960 -0.1503 -0.3148 -0.0372
 3042DOPG   C1B58365  11.260  16.782  11.724 -0.4114  0.2838  0.0819
 3042DOPG   D2B58366  11.051  16.583  12.073  0.0676  0.2360  0.1561
 3042DOPG   C3B58367  10.893  16.672  12.616 -0.2823 -0.0449 -0.1986
 3042DOPG   C4B58368  11.017  16.711  13.016  0.4153  0.0009 -0.0159
 3043DOPG   GL058369   8.182  23.673  12.913 -0.3115 -0.0025  0.0272
 3043DOPG   PO458370   8.295  23.865  12.562  0.1752  0.2324  0.0150
 3043DOPG   GL158371   8.430  24.079  12.145  0.4148 -0.0264  0.0853
 3043DOPG   GL258372   8.678  23.869  12.119  0.2359 -0.3848 -0.0420
 3043DOPG   C1A58373   8.165  24.191  11.857 -0.4452 -0.1412  0.1411
 3043DOPG   D2A58374   8.261  24.355  11.432 -0.4369 -0.0539 -0.0787
 3043DOPG   C3A58375   8.780  24.316  11.308 -0.0082 -0.0980 -0.1370
 3043DOPG   C4A58376   9.127  24.328  11.117  0.0636  0.1099 -0.0574
 3043DOPG   C1B58377   8.505  23.479  11.992 -0.1380  0.2258 -0.1953
 3043DOPG   D2B58378   8.230  23.305  11.687  0.2621 -0.1763  0.0102
 3043DOPG   C3B58379   7.866  23.351  11.423 -0.2895  0.0513 -0.0940
 3043DOPG   C4B58380   7.444  23.283  11.225 -0.3138 -0.4015 -0.1515
 3044DOPG   GL058381  21.760  15.316  12.170 -0.0502 -0.2192 -0.0761
 3044DOPG   PO458382  21.556  15.310  12.574 -0.6138  0.3291 -0.2831
 3044DOPG   GL158383  21.130  15.368  12.735  0.1576 -0.1080 -0.1947
 3044DOPG   GL258384  20.827  15.155  12.716 -0.0290  0.4453  0.0644
 3044DOPG   C1A58385  21.071  15.435  13.211  0.0899 -0.1738 -0.0320
 3044DOPG   D2A58386  21.099  15.512  13.638  0.2854 -0.0677  0.0805
 3044DOPG   C3A58387  21.481  15.312  13.897  0.0841 -0.0338 -0.1690
 3044DOPG   C4A58388  21.649  15.049  14.218  0.0414  0.2342  0.0539
 3044DOPG   C1B58389  20.615  15.321  13.039 -0.0823  0.2542  0.1985
 3044DOPG   D2B58390  20.494  15.355  13.487 -0.3927  0.3828 -0.1209
 3044DOPG   C3B58391  20.601  15.513  13.701 -0.2481  0.0494 -0.1344
 3044DOPG   C4B58392  20.807  15.847  13.868  0.2148 -0.1075  0.1285
 3045DOPG   GL058393  16.226  17.729  10.840 -0.1047 -0.0665 -0.1060
 3045DOPG   PO458394  16.434  18.155  10.729 -0.1972  0.0818 -0.3863
 3045DOPG   GL158395  16.234  18.094  11.150 -0.0460 -0.0362 -0.1370
 3045DOPG   GL258396  16.474  17.954  11.324 -0.0929 -0.2420  0.2836
 3045DOPG   C1A58397  15.975  18.035  11.500 -0.1221 -0.1168 -0.1281
 3045DOPG   D2A58398  15.632  18.182  11.773 -0.0229  0.2446  0.1086
 3045DOPG   C3A58399  15.236  18.401  11.616  0.3376  0.1545  0.2116
 3045DOPG   C4A58400  14.951  18.402  11.874  0.3042  0.0556  0.0658
 3045DOPG   C1B58401  16.649  17.958  11.677 -0.3891 -0.0979 -0.0446
 3045DOPG   D2B58402  16.598  17.851  12.127  0.2319  0.0481  0.5497
 3045DOPG   C3B58403  16.922  17.715  12.385  0.1457  0.0743 -0.3051
 3045DOPG   C4B58404  16.926  17.632  12.875 -0.3693  0.1988  0.1139
 3046DOPG   GL058405  21.552  20.733  12.390 -0.3367  0.0889  0.2661
 3046DOPG   PO458406  21.569  20.384  12.616 -0.2845  0.2282 -0.1486
 3046DOPG   GL158407  21.646  20.090  12.960  0.0877  0.0265  0.0579
 3046DOPG   GL258408  21.481  19.870  13.006 -0.0313 -0.0550 -0.0253
 3046DOPG   C1A58409  21.809  20.163  13.321 -0.2051  0.2895 -0.0441
 3046DOPG   D2A58410  22.185  20.308  13.621  0.3788 -0.0012 -0.1370
 3046DOPG   C3A58411  21.984  20.227  13.906 -0.1641  0.5206 -0.1679
 3046DOPG   C4A58412  21.901  20.327  14.312 -0.0235 -0.2810 -0.1349
 3046DOPG   C1B58413  21.039  19.867  13.112  0.0167  0.2845  0.4052
 3046DOPG   D2B58414  20.594  19.910  13.103 -0.1468 -0.2735  0.4498
 3046DOPG   C3B58415  20.436  19.342  13.007  0.1146 -0.0391 -0.3282
 3046DOPG   C4B58416  20.356  18.952  12.998  0.0248  0.1520 -0.0285
 3047DOPG   GL058417   6.733  12.877  14.390  0.0894 -0.0244 -0.2230
 3047DOPG   PO458418   6.866  12.990  13.931 -0.4382 -0.0737 -0.1278
 3047DOPG   GL158419   7.210  12.812  14.177 -0.0599 -0.1051 -0.2203
 3047DOPG   GL258420   7.536  12.850  13.862 -0.1202  0.0668  0.0217
 3047DOPG   C1A58421   7.297  12.998  14.566  0.4553 -0.0536 -0.2103
 3047DOPG   D2A58422   7.709  13.280  14.833 -0.3655  0.0161 -0.0761
 3047DOPG   C3A58423   7.731  13.689  14.996 -0.0735  0.3262 -0.4282
 3047DOPG   C4A58424   7.563  14.091  15.148  0.2757 -0.0580 -0.0776
 3047DOPG   C1B58425   8.008  12.772  13.931 -0.1441 -0.0176 -0.1299
 3047DOPG   D2B58426   8.311  12.745  14.127 -0.0110 -0.2151  0.0165
 3047DOPG   C3B58427   8.741  12.954  14.273 -0.1968  0.0124 -0.2079
 3047DOPG   C4B58428   9.114  13.085  14.392 -0.0430  0.0501  0.1991
 3048DOPG   GL058429   6.204  10.754  16.626 -0.0718  0.1800  0.1127
 3048DOPG   PO458430   6.538  10.516  16.209  0.0508 -0.0992 -0.2237
 3048DOPG   GL158431   6.843  10.894  16.129 -0.3088  0.3790 -0.2184
 3048DOPG   GL258432   6.899  10.894  15.734 -0.2939  0.0317  0.0639
 3048DOPG   C1A58433   7.043  11.175  16.354  0.0540 -0.1781  0.0762
 3048DOPG   D2A58434   7.294  11.449  16.389  0.2396  0.0035 -0.0122
 3048DOPG   C3A58435   7.166  11.782  16.078  0.2489  0.2556 -0.0369
 3048DOPG   C4A58436   7.338  11.987  15.791  0.1427 -0.3180  0.2014
 3048DOPG   C1B58437   7.084  11.248  15.881 -0.0356 -0.0559 -0.2302
 3048DOPG   D2B58438   7.381  11.507  15.783 -0.0127  0.1292 -0.0163
 3048DOPG   C3B58439   7.869  11.626  15.757  0.2430 -0.0175 -0.2357
 3048DOPG   C4B58440   8.007  11.844  15.476  0.2726  0.2659  0.1922
 3049DOPG   GL058441  14.106  15.224  10.771  0.2306  0.0555 -0.1119
 3049DOPG   PO458442  14.105  15.714  10.861 -0.0288  0.1093  0.1850
 3049DOPG   GL158443  14.338  15.756  11.284  0.2413 -0.3467 -0.0814
 3049DOPG   GL258444  14.298  16.015  11.400  0.1644 -0.1874 -0.0894
 3049DOPG   C1A58445  14.525  15.575  11.665 -0.2306 -0.0485  0.0748
 3049DOPG   D2A58446  14.208  15.224  11.838 -0.4374  0.2727 -0.0244
 3049DOPG   C3A58447  14.238  15.151  12.256 -0.0918  0.1787 -0.1794
 3049DOPG   C4A58448  13.972  15.306  12.632 -0.2880  0.0460 -0.0768
 3049DOPG   C1B58449  14.499  16.137  11.694  0.1054 -0.0019 -0.2933
 3049DOPG   D2B58450  14.614  16.119  12.185  0.0312  0.2878  0.3174
 3049DOPG   C3B58451  14.996  16.047  12.252  0.0591  0.1513 -0.1754
 3049DOPG   C4B58452  15.452  15.958  12.110  0.0821 -0.0090  0.1636
 3050DOPG   GL058453  15.457  19.261  10.981  0.2054 -0.0270  0.0197
 3050DOPG   PO458454  15.888  19.376  11.027  0.2902  0.0926  0.2130
 3050DOPG   GL158455  15.769  19.299  11.502 -0.1129  0.3472 -0.0209
 3050DOPG   GL258456  16.039  19.284  11.655  0.3770 -0.0160 -0.2466
 3050DOPG   C1A58457  15.562  19.143  11.840 -0.0203 -0.1101 -0.4203
 3050DOPG   D2A58458  15.605  18.803  12.017  0.0703 -0.0677 -0.1157
 3050DOPG   C3A58459  15.327  18.314  12.146 -0.1990  0.0612  0.0458
 3050DOPG   C4A58460  15.364  18.045  12.522  0.1859  0.2635 -0.2528
 3050DOPG   C1B58461  16.082  19.037  12.021  0.0615 -0.0393 -0.5771
 3050DOPG   D2B58462  16.150  19.142  12.396  0.1352  0.1183  0.0439
 3050DOPG   C3B58463  15.703  19.124  12.561  0.3089 -0.0111 -0.2700
 3050DOPG   C4B58464  15.333  19.149  12.853  0.0219  0.3822 -0.0379
 3051DOPG   GL058465  21.488  13.324  14.497 -0.0823  0.0016  0.0977
 3051DOPG   PO458466  21.110  13.483  14.481  0.0700  0.0384 -0.0692
 3051DOPG   GL158467  20.845  13.417  14.817  0.1563 -0.3668  0.0912
 3051DOPG   GL258468  20.557  13.239  14.722  0.2607  0.1206  0.2445
 3051DOPG   C1A58469  20.777  13.628  15.186 -0.0852  0.0657  0.1793
 3051DOPG   D2A58470  20.743  13.700  15.567 -0.1320  0.2581  0.2036
 3051DOPG   C3A58471  20.638  14.170  15.734 -0.1639 -0.3552 -0.0394
 3051DOPG   C4A58472  20.469  14.610  15.902  0.0680  0.2034  0.2444
 3051DOPG   C1B58473  20.399  13.626  14.829 -0.1487 -0.2312  0.2893
 3051DOPG   D2B58474  20.486  13.991  14.858 -0.0613  0.1810 -0.0302
 3051DOPG   C3B58475  20.311  14.363  14.621  0.0215  0.1648 -0.2055
 3051DOPG   C4B58476  20.395  14.731  14.512 -0.0777 -0.0075  0.3281
 3052DOPG   GL058477  10.229   9.115  12.806  0.2392  0.0357  0.3047
 3052DOPG   PO458478  10.552   9.328  12.936  0.1176 -0.0739 -0.1348
 3052DOPG   GL158479  10.588   9.616  13.320  0.2221 -0.2008 -0.3563
 3052DOPG   GL258480  10.809   9.777  13.563 -0.1513  0.0128 -0.0982
 3052DOPG   C1A58481  10.355   9.747  13.709  0.0501 -0.0766  0.1505
 3052DOPG   D2A58482  10.214  10.032  14.003  0.0648  0.1781  0.0750
 3052DOPG   C3A58483   9.891   9.950  14.211 -0.1676  0.0394  0.0537
 3052DOPG   C4A58484   9.494   9.859  14.309  0.0632 -0.4779 -0.0092
 3052DOPG   C1B58485  11.174  10.049  13.758 -0.0616  0.1651  0.0347
 3052DOPG   D2B58486  11.124  10.430  13.980 -0.1173  0.3293  0.0095
 3052DOPG   C3B58487  10.762  10.463  14.250 -0.3855  0.0532  0.1348
 3052DOPG   C4B58488  10.427  10.240  14.413  0.1828  0.0465 -0.0603
 3053DOPG   GL058489   8.358   9.287  13.761  0.4372 -0.0322 -0.0533
 3053DOPG   PO458490   8.219   9.541  14.074 -0.0139  0.0425  0.0205
 3053DOPG   GL158491   8.409   9.545  14.546  0.1994  0.1272  0.0995
 3053DOPG   GL258492   8.242   9.529  14.916 -0.2786 -0.5598  0.0094
 3053DOPG   C1A58493   8.791   9.369  14.771 -0.2261  0.1121  0.4187
 3053DOPG   D2A58494   8.790   9.632  15.149  0.0543 -0.1261  0.3524
 3053DOPG   C3A58495   8.478   9.941  15.187  0.2376  0.3665 -0.0831
 3053DOPG   C4A58496   8.180  10.254  15.368  0.0349  0.3138 -0.2618
 3053DOPG   C1B58497   7.972   9.961  14.927  0.1000  0.0290  0.0395
 3053DOPG   D2B58498   7.678  10.259  15.136  0.0990  0.2842  0.0965
 3053DOPG   C3B58499   7.745  10.686  14.879  0.0178 -0.1959 -0.0781
 3053DOPG   C4B58500   8.047  10.966  14.710 -0.1000  0.2047 -0.3081
 3054DOPG   GL058501   8.385  20.274  13.625 -0.1138 -0.1750 -0.0803
 3054DOPG   PO458502   8.298  20.582  13.281 -0.0981  0.1388 -0.0976
 3054DOPG   GL158503   8.369  20.769  13.661 -0.0526  0.0271  0.1083
 3054DOPG   GL258504   8.095  20.548  13.918 -0.0968 -0.1667 -0.0555
 3054DOPG   C1A58505   8.229  21.022  13.974 -0.1401 -0.0187  0.1278
 3054DOPG   D2A58506   8.022  21.370  14.272 -0.1239 -0.4122 -0.0837
 3054DOPG   C3A58507   7.713  21.672  14.100  0.1865  0.1260  0.2336
 3054DOPG   C4A58508   7.763  22.020  13.850  0.3406 -0.0827 -0.1839
 3054DOPG   C1B58509   7.755  20.856  14.059 -0.2562 -0.2093 -0.0600
 3054DOPG   D2B58510   7.486  21.123  14.239  0.1810 -0.2301  0.0011
 3054DOPG   C3B58511   7.562  21.500  14.580  0.0205 -0.1547  0.3365
 3054DOPG   C4B58512   7.638  21.944  14.652  0.3373  0.2364  0.1289
 3055DOPG   GL058513  17.764  13.348  11.682 -0.1174 -0.0139  0.1168
 3055DOPG   PO458514  17.919  13.497  11.976 -0.0098 -0.2622  0.0621
 3055DOPG   GL158515  18.137  13.620  12.306 -0.0603  0.0983  0.1572
 3055DOPG   GL258516  18.312  13.370  12.441  0.0789  0.2493  0.0256
 3055DOPG   C1A58517  18.229  14.009  12.654 -0.0157 -0.1343 -0.2399
 3055DOPG   D2A58518  18.008  14.296  12.787 -0.0120 -0.3013  0.3773
 3055DOPG   C3A58519  17.744  14.295  13.099  0.1421  0.0435 -0.0601
 3055DOPG   C4A58520  17.514  14.151  13.320  0.1662 -0.2417 -0.2444
 3055DOPG   C1B58521  18.242  13.580  12.890 -0.0456  0.0706  0.3564
 3055DOPG   D2B58522  17.965  13.815  13.013 -0.0726  0.0743 -0.1821
 3055DOPG   C3B58523  17.801  13.581  13.258  0.4448 -0.2529 -0.0632
 3055DOPG   C4B58524  17.416  13.611  13.481  0.5053 -0.0061  0.0012
 3056DOPG   GL058525   9.225   9.878  13.163 -0.1222  0.1100 -0.1079
 3056DOPG   PO458526   9.177  10.137  13.359  0.2130 -0.0595 -0.1491
 3056DOPG   GL158527   9.162  10.464  13.692  0.2391  0.0431  0.2165
 3056DOPG   GL258528   9.022  10.782  13.636 -0.3169 -0.1543  0.1553
 3056DOPG   C1A58529   9.150  10.711  14.139  0.0305 -0.2212  0.1044
 3056DOPG   D2A58530   9.158  10.793  14.578  0.0490  0.0114  0.5840
 3056DOPG   C3A58531   8.978  10.614  14.903 -0.1433 -0.1428  0.5712
 3056DOPG   C4A58532   8.601  10.552  15.259 -0.0766  0.0065  0.1164
 3056DOPG   C1B58533   8.719  10.932  13.949  0.0473 -0.0627  0.0133
 3056DOPG   D2B58534   8.882  11.122  14.274 -0.2525 -0.1197  0.0888
 3056DOPG   C3B58535   9.353  11.173  14.183  0.0022 -0.2071  0.3019
 3056DOPG   C4B58536   9.434  11.593  14.084 -0.1898  0.0736 -0.0260
 3057DOPG   GL058537  11.634  18.402  11.178  0.1392 -0.3245  0.1111
 3057DOPG   PO458538  11.439  18.016  11.206  0.1439 -0.1638  0.0887
 3057DOPG   GL158539  11.767  18.061  11.596  0.1102 -0.1642 -0.0064
 3057DOPG   GL258540  12.104  17.860  11.514 -0.1520  0.1092  0.1581
 3057DOPG   C1A58541  11.902  17.623  11.879 -0.0307  0.2978 -0.0127
 3057DOPG   D2A58542  12.190  17.536  12.152 -0.1853 -0.1095 -0.0475
 3057DOPG   C3A58543  12.168  17.246  12.339  0.0314 -0.2719 -0.1443
 3057DOPG   C4A58544  12.372  17.030  12.730  0.0064 -0.2245  0.2567
 3057DOPG   C1B58545  12.128  18.072  11.985  0.0451 -0.1880  0.1524
 3057DOPG   D2B58546  11.776  17.828  12.267  0.0630 -0.3138  0.0063
 3057DOPG   C3B58547  11.449  18.127  12.491 -0.0655 -0.0278 -0.2515
 3057DOPG   C4B58548  11.412  18.148  12.899 -0.0049  0.0513 -0.1583
 3058DOPG   GL058549   9.749  12.902  13.014 -0.0242  0.1889 -0.3170
 3058DOPG   PO458550   9.589  13.000  12.652 -0.2029  0.1246 -0.0030
 3058DOPG   GL158551   9.677  13.378  12.809 -0.2073  0.0557  0.0019
 3058DOPG   GL258552   9.597  13.557  13.026 -0.1196  0.0959 -0.1083
 3058DOPG   C1A58553  10.062  13.500  12.926 -0.5729  0.1801  0.0289
 3058DOPG   D2A58554  10.271  13.744  13.248  0.1108  0.0649 -0.4070
 3058DOPG   C3A58555  10.438  13.844  13.630  0.0120 -0.0983 -0.0665
 3058DOPG   C4A58556  10.566  13.600  14.002 -0.0744  0.1508 -0.0788
 3058DOPG   C1B58557   9.849  13.276  13.346 -0.2533  0.2994  0.0821
 3058DOPG   D2B58558  10.304  13.231  13.686  0.3012 -0.0256 -0.3567
 3058DOPG   C3B58559  10.453  13.075  14.110  0.0674  0.0955  0.0542
 3058DOPG   C4B58560  10.663  13.027  14.486 -0.0590  0.5450  0.0070
 3059DOPG   GL058561  20.224   9.872  17.916 -0.0482 -0.1277 -0.0233
 3059DOPG   PO458562  19.988   9.509  17.955  0.0342 -0.1469  0.1934
 3059DOPG   GL158563  20.074   9.091  17.741 -0.0809 -0.2176  0.1972
 3059DOPG   GL258564  20.171   8.918  18.059 -0.1146 -0.2362  0.1111
 3059DOPG   C1A58565  20.192   8.800  17.559  0.0682 -0.0016 -0.0842
 3059DOPG   D2A58566  20.445   8.494  17.495 -0.1686  0.0978  0.2018
 3059DOPG   C3A58567  20.340   8.036  17.287  0.1336  0.0075 -0.0621
 3059DOPG   C4A58568  20.483   7.622  17.284  0.0161  0.1105  0.0428
 3059DOPG   C1B58569  20.442   8.585  18.019  0.1931 -0.0547  0.3928
 3059DOPG   D2B58570  20.658   8.164  17.875 -0.1329  0.1044  0.0393
 3059DOPG   C3B58571  20.816   8.053  17.499  0.0737  0.2720  0.2428
 3059DOPG   C4B58572  21.268   7.899  17.448 -0.0063 -0.1178 -0.1331
 3060DOPG   GL058573   9.829  15.375  11.669  0.0773  0.1251  0.0029
 3060DOPG   PO458574   9.872  15.685  12.046 -0.3814  0.0174  0.0961
 3060DOPG   GL158575   9.945  15.614  12.465 -0.1263  0.2926  0.1204
 3060DOPG   GL258576  10.177  15.327  12.537  0.1489  0.1049  0.0799
 3060DOPG   C1A58577  10.277  15.739  12.749 -0.2984 -0.0419  0.1056
 3060DOPG   D2A58578  10.573  15.735  12.983  0.0111 -0.1217 -0.1582
 3060DOPG   C3A58579  10.745  15.896  13.424  0.0425  0.1833 -0.0259
 3060DOPG   C4A58580  10.696  15.946  13.960  0.0827  0.1059 -0.1568
 3060DOPG   C1B58581  10.507  15.281  12.803  0.2707 -0.2246  0.1724
 3060DOPG   D2B58582  10.754  15.009  12.950 -0.5279  0.1706  0.0020
 3060DOPG   C3B58583  11.028  15.027  13.220  0.1220  0.2884  0.2785
 3060DOPG   C4B58584  11.363  15.162  13.481  0.1745  0.2405 -0.3216
 3061DOPG   GL058585  12.755  23.030  13.510  0.1276 -0.2498  0.2307
 3061DOPG   PO458586  13.194  23.130  13.337 -0.1788  0.0338 -0.0691
 3061DOPG   GL158587  13.306  22.747  13.563  0.3095 -0.3201  0.0950
 3061DOPG   GL258588  13.287  22.612  13.335 -0.1091  0.1602 -0.2799
 3061DOPG   C1A58589  13.143  22.600  13.892 -0.1140  0.0166  0.0876
 3061DOPG   D2A58590  12.867  22.248  13.941 -0.1457  0.1472 -0.0630
 3061DOPG   C3A58591  12.972  21.901  14.142  0.0365  0.2399 -0.0934
 3061DOPG   C4A58592  13.261  21.630  14.270 -0.2038 -0.0214  0.1874
 3061DOPG   C1B58593  13.301  22.220  13.527 -0.2759 -0.1753 -0.0288
 3061DOPG   D2B58594  13.061  21.909  13.633 -0.0558  0.1194 -0.0258
 3061DOPG   C3B58595  13.186  21.359  13.782  0.0898  0.0048  0.0766
 3061DOPG   C4B58596  13.442  21.064  14.055  0.0500 -0.1707 -0.3292
 3062DOPG   GL058597  18.010  13.007  11.927  0.0151 -0.4712  0.0755
 3062DOPG   PO458598  17.929  13.121  12.282  0.0019  0.1338  0.2917
 3062DOPG   GL158599  17.953  12.970  12.645  0.0354  0.0707 -0.3519
 3062DOPG   GL258600  18.233  12.885  12.728 -0.1459  0.2945 -0.3564
 3062DOPG   C1A58601  17.814  12.932  13.027 -0.0943  0.1700  0.0453
 3062DOPG   D2A58602  17.682  13.148  13.389 -0.0246  0.1353  0.2168
 3062DOPG   C3A58603  17.147  13.138  13.346  0.2545  0.0486  0.0770
 3062DOPG   C4A58604  16.830  13.099  13.086 -0.0105 -0.0082 -0.0788
 3062DOPG   C1B58605  18.318  13.078  13.048  0.1128 -0.0940  0.0749
 3062DOPG   D2B58606  18.224  13.266  13.371  0.2704  0.1758 -0.0811
 3062DOPG   C3B58607  18.104  12.903  13.702  0.4287 -0.0273  0.2182
 3062DOPG   C4B58608  17.819  12.684  13.961  0.1762  0.0829 -0.0623
 3063DOPG   GL058609  18.264  21.377  12.812 -0.1554 -0.0880 -0.3091
 3063DOPG   PO458610  18.546  21.644  12.737 -0.0616 -0.0193  0.1513
 3063DOPG   GL158611  18.557  21.456  13.205  0.0483  0.2034 -0.0465
 3063DOPG   GL258612  18.518  21.738  13.408 -0.3091  0.1530 -0.0378
 3063DOPG   C1A58613  18.655  21.248  13.777 -0.1056 -0.1010 -0.1412
 3063DOPG   D2A58614  18.430  21.420  14.190 -0.0013 -0.0871 -0.1754
 3063DOPG   C3A58615  18.013  21.701  14.167  0.2865  0.0848 -0.0490
 3063DOPG   C4A58616  17.610  21.559  14.250  0.0326 -0.1098  0.2381
 3063DOPG   C1B58617  18.168  21.704  13.663 -0.0641 -0.1118 -0.1831
 3063DOPG   D2B58618  17.766  21.449  13.658 -0.2579 -0.1420 -0.1369
 3063DOPG   C3B58619  17.727  21.055  13.716 -0.0299  0.2731 -0.0924
 3063DOPG   C4B58620  17.790  20.625  13.861  0.0953  0.1381  0.2400
 3064DOPG   GL058621  15.762   7.280  17.531 -0.0928  0.0243 -0.0983
 3064DOPG   PO458622  15.750   7.329  17.143  0.3236 -0.1585 -0.2151
 3064DOPG   GL158623  15.578   7.664  17.228 -0.0337 -0.1075  0.0310
 3064DOPG   GL258624  15.426   7.693  17.586 -0.0130  0.0183  0.0160
 3064DOPG   C1A58625  15.573   8.064  17.302 -0.1101 -0.1351 -0.2402
 3064DOPG   D2A58626  15.494   8.402  17.042 -0.1003  0.0496  0.5353
 3064DOPG   C3A58627  15.917   8.580  16.843  0.2014 -0.0705 -0.0213
 3064DOPG   C4A58628  16.222   8.586  16.610 -0.0677 -0.0624 -0.1558
 3064DOPG   C1B58629  14.951   7.801  17.783  0.1073  0.1393 -0.1457
 3064DOPG   D2B58630  14.756   7.956  18.063 -0.1738 -0.5064  0.0601
 3064DOPG   C3B58631  14.305   7.783  17.949  0.0483 -0.2686  0.1911
 3064DOPG   C4B58632  13.911   7.884  18.171 -0.1645  0.0032  0.1056
 3065DOPG   GL058633  18.183  15.913  11.231  0.1665  0.2296 -0.2440
 3065DOPG   PO458634  18.529  15.696  11.017 -0.2774 -0.2282 -0.1951
 3065DOPG   GL158635  18.326  15.465  11.374 -0.0385  0.1223 -0.0713
 3065DOPG   GL258636  17.915  15.511  11.340  0.3548 -0.4805  0.1250
 3065DOPG   C1A58637  18.100  15.158  11.669 -0.2109 -0.1586  0.1829
 3065DOPG   D2A58638  17.718  14.990  11.911 -0.0459  0.0648 -0.1431
 3065DOPG   C3A58639  17.679  15.030  12.342 -0.1989 -0.2887  0.0116
 3065DOPG   C4A58640  17.509  15.248  12.714  0.0240  0.1160  0.2096
 3065DOPG   C1B58641  17.889  15.660  11.750  0.0738  0.1466 -0.2560
 3065DOPG   D2B58642  17.761  15.505  12.175  0.4443 -0.1101  0.0653
 3065DOPG   C3B58643  17.718  15.714  12.627 -0.0946  0.2660 -0.3374
 3065DOPG   C4B58644  18.045  15.817  12.860 -0.0303 -0.0342 -0.0015
 3066DOPG   GL058645  19.010  21.189  11.878  0.2714 -0.1033  0.1794
 3066DOPG   PO458646  18.837  21.034  12.225  0.1672  0.4650  0.1813
 3066DOPG   GL158647  18.657  20.728  12.484 -0.2331  0.0552 -0.0837
 3066DOPG   GL258648  18.332  20.751  12.477  0.1594  0.2709 -0.2408
 3066DOPG   C1A58649  18.666  20.400  12.788  0.1779  0.0529 -0.1317
 3066DOPG   D2A58650  18.987  20.465  13.107 -0.0903 -0.2047  0.1062
 3066DOPG   C3A58651  19.327  20.749  13.233 -0.2108 -0.0007 -0.0655
 3066DOPG   C4A58652  19.576  21.046  13.508 -0.0480 -0.2275  0.1975
 3066DOPG   C1B58653  18.319  20.714  12.938  0.0261 -0.0920 -0.1642
 3066DOPG   D2B58654  18.320  20.353  13.150 -0.0104 -0.0707 -0.2480
 3066DOPG   C3B58655  18.185  19.942  13.031  0.0413  0.0244 -0.0185
 3066DOPG   C4B58656  17.965  19.649  13.017  0.0647 -0.0679  0.0505
 3067DOPG   GL058657  10.393  23.759  13.186 -0.1944  0.4775  0.2793
 3067DOPG   PO458658  10.865  23.716  13.241 -0.0262 -0.2509  0.0435
 3067DOPG   GL158659  10.685  23.477  13.611  0.4399 -0.1613 -0.1745
 3067DOPG   GL258660  10.387  23.686  13.777  0.1490 -0.2275 -0.0969
 3067DOPG   C1A58661  10.615  23.256  13.965  0.1239 -0.3032  0.1185
 3067DOPG   D2A58662  10.523  22.778  14.245 -0.0878  0.0372 -0.0423
 3067DOPG   C3A58663  10.787  22.770  14.679  0.0523  0.1352 -0.3811
 3067DOPG   C4A58664  11.012  22.302  14.880 -0.0641 -0.0414  0.1418
 3067DOPG   C1B58665  10.147  23.409  14.054 -0.0989  0.1085  0.1285
 3067DOPG   D2B58666  10.174  22.927  13.937 -0.4219  0.0425  0.0186
 3067DOPG   C3B58667   9.882  22.568  14.038  0.3246 -0.1282 -0.0049
 3067DOPG   C4B58668   9.925  22.282  14.317  0.4545 -0.1673  0.0382
 3068DOPG   GL058669   6.875  12.179  13.374 -0.0954  0.0791  0.2148
 3068DOPG   PO458670   7.152  12.419  13.643 -0.0073  0.1561  0.0293
 3068DOPG   GL158671   7.464  12.255  13.832  0.0028 -0.0394 -0.1240
 3068DOPG   GL258672   7.815  12.314  13.717  0.3290  0.2135 -0.3544
 3068DOPG   C1A58673   7.504  12.047  14.226  0.1543  0.0377  0.1287
 3068DOPG   D2A58674   7.537  11.843  14.479  0.5817  0.1673 -0.0390
 3068DOPG   C3A58675   7.732  11.819  14.976  0.1579  0.0364  0.2839
 3068DOPG   C4A58676   7.542  11.718  15.319  0.2873 -0.1142 -0.1192
 3068DOPG   C1B58677   7.966  12.166  14.127  0.2711 -0.0528  0.0600
 3068DOPG   D2B58678   8.280  12.275  14.272 -0.2200 -0.0682  0.2585
 3068DOPG   C3B58679   8.338  12.465  14.629  0.3832  0.2901  0.0213
 3068DOPG   C4B58680   8.128  12.602  14.923  0.0496  0.3172  0.1979
 3069DOPG   GL058681   7.152  17.078  13.857 -0.2721 -0.0231  0.0079
 3069DOPG   PO458682   7.396  16.956  14.320 -0.1578  0.0959 -0.2315
 3069DOPG   GL158683   7.764  16.949  14.572 -0.4567  0.1086 -0.3236
 3069DOPG   GL258684   7.604  16.786  14.824  0.0711  0.1081  0.0227
 3069DOPG   C1A58685   8.214  16.879  14.666 -0.2133 -0.0037 -0.1747
 3069DOPG   D2A58686   8.670  16.793  14.829 -0.1903 -0.0278  0.1808
 3069DOPG   C3A58687   8.918  16.649  15.165  0.1343  0.4030 -0.2069
 3069DOPG   C4A58688   9.135  16.267  15.285  0.0587  0.2818 -0.2678
 3069DOPG   C1B58689   7.962  16.512  15.041  0.0747 -0.1054 -0.0781
 3069DOPG   D2B58690   8.420  16.557  15.183  0.0492  0.2123 -0.1839
 3069DOPG   C3B58691   8.641  16.224  15.301  0.4598  0.0369 -0.2388
 3069DOPG   C4B58692   8.826  16.008  15.619  0.2529 -0.0614 -0.2455
 3070DOPG   GL058693  17.107  21.023  12.114 -0.1157  0.4691 -0.1910
 3070DOPG   PO458694  17.507  21.158  12.058  0.0367 -0.3040  0.0977
 3070DOPG   GL158695  17.590  20.902  12.410 -0.0935 -0.0595  0.1190
 3070DOPG   GL258696  17.365  20.777  12.530  0.0128 -0.0585 -0.0540
 3070DOPG   C1A58697  17.901  20.907  12.818  0.2746  0.1223 -0.0918
 3070DOPG   D2A58698  17.956  20.872  13.305 -0.3740 -0.1216  0.4107
 3070DOPG   C3A58699  18.190  20.635  13.553 -0.0816  0.1214  0.2507
 3070DOPG   C4A58700  18.198  20.174  13.605 -0.0672  0.0207  0.1855
 3070DOPG   C1B58701  16.990  20.903  12.662 -0.1691 -0.0689 -0.2863
 3070DOPG   D2B58702  16.707  20.780  12.934  0.2272  0.1319 -0.0717
 3070DOPG   C3B58703  16.849  20.840  13.205 -0.1906 -0.0202 -0.1084
 3070DOPG   C4B58704  16.980  20.595  13.530  0.2083 -0.0121  0.2446
 3071DOPG   GL058705  17.387   8.526  15.756 -0.2736  0.1878 -0.1400
 3071DOPG   PO458706  17.477   8.723  16.170  0.0302  0.2094 -0.2971
 3071DOPG   GL158707  17.415   9.184  16.400  0.0333  0.3160  0.0541
 3071DOPG   GL258708  17.468   9.273  16.683 -0.0655 -0.0092  0.2332
 3071DOPG   C1A58709  17.255   9.491  16.076 -0.0394 -0.1337  0.1042
 3071DOPG   D2A58710  17.256   9.729  15.811  0.0293  0.0329  0.1881
 3071DOPG   C3A58711  17.371  10.228  15.752 -0.4030 -0.1752 -0.1148
 3071DOPG   C4A58712  17.470  10.470  16.064 -0.0541 -0.0734  0.0661
 3071DOPG   C1B58713  17.684   9.690  16.556 -0.0465  0.2083  0.1999
 3071DOPG   D2B58714  17.801  10.030  16.557  0.0828 -0.1862 -0.1332
 3071DOPG   C3B58715  18.121   9.999  16.345  0.0757 -0.1125 -0.1838
 3071DOPG   C4B58716  18.462  10.026  16.605 -0.0950 -0.2374 -0.3021
 3072DOPG   GL058717  12.157  25.482  18.380 -0.1269  0.1089  0.2069
 3072DOPG   PO458718  12.492  25.196  18.524  0.1354  0.0666 -0.3991
 3072DOPG   GL158719  12.636  24.865  18.161 -0.0365 -0.1229  0.0653
 3072DOPG   GL258720  12.433  24.949  17.849 -0.2151  0.0667  0.3941
 3072DOPG   C1A58721  12.883  24.517  18.123  0.0403  0.2168  0.3140
 3072DOPG   D2A58722  12.750  24.123  18.034 -0.2045  0.0741 -0.1059
 3072DOPG   C3A58723  12.835  23.776  18.322  0.0395 -0.3283 -0.0683
 3072DOPG   C4A58724  13.017  23.573  18.645  0.1141 -0.0880 -0.3524
 3072DOPG   C1B58725  12.520  24.576  17.769  0.1273 -0.0658 -0.0312
 3072DOPG   D2B58726  12.297  24.184  17.692 -0.1670  0.1531 -0.0380
 3072DOPG   C3B58727  12.432  23.940  17.454  0.2791 -0.1345  0.0635
 3072DOPG   C4B58728  12.479  23.801  17.042  0.0977  0.0559  0.0290
 3073DOPG   GL058729   9.090  17.336  12.849 -0.0368 -0.0278  0.1023
 3073DOPG   PO458730   8.758  17.406  13.081 -0.1300  0.2091  0.0144
 3073DOPG   GL158731   9.003  17.333  13.476 -0.1669  0.1181  0.0003
 3073DOPG   GL258732   8.835  17.146  13.669 -0.1805 -0.0035 -0.3878
 3073DOPG   C1A58733   9.278  17.553  13.811  0.0581 -0.2674  0.3712
 3073DOPG   D2A58734   9.033  17.801  14.019 -0.1374  0.0265  0.3050
 3073DOPG   C3A58735   9.009  17.677  14.366 -0.1043  0.1412  0.4830
 3073DOPG   C4A58736   8.728  17.910  14.645  0.1911 -0.1212 -0.2704
 3073DOPG   C1B58737   9.348  16.979  13.709  0.1519 -0.1619  0.2072
 3073DOPG   D2B58738   9.652  17.206  13.953  0.0713  0.0461  0.1464
 3073DOPG   C3B58739   9.510  17.501  14.260 -0.2440  0.0418  0.1275
 3073DOPG   C4B58740   9.380  17.958  14.481 -0.1088 -0.0122  0.0015
 3074DOPG   GL058741   9.931  17.996  12.591 -0.1193 -0.0163  0.2543
 3074DOPG   PO458742   9.964  18.462  12.329  0.1138  0.0239 -0.3363
 3074DOPG   GL158743  10.148  18.526  12.671  0.1790 -0.1005 -0.0878
 3074DOPG   GL258744  10.152  18.420  12.935 -0.1439  0.0337  0.0730
 3074DOPG   C1A58745  10.370  18.846  12.901 -0.2492 -0.3190 -0.1610
 3074DOPG   D2A58746  10.413  19.326  12.850 -0.1461  0.1010  0.1907
 3074DOPG   C3A58747  10.675  19.615  13.085  0.3587  0.1050  0.2245
 3074DOPG   C4A58748  11.130  19.541  13.320  0.2026  0.0906  0.1939
 3074DOPG   C1B58749  10.174  18.505  13.259  0.0068  0.0621  0.0038
 3074DOPG   D2B58750  10.377  18.509  13.692  0.2219 -0.1302  0.0707
 3074DOPG   C3B58751  10.671  18.562  13.969  0.3685  0.0159 -0.2344
 3074DOPG   C4B58752  10.906  18.317  14.242  0.1914  0.1845  0.0421
 3075DOPG   GL058753  21.645  23.954  15.136  0.1113 -0.4482  0.2450
 3075DOPG   PO458754  22.024  23.696  15.078 -0.1027 -0.4094  0.0081
 3075DOPG   GL158755  22.027  23.317  15.349  0.1787 -0.5452 -0.2562
 3075DOPG   GL258756  22.203  23.173  15.346 -0.2224 -0.1561  0.0141
 3075DOPG   C1A58757  21.828  22.920  15.311  0.0840  0.1662 -0.2829
 3075DOPG   D2A58758  21.919  22.513  15.336  0.3603 -0.1141 -0.0180
 3075DOPG   C3A58759  21.524  22.195  15.106  0.0794 -0.1322  0.1454
 3075DOPG   C4A58760  21.514  21.950  14.663  0.2914  0.0531  0.1048
 3075DOPG   C1B58761  22.157  22.962  15.725 -0.1172  0.0394  0.1188
 3075DOPG   D2B58762  22.040  22.635  16.105  0.2323 -0.0400  0.0334
 3075DOPG   C3B58763  21.963  22.686  16.541 -0.1194 -0.2593 -0.0663
 3075DOPG   C4B58764  22.058  22.416  16.867  0.0376 -0.2307  0.2251
 3076DOPG   GL058765   6.288  14.967  15.040 -0.0275 -0.0895 -0.1472
 3076DOPG   PO458766   6.536  15.189  14.839  0.0311  0.1805 -0.1134
 3076DOPG   GL158767   6.894  15.321  14.815 -0.1682  0.2922  0.0819
 3076DOPG   GL258768   6.850  15.680  15.011  0.3753  0.0694  0.0818
 3076DOPG   C1A58769   7.208  15.111  15.021 -0.1147 -0.2145  0.0275
 3076DOPG   D2A58770   7.704  15.126  15.056 -0.2492 -0.0592 -0.1482
 3076DOPG   C3A58771   8.021  15.332  15.406  0.3353 -0.1490  0.1618
 3076DOPG   C4A58772   7.858  15.659  15.628 -0.1820  0.1917 -0.4255
 3076DOPG   C1B58773   7.090  15.614  15.364  0.2557 -0.0926 -0.1615
 3076DOPG   D2B58774   7.327  15.692  15.739 -0.1232 -0.3599  0.1707
 3076DOPG   C3B58775   7.681  15.441  16.023 -0.1533 -0.1813 -0.2420
 3076DOPG   C4B58776   7.672  15.147  16.303  0.2443 -0.0330 -0.2308
 3077DOPG   GL058777  11.219  16.312  11.488 -0.1246  0.2339 -0.0503
 3077DOPG   PO458778  11.270  15.777  11.512  0.1461 -0.1445 -0.1268
 3077DOPG   GL158779  11.190  15.794  11.919  0.3092  0.2596  0.5410
 3077DOPG   GL258780  11.264  16.124  11.977  0.2121  0.1767  0.3260
 3077DOPG   C1A58781  11.315  15.562  12.246  0.2653  0.2697 -0.1126
 3077DOPG   D2A58782  11.422  15.173  12.423  0.0648  0.0583  0.1079
 3077DOPG   C3A58783  11.755  15.155  12.620  0.1255  0.1345  0.0663
 3077DOPG   C4A58784  11.939  15.232  13.022 -0.2839  0.1098 -0.1384
 3077DOPG   C1B58785  11.510  16.055  12.316 -0.0720 -0.0463  0.2001
 3077DOPG   D2B58786  11.639  16.022  12.709 -0.0080  0.2795  0.0299
 3077DOPG   C3B58787  11.552  15.574  12.838 -0.1975 -0.0935  0.0711
 3077DOPG   C4B58788  11.399  15.271  12.983 -0.0219  0.0879  0.0170
 3078DOPG   GL058789  18.049   9.568  15.231 -0.1370 -0.1123  0.4856
 3078DOPG   PO458790  17.985   9.375  15.638 -0.1002  0.1776 -0.1623
 3078DOPG   GL158791  17.926   9.774  15.700  0.4737  0.0680 -0.0682
 3078DOPG   GL258792  17.983   9.977  15.483 -0.2365  0.0081 -0.1521
 3078DOPG   C1A58793  17.692   9.949  16.065 -0.3887  0.0530 -0.0434
 3078DOPG   D2A58794  17.374   9.966  16.306  0.2865  0.2658 -0.1244
 3078DOPG   C3A58795  16.931  10.021  16.117 -0.1169 -0.1534  0.3563
 3078DOPG   C4A58796  16.512  10.280  15.997 -0.3774  0.0299 -0.1084
 3078DOPG   C1B58797  17.855  10.316  15.725 -0.1232  0.0782 -0.1870
 3078DOPG   D2B58798  17.941  10.410  16.222  0.2121  0.1884 -0.3494
 3078DOPG   C3B58799  18.440  10.494  16.391  0.0562 -0.0029  0.0306
 3078DOPG   C4B58800  18.598  11.010  16.450 -0.1014 -0.0901 -0.1631
 3079DOPG   GL058801  20.657  10.968  15.428  0.2158 -0.2154  0.1987
 3079DOPG   PO458802  20.772  11.006  15.833  0.2537 -0.0095 -0.0803
 3079DOPG   GL158803  20.424  11.154  15.851 -0.2158 -0.6051  0.2918
 3079DOPG   GL258804  20.460  11.401  15.619  0.0055 -0.0127  0.0415
 3079DOPG   C1A58805  20.025  11.154  16.008  0.0756  0.1535 -0.1017
 3079DOPG   D2A58806  19.478  11.163  16.169 -0.1383  0.1417  0.1628
 3079DOPG   C3A58807  19.304  11.136  16.514  0.3118 -0.0911  0.1684
 3079DOPG   C4A58808  18.956  11.165  16.760  0.0925 -0.1189 -0.1653
 3079DOPG   C1B58809  20.449  11.712  15.893 -0.0876  0.0891 -0.1871
 3079DOPG   D2B58810  20.192  11.566  16.161  0.1319  0.0383 -0.2946
 3079DOPG   C3B58811  19.816  11.609  16.179  0.1756 -0.0098  0.0807
 3079DOPG   C4B58812  19.418  11.651  16.410 -0.1400  0.1527  0.0821
 3080DOPG   GL058813  20.902  18.850  11.774  0.2561  0.2675 -0.1325
 3080DOPG   PO458814  20.529  18.604  11.773 -0.1870  0.1630  0.2140
 3080DOPG   GL158815  20.188  18.517  12.041 -0.1413 -0.2255  0.0757
 3080DOPG   GL258816  20.396  18.415  12.390 -0.0539 -0.0582 -0.2259
 3080DOPG   C1A58817  19.884  18.687  12.456 -0.1007  0.0563 -0.2169
 3080DOPG   D2A58818  19.835  18.777  12.779 -0.2052  0.3104 -0.4550
 3080DOPG   C3A58819  19.909  18.488  13.133 -0.2376  0.1588  0.1872
 3080DOPG   C4A58820  19.944  18.099  13.273 -0.2365 -0.1739 -0.1913
 3080DOPG   C1B58821  20.243  18.481  12.699  0.0714 -0.2243 -0.2410
 3080DOPG   D2B58822  20.468  18.382  13.086 -0.3527 -0.2940 -0.3444
 3080DOPG   C3B58823  20.355  18.617  13.408 -0.0781  0.1200 -0.0338
 3080DOPG   C4B58824  20.155  18.974  13.503  0.0629 -0.3073  0.1711
 3081DOPG   GL058825   7.262  18.321  13.833 -0.3702  0.1917  0.0187
 3081DOPG   PO458826   7.454  18.756  13.876  0.0876 -0.1272  0.4249
 3081DOPG   GL158827   7.272  19.118  14.042 -0.2002  0.0040  0.0732
 3081DOPG   GL258828   7.296  19.335  13.788 -0.2795  0.0941  0.1701
 3081DOPG   C1A58829   6.775  19.218  14.052  0.0752  0.0368  0.1006
 3081DOPG   D2A58830   6.308  19.151  13.920  0.2355 -0.0243  0.1175
 3081DOPG   C3A58831   6.112  18.969  13.617 -0.2815 -0.1762  0.3125
 3081DOPG   C4A58832   5.958  19.405  13.433 -0.1200  0.2603 -0.0972
 3081DOPG   C1B58833   7.139  19.476  14.295 -0.4390  0.1065 -0.2530
 3081DOPG   D2B58834   6.852  19.651  14.338  0.0047 -0.0681 -0.0875
 3081DOPG   C3B58835   6.506  19.693  14.040  0.1058  0.0947 -0.0436
 3081DOPG   C4B58836   6.370  19.549  13.627  0.0035 -0.2142  0.0026
 3082DOPG   GL058837  12.956  22.761  13.009 -0.1463 -0.1512  0.1145
 3082DOPG   PO458838  12.769  22.478  12.649 -0.2831  0.0303  0.1805
 3082DOPG   GL158839  12.687  22.311  13.132  0.0150  0.1273 -0.0331
 3082DOPG   GL258840  12.387  22.437  13.390 -0.4444 -0.0694  0.0130
 3082DOPG   C1A58841  12.875  22.474  13.470  0.1340 -0.1162 -0.1264
 3082DOPG   D2A58842  12.634  22.726  13.878  0.0818 -0.0562 -0.4076
 3082DOPG   C3A58843  12.645  22.563  14.228 -0.1571 -0.2048 -0.0590
 3082DOPG   C4A58844  12.389  22.431  14.507  0.0619 -0.0848  0.0253
 3082DOPG   C1B58845  12.559  22.100  13.610 -0.0843  0.0055 -0.0121
 3082DOPG   D2B58846  12.577  21.772  13.923 -0.3556  0.1629  0.1631
 3082DOPG   C3B58847  12.480  21.266  13.776 -0.0316 -0.0072  0.0174
 3082DOPG   C4B58848  12.142  20.860  13.856  0.3585  0.2837  0.1324
 3083DOPG   GL058849  10.685  25.612  16.412 -0.0494  0.1461  0.0103
 3083DOPG   PO458850  10.262  25.423  16.295  0.2743 -0.0524  0.0038
 3083DOPG   GL158851  10.224  25.008  16.392  0.1485 -0.0630  0.1233
 3083DOPG   GL258852   9.954  25.038  16.508 -0.0208  0.3385  0.3079
 3083DOPG   C1A58853  10.083  24.642  16.225  0.2100  0.1958  0.0251
 3083DOPG   D2A58854   9.880  24.209  16.059 -0.0491 -0.1453 -0.1433
 3083DOPG   C3A58855   9.897  23.861  15.871  0.0224 -0.2264  0.1259
 3083DOPG   C4A58856   9.832  23.600  15.534  0.1109  0.0578  0.0076
 3083DOPG   C1B58857  10.009  24.667  16.757 -0.1761 -0.0706  0.4722
 3083DOPG   D2B58858   9.572  24.477  17.028  0.1743  0.1529  0.4254
 3083DOPG   C3B58859   9.500  24.024  16.982  0.0892  0.0081  0.1323
 3083DOPG   C4B58860   9.324  23.702  16.599  0.1071 -0.0013 -0.0045
 3084DOPG   GL058861   9.055  19.906  13.289  0.1605 -0.2197 -0.0938
 3084DOPG   PO458862   8.790  19.563  13.305 -0.0913 -0.0422 -0.0006
 3084DOPG   GL158863   8.721  19.742  13.725  0.0748  0.5252 -0.1794
 3084DOPG   GL258864   9.061  19.625  13.837  0.2958 -0.0069 -0.2262
 3084DOPG   C1A58865   8.781  19.627  14.198 -0.0827  0.3905 -0.3224
 3084DOPG   D2A58866   8.721  19.151  14.361  0.1215  0.0116 -0.0474
 3084DOPG   C3A58867   8.768  19.142  14.762  0.0246 -0.4924 -0.2012
 3084DOPG   C4A58868   9.084  19.244  15.115  0.6197  0.3095 -0.2323
 3084DOPG   C1B58869   9.196  19.989  14.000  0.0909 -0.1913  0.1346
 3084DOPG   D2B58870   8.940  20.162  14.369 -0.1485 -0.1927 -0.1558
 3084DOPG   C3B58871   8.742  19.877  14.627 -0.0980 -0.0023  0.2115
 3084DOPG   C4B58872   8.832  19.625  14.954  0.0025 -0.0232 -0.0504
 3085DOPG   GL058873   9.853  10.867  12.694 -0.3451 -0.0053  0.1579
 3085DOPG   PO458874   9.683  10.628  12.907 -0.1257 -0.2509  0.1983
 3085DOPG   GL158875   9.712  10.884  13.221  0.2090 -0.1229 -0.1614
 3085DOPG   GL258876   9.955  10.815  13.417 -0.0209 -0.1846  0.3033
 3085DOPG   C1A58877   9.536  10.872  13.630  0.2734 -0.0495 -0.2580
 3085DOPG   D2A58878   9.603  10.655  14.047  0.0593 -0.2924  0.0559
 3085DOPG   C3A58879   9.623  10.236  13.954 -0.2319 -0.0544  0.0855
 3085DOPG   C4A58880   9.791   9.919  13.725 -0.2536 -0.0266 -0.1240
 3085DOPG   C1B58881   9.972  10.924  13.817 -0.0598  0.1221 -0.2279
 3085DOPG   D2B58882   9.971  10.910  14.244 -0.2134  0.0683 -0.4048
 3085DOPG   C3B58883   9.638  10.891  14.523 -0.0900  0.0229  0.1411
 3085DOPG   C4B58884   9.445  10.816  14.976  0.0209 -0.1271 -0.0519
 3086DOPG   GL058885  10.268  16.806  12.216  0.1514 -0.3555  0.0130
 3086DOPG   PO458886  10.268  16.516  11.794 -0.0425 -0.0628  0.1700
 3086DOPG   GL158887  10.518  16.358  12.142  0.1430  0.1146 -0.3082
 3086DOPG   GL258888  10.718  16.082  11.980 -0.1510  0.2109 -0.3109
 3086DOPG   C1A58889  10.537  16.186  12.555 -0.0846  0.0282 -0.1167
 3086DOPG   D2A58890  10.706  16.221  12.912  0.0847 -0.1565 -0.0511
 3086DOPG   C3A58891  10.403  16.170  13.226  0.2112  0.0424 -0.2334
 3086DOPG   C4A58892  10.416  16.194  13.614 -0.3965 -0.1051 -0.3051
 3086DOPG   C1B58893  10.993  15.960  12.370  0.1094  0.1685  0.0466
 3086DOPG   D2B58894  11.019  15.724  12.603  0.0234  0.1713  0.0358
 3086DOPG   C3B58895  11.025  15.298  12.668  0.2131  0.0095 -0.1139
 3086DOPG   C4B58896  11.046  14.797  12.592  0.1910 -0.1319 -0.1707
 3087DOPG   GL058897   8.695  13.804  13.161 -0.0302 -0.1845  0.2698
 3087DOPG   PO458898   9.095  13.687  13.000  0.2945  0.2821 -0.2934
 3087DOPG   GL158899   9.329  13.897  13.190  0.3248 -0.0093 -0.1128
 3087DOPG   GL258900   9.175  13.892  13.458 -0.0530 -0.2242  0.2297
 3087DOPG   C1A58901   9.643  13.741  13.500 -0.0176 -0.1697  0.1627
 3087DOPG   D2A58902   9.967  13.716  13.681  0.0810  0.0214 -0.1897
 3087DOPG   C3A58903  10.080  13.490  14.088  0.1046 -0.1474  0.0624
 3087DOPG   C4A58904   9.920  13.317  14.419  0.1387 -0.1453 -0.1350
 3087DOPG   C1B58905   9.432  14.053  13.880  0.0282  0.0912 -0.0300
 3087DOPG   D2B58906   9.713  13.867  14.105  0.3134 -0.0336  0.2572
 3087DOPG   C3B58907   9.503  13.507  14.215 -0.1616  0.4449  0.0372
 3087DOPG   C4B58908   9.531  12.994  14.145  0.1857  0.2605  0.2243
 3088DOPG   GL058909  11.821  21.491  11.953  0.1025 -0.3590 -0.1661
 3088DOPG   PO458910  11.734  21.209  12.220  0.2586  0.2225 -0.1085
 3088DOPG   GL158911  11.624  20.920  12.609 -0.1870 -0.0752  0.2418
 3088DOPG   GL258912  11.756  20.551  12.612  0.0456  0.1266  0.2033
 3088DOPG   C1A58913  11.309  21.036  12.904 -0.0753 -0.2466  0.0111
 3088DOPG   D2A58914  11.193  21.048  13.289  0.0604 -0.3124  0.1824
 3088DOPG   C3A58915  10.901  21.411  13.514 -0.0163 -0.3524 -0.2341
 3088DOPG   C4A58916  10.606  21.572  13.925  0.0229  0.0510 -0.0801
 3088DOPG   C1B58917  11.997  20.396  12.921  0.0721 -0.2685 -0.0758
 3088DOPG   D2B58918  11.729  20.404  13.308  0.1815  0.5177  0.2543
 3088DOPG   C3B58919  11.909  20.475  13.707 -0.0019 -0.0994  0.0128
 3088DOPG   C4B58920  11.864  20.350  13.981  0.0495 -0.0250  0.2815
 3089DOPG   GL058921  16.239  23.230  14.206 -0.3684 -0.0667 -0.0548
 3089DOPG   PO458922  16.010  23.102  13.855  0.3307  0.0907 -0.2684
 3089DOPG   GL158923  15.934  22.805  14.253 -0.2623  0.0281 -0.0080
 3089DOPG   GL258924  15.609  22.823  14.317  0.0319  0.0111 -0.0218
 3089DOPG   C1A58925  16.052  22.331  14.166 -0.1516  0.0629 -0.1193
 3089DOPG   D2A58926  16.140  22.030  13.849 -0.3192  0.1423  0.2700
 3089DOPG   C3A58927  16.200  21.612  13.997  0.0525  0.3006 -0.0911
 3089DOPG   C4A58928  16.578  21.274  14.099 -0.0403 -0.0572 -0.1702
 3089DOPG   C1B58929  15.743  22.449  14.539  0.1412 -0.2302  0.1114
 3089DOPG   D2B58930  15.869  21.994  14.714 -0.3227 -0.1013 -0.2174
 3089DOPG   C3B58931  15.986  21.507  14.464  0.3463 -0.0559  0.0016
 3089DOPG   C4B58932  16.222  21.130  14.429  0.0172 -0.0338  0.2523
 3090DOPG   GL058933   6.801  14.439  13.816 -0.0766  0.1874 -0.1376
 3090DOPG   PO458934   7.163  14.274  13.832  0.0318 -0.1464  0.0269
 3090DOPG   GL158935   7.586  14.168  13.932 -0.0499 -0.3275  0.0230
 3090DOPG   GL258936   7.738  13.952  14.056  0.3590 -0.1570 -0.4377
 3090DOPG   C1A58937   8.055  14.396  14.019 -0.1303 -0.0053 -0.0753
 3090DOPG   D2A58938   8.504  14.444  13.935 -0.0339 -0.3207 -0.2424
 3090DOPG   C3A58939   8.607  14.570  14.397 -0.0219  0.2755  0.2273
 3090DOPG   C4A58940   8.816  14.431  14.687  0.1080 -0.1274 -0.0804
 3090DOPG   C1B58941   8.033  13.680  14.326 -0.1926 -0.0747  0.0349
 3090DOPG   D2B58942   8.125  13.519  14.717  0.1488 -0.0843  0.1122
 3090DOPG   C3B58943   8.179  13.767  15.122  0.1031 -0.0909  0.0453
 3090DOPG   C4B58944   8.378  13.670  15.468  0.0901  0.1831 -0.0684
 3091DOPG   GL058945   8.583  15.615  12.784 -0.2096 -0.3003 -0.0375
 3091DOPG   PO458946   8.661  15.449  13.205  0.0063 -0.2556 -0.1087
 3091DOPG   GL158947   8.937  15.655  13.425  0.1336 -0.1157  0.1206
 3091DOPG   GL258948   8.868  15.968  13.601 -0.0718 -0.1758  0.4121
 3091DOPG   C1A58949   9.181  15.565  13.751  0.0064  0.0378 -0.1239
 3091DOPG   D2A58950   9.452  15.644  13.961 -0.0568  0.2210 -0.0314
 3091DOPG   C3A58951   9.442  15.253  14.199 -0.0355  0.0878 -0.1363
 3091DOPG   C4A58952   9.779  14.978  14.400  0.3045  0.1168 -0.0514
 3091DOPG   C1B58953   9.011  16.115  14.020  0.2843 -0.0370 -0.0653
 3091DOPG   D2B58954   9.316  16.280  14.224  0.0649 -0.2144  0.3360
 3091DOPG   C3B58955   9.650  16.148  14.366 -0.2678  0.1075  0.0125
 3091DOPG   C4B58956   9.813  15.713  14.386 -0.0290  0.1398  0.2149
 3092DOPG   GL058957  20.147  23.344  13.839  0.0901 -0.1768  0.1569
 3092DOPG   PO458958  20.041  23.006  14.066  0.0712  0.0052 -0.2526
 3092DOPG   GL158959  19.656  22.831  14.322  0.3919 -0.0584 -0.1166
 3092DOPG   GL258960  19.739  22.564  14.064 -0.0708  0.1041  0.1623
 3092DOPG   C1A58961  19.301  22.562  14.525  0.1850 -0.2040 -0.0256
 3092DOPG   D2A58962  19.228  22.536  14.937 -0.3504 -0.3057 -0.0457
 3092DOPG   C3A58963  19.456  22.177  15.102 -0.0148 -0.2013  0.3753
 3092DOPG   C4A58964  19.881  22.017  15.069  0.2234  0.2495  0.0198
 3092DOPG   C1B58965  19.477  22.197  14.052  0.0662 -0.0025  0.0526
 3092DOPG   D2B58966  19.400  21.711  14.229  0.2612 -0.0276  0.0594
 3092DOPG   C3B58967  19.647  21.333  14.547  0.1816 -0.0754  0.1449
 3092DOPG   C4B58968  19.952  21.046  14.825 -0.0739  0.1584  0.0031
 3093DOPG   GL058969  21.675  10.681  17.316 -0.0695  0.0230  0.2415
 3093DOPG   PO458970  21.644  11.140  17.450 -0.0873 -0.1078  0.1614
 3093DOPG   GL158971  21.277  11.339  17.683 -0.0462 -0.1676 -0.2577
 3093DOPG   GL258972  20.964  11.183  17.793 -0.0043  0.0051 -0.1520
 3093DOPG   C1A58973  21.289  11.775  17.864  0.1177  0.1253 -0.1527
 3093DOPG   D2A58974  21.035  12.116  17.940  0.1951  0.0649 -0.1014
 3093DOPG   C3A58975  20.651  12.200  17.678  0.1513  0.2439  0.2572
 3093DOPG   C4A58976  20.261  12.243  17.504  0.0758 -0.0956 -0.0487
 3093DOPG   C1B58977  20.538  11.250  17.627 -0.2175  0.0147 -0.1721
 3093DOPG   D2B58978  20.095  11.084  17.703 -0.2488 -0.2662 -0.1974
 3093DOPG   C3B58979  20.023  11.450  17.649  0.1665  0.0078  0.1593
 3093DOPG   C4B58980  19.919  11.854  17.499 -0.1048  0.0636  0.0949
 3094DOPG   GL058981  21.909  11.468  16.087  0.0844 -0.1005 -0.0466
 3094DOPG   PO458982  21.490  11.442  15.990  0.0289 -0.1867  0.0223
 3094DOPG   GL158983  21.222  11.578  16.351  0.1130 -0.3185 -0.1393
 3094DOPG   GL258984  21.255  11.934  16.525 -0.0325 -0.2957  0.1984
 3094DOPG   C1A58985  20.769  11.665  16.363  0.3682  0.0998 -0.0285
 3094DOPG   D2A58986  20.557  12.022  16.451 -0.1846  0.1039  0.0684
 3094DOPG   C3A58987  20.083  12.026  16.490 -0.0974 -0.0582 -0.1208
 3094DOPG   C4A58988  19.640  12.031  16.759  0.0208 -0.1040 -0.3123
 3094DOPG   C1B58989  20.884  11.820  16.889  0.0869 -0.0172 -0.2303
 3094DOPG   D2B58990  20.591  11.909  17.243 -0.0014 -0.4415 -0.0085
 3094DOPG   C3B58991  20.489  11.705  17.721 -0.0859 -0.2298 -0.3192
 3094DOPG   C4B58992  20.685  11.809  18.116  0.2640 -0.3032  0.0992
 3095DOPG   GL058993  13.762  16.829  10.314 -0.1936 -0.1583  0.1482
 3095DOPG   PO458994  13.508  16.701  10.681  0.1046 -0.2827  0.1331
 3095DOPG   GL158995  13.442  16.484  11.141  0.0242  0.0267  0.0140
 3095DOPG   GL258996  13.680  16.519  11.392 -0.2658 -0.1426 -0.0275
 3095DOPG   C1A58997  13.405  16.096  11.403 -0.0825  0.0510 -0.0633
 3095DOPG   D2A58998  13.330  16.071  11.855  0.2398  0.0242  0.0238
 3095DOPG   C3A58999  13.587  15.884  12.191  0.0658 -0.0224 -0.0322
 3095DOPG   C4A59000  13.675  15.697  12.499 -0.1741  0.0809  0.2973
 3095DOPG   C1B59001  13.795  16.191  11.667  0.0748  0.1933 -0.0304
 3095DOPG   D2B59002  13.938  15.672  11.611 -0.3925 -0.0479  0.1505
 3095DOPG   C3B59003  13.868  15.531  12.008 -0.1395  0.1233  0.2830
 3095DOPG   C4B59004  13.709  15.261  12.210  0.2062  0.1654 -0.3436
 3096DOPG   GL059005  13.832  19.385  10.889 -0.1150  0.1390  0.2081
 3096DOPG   PO459006  13.784  19.446  11.282  0.0323 -0.4978  0.3566
 3096DOPG   GL159007  13.705  19.629  11.647  0.0809  0.2498 -0.0201
 3096DOPG   GL259008  13.384  19.599  11.670  0.0301 -0.1387  0.1758
 3096DOPG   C1A59009  13.813  19.533  12.000 -0.1416 -0.1308 -0.3437
 3096DOPG   D2A59010  13.576  19.191  12.297 -0.1020 -0.1561  0.0925
 3096DOPG   C3A59011  13.916  18.916  12.382 -0.1477 -0.1280 -0.0254
 3096DOPG   C4A59012  14.252  18.757  12.735  0.0913  0.0910 -0.0166
 3096DOPG   C1B59013  13.246  19.608  12.075 -0.0681 -0.0041 -0.2908
 3096DOPG   D2B59014  13.028  19.463  12.446  0.2802  0.0636  0.3248
 3096DOPG   C3B59015  13.119  18.961  12.539  0.1293  0.0541  0.0585
 3096DOPG   C4B59016  13.166  18.519  12.633  0.0527 -0.0598  0.1074
 3097DOPG   GL059017   9.054  15.781  12.929 -0.2641  0.3557 -0.1779
 3097DOPG   PO459018   9.039  15.654  12.486 -0.1713  0.3738 -0.3067
 3097DOPG   GL159019   9.480  15.574  12.698  0.2261  0.2276 -0.1512
 3097DOPG   GL259020   9.680  15.204  12.698  0.0611 -0.3584 -0.1133
 3097DOPG   C1A59021   9.600  15.847  13.033 -0.1229  0.1328 -0.1634
 3097DOPG   D2A59022   9.442  15.908  13.532 -0.2573  0.2399 -0.0597
 3097DOPG   C3A59023   9.733  16.040  13.804 -0.0903  0.1245  0.1685
 3097DOPG   C4A59024  10.138  16.438  13.933 -0.0503  0.2874  0.3243
 3097DOPG   C1B59025   9.907  15.430  12.932 -0.0271 -0.3933  0.2354
 3097DOPG   D2B59026  10.155  15.452  13.183 -0.1413  0.4822  0.1904
 3097DOPG   C3B59027  10.244  15.135  13.541  0.2299 -0.0454 -0.1091
 3097DOPG   C4B59028  10.137  14.706  13.639 -0.0549  0.3359 -0.1457
 3098DOPG   GL059029   9.572   7.704  18.961 -0.4241  0.2464  0.0269
 3098DOPG   PO459030   9.746   7.332  19.170 -0.0995  0.0524 -0.2326
 3098DOPG   GL159031  10.188   7.516  18.964 -0.2544 -0.3998  0.1593
 3098DOPG   GL259032  10.182   7.724  18.594 -0.2361  0.1483  0.3701
 3098DOPG   C1A59033  10.626   7.560  18.837 -0.1668 -0.0726  0.5428
 3098DOPG   D2A59034  10.895   7.721  18.507 -0.0488 -0.1141 -0.2162
 3098DOPG   C3A59035  10.921   8.155  18.564  0.1496  0.3538 -0.3037
 3098DOPG   C4A59036  10.918   8.539  18.793 -0.1273  0.4648 -0.1907
 3098DOPG   C1B59037   9.966   8.016  18.874  0.2040 -0.0041  0.4813
 3098DOPG   D2B59038   9.570   8.200  18.864  0.1092 -0.0320  0.0204
 3098DOPG   C3B59039   9.297   8.428  18.592  0.0812 -0.2897  0.1576
 3098DOPG   C4B59040   9.409   8.701  18.296  0.0031  0.2744  0.0398
 3099DOPG   GL059041  18.656  11.319  13.143  0.1538 -0.3009  0.0200
 3099DOPG   PO459042  18.324  11.156  13.410 -0.2500 -0.0436  0.2223
 3099DOPG   GL159043  17.953  11.225  13.724 -0.1350  0.0251 -0.0395
 3099DOPG   GL259044  17.590  11.500  13.767 -0.2119 -0.1206 -0.1655
 3099DOPG   C1A59045  17.896  11.278  14.112  0.0407  0.0639 -0.1651
 3099DOPG   D2A59046  17.567  11.296  14.281  0.1179 -0.0216 -0.2910
 3099DOPG   C3A59047  17.214  11.386  14.173  0.0426 -0.1979  0.3408
 3099DOPG   C4A59048  16.776  11.414  14.391 -0.3451 -0.0117  0.3308
 3099DOPG   C1B59049  17.951  11.712  13.560  0.0621  0.1649 -0.4649
 3099DOPG   D2B59050  18.238  12.126  13.616 -0.0161 -0.0770  0.1820
 3099DOPG   C3B59051  18.189  12.303  13.938 -0.0088 -0.1444 -0.0138
 3099DOPG   C4B59052  18.271  12.657  14.144  0.0923 -0.1785 -0.2138
 3100DOPG   GL059053   8.194  24.865  15.322 -0.3104  0.1252 -0.1213
 3100DOPG   PO459054   8.133  24.993  14.915 -0.1630 -0.2626 -0.0739
 3100DOPG   GL159055   8.300  24.547  14.984  0.0991  0.1488 -0.1530
 3100DOPG   GL259056   8.491  24.497  14.737  0.0106  0.1123 -0.2828
 3100DOPG   C1A59057   8.464  24.214  15.170  0.2120 -0.3130 -0.1691
 3100DOPG   D2A59058   8.864  23.977  15.172 -0.1265 -0.0689 -0.0689
 3100DOPG   C3A59059   9.054  23.745  14.751 -0.1606 -0.4632 -0.0628
 3100DOPG   C4A59060   9.494  23.725  14.602 -0.2206  0.0928  0.0186
 3100DOPG   C1B59061   8.261  24.096  14.665 -0.0682  0.0028 -0.1040
 3100DOPG   D2B59062   8.131  23.679  14.595 -0.0830  0.1653  0.0544
 3100DOPG   C3B59063   8.234  23.169  14.555 -0.2330  0.0323 -0.1315
 3100DOPG   C4B59064   8.336  22.928  14.218 -0.4731  0.1268 -0.3568
 3101DOPG   GL059065  14.521  15.376  10.960 -0.1257  0.2783 -0.3484
 3101DOPG   PO459066  14.891  15.123  10.991  0.0586 -0.2241 -0.1355
 3101DOPG   GL159067  14.923  15.083  11.428  0.1007 -0.3863 -0.1212
 3101DOPG   GL259068  14.702  15.115  11.765 -0.2180  0.2408  0.2750
 3101DOPG   C1A59069  15.255  15.240  11.698  0.2388 -0.2463  0.0307
 3101DOPG   D2A59070  15.236  15.333  12.184 -0.1015  0.0557  0.1383
 3101DOPG   C3A59071  15.029  15.458  12.512  0.1670  0.3694  0.1466
 3101DOPG   C4A59072  14.774  15.882  12.693 -0.3072  0.2375 -0.0080
 3101DOPG   C1B59073  14.860  15.028  12.117  0.3610 -0.0515 -0.1219
 3101DOPG   D2B59074  14.972  14.695  12.454 -0.1642 -0.0086  0.3493
 3101DOPG   C3B59075  15.126  15.045  12.789  0.1218  0.2680  0.2511
 3101DOPG   C4B59076  15.152  15.140  13.190 -0.2796 -0.0893  0.0554
 3102DOPG   GL059077  14.681  23.792  14.323 -0.1229  0.1144 -0.0840
 3102DOPG   PO459078  14.721  24.220  14.646 -0.2547  0.3352  0.0293
 3102DOPG   GL159079  14.738  23.769  14.905  0.0148 -0.3291  0.2661
 3102DOPG   GL259080  14.455  23.558  14.942  0.4438 -0.1641 -0.0254
 3102DOPG   C1A59081  15.155  23.474  14.871 -0.2611 -0.3563 -0.0012
 3102DOPG   D2A59082  15.372  23.221  14.598  0.3131 -0.0341  0.0025
 3102DOPG   C3A59083  15.293  22.756  14.727 -0.1783  0.0340  0.0888
 3102DOPG   C4A59084  15.638  22.535  15.043  0.1010 -0.1527 -0.0340
 3102DOPG   C1B59085  14.199  23.356  15.244  0.1620 -0.1904 -0.0721
 3102DOPG   D2B59086  13.857  23.048  15.232  0.0619  0.0202  0.0059
 3102DOPG   C3B59087  13.707  22.969  15.623 -0.0607  0.0899 -0.3264
 3102DOPG   C4B59088  13.391  23.153  15.884 -0.1345  0.1411 -0.4133
 3103DOPG   GL059089  21.704  17.274  12.636  0.2537  0.1646  0.1054
 3103DOPG   PO459090  21.595  17.699  12.566 -0.0964 -0.4007  0.0442
 3103DOPG   GL159091  21.228  17.922  12.895  0.1629 -0.2795 -0.0670
 3103DOPG   GL259092  21.223  18.214  13.034 -0.0717 -0.0149 -0.0247
 3103DOPG   C1A59093  20.760  17.937  12.971 -0.2426  0.3451 -0.0490
 3103DOPG   D2A59094  20.478  17.945  12.731  0.1240 -0.0021  0.0105
 3103DOPG   C3A59095  20.090  17.917  12.805 -0.0374 -0.1921  0.1901
 3103DOPG   C4A59096  19.725  18.139  12.797  0.0632 -0.0129 -0.2373
 3103DOPG   C1B59097  21.210  17.856  13.403  0.1555 -0.1121  0.2868
 3103DOPG   D2B59098  21.536  17.571  13.685  0.1662  0.0384  0.1426
 3103DOPG   C3B59099  21.835  17.750  13.961  0.1302  0.1431 -0.0476
 3103DOPG   C4B59100  21.841  18.190  14.019 -0.0597  0.0064 -0.0563
 3104DOPG   GL059101  22.373  15.376  13.107  0.1271 -0.1012 -0.0988
 3104DOPG   PO459102  22.233  15.626  13.466  0.3623  0.0630 -0.0574
 3104DOPG   GL159103  22.221  15.650  13.870  0.2514 -0.0655  0.2242
 3104DOPG   GL259104  22.098  15.785  14.022  0.4375 -0.5144  0.0393
 3104DOPG   C1A59105  22.171  15.394  14.294 -0.0894  0.4525 -0.0658
 3104DOPG   D2A59106  22.018  15.236  14.677  0.1035 -0.3375  0.3706
 3104DOPG   C3A59107  21.577  15.314  14.661 -0.0336  0.1481  0.0459
 3104DOPG   C4A59108  21.276  15.171  14.484  0.1576  0.2549  0.2717
 3104DOPG   C1B59109  22.203  15.898  14.352 -0.1378  0.4858  0.0670
 3104DOPG   D2B59110  22.003  15.760  14.711  0.1614  0.0455 -0.2070
 3104DOPG   C3B59111  22.144  16.011  15.097 -0.1125  0.0479 -0.0234
 3104DOPG   C4B59112  21.878  16.342  15.354  0.0438 -0.1218 -0.0903
 3105DOPG   GL059113  21.020  24.800  16.842  0.1888  0.0909  0.3698
 3105DOPG   PO459114  20.871  24.255  16.794 -0.1441 -0.2424  0.1261
 3105DOPG   GL159115  21.152  23.951  16.785  0.3749  0.1421 -0.2388
 3105DOPG   GL259116  21.049  23.649  16.561  0.0484 -0.3027 -0.0551
 3105DOPG   C1A59117  21.480  23.913  17.126  0.0780  0.1813  0.3356
 3105DOPG   D2A59118  21.845  23.766  17.413 -0.1191 -0.1850  0.1766
 3105DOPG   C3A59119  22.029  23.411  17.216 -0.0926 -0.1332 -0.2815
 3105DOPG   C4A59120  22.473  23.248  17.080 -0.0526  0.1748 -0.2211
 3105DOPG   C1B59121  21.107  23.246  16.844 -0.0887 -0.0419  0.1536
 3105DOPG   D2B59122  21.311  22.949  16.996  0.0739  0.1309  0.3442
 3105DOPG   C3B59123  21.118  22.662  17.153  0.0875  0.1980  0.0295
 3105DOPG   C4B59124  20.714  22.243  17.167 -0.1734 -0.0972 -0.1404
 3106DOPG   GL059125  10.351  12.888  12.133  0.1093 -0.0990  0.0887
 3106DOPG   PO459126  10.607  12.708  11.824  0.1052  0.2144  0.0566
 3106DOPG   GL159127  10.964  12.785  12.071 -0.1708  0.0066 -0.0365
 3106DOPG   GL259128  11.328  13.028  12.106 -0.2149  0.1028 -0.0200
 3106DOPG   C1A59129  11.219  12.624  12.370 -0.0693  0.0365  0.2335
 3106DOPG   D2A59130  11.614  12.853  12.535  0.4006  0.0153  0.0661
 3106DOPG   C3A59131  12.020  12.627  12.572 -0.1952 -0.0286  0.0883
 3106DOPG   C4A59132  12.430  12.648  12.375 -0.3001 -0.2498  0.1079
 3106DOPG   C1B59133  11.563  13.300  12.385  0.0453  0.0480 -0.1997
 3106DOPG   D2B59134  11.465  13.398  12.833  0.3818 -0.0929  0.1251
 3106DOPG   C3B59135  11.689  13.167  13.119  0.2111 -0.2822  0.0365
 3106DOPG   C4B59136  11.875  12.895  12.990  0.0971 -0.0435 -0.0183
 3107DOPG   GL059137  15.784  14.513  11.313  0.0494 -0.0228  0.3382
 3107DOPG   PO459138  15.809  14.084  11.167 -0.1140  0.1457 -0.2459
 3107DOPG   GL159139  15.649  14.027  11.598  0.2848 -0.0525  0.2099
 3107DOPG   GL259140  15.574  14.347  11.779  0.0382 -0.1724 -0.2023
 3107DOPG   C1A59141  15.924  13.975  11.923 -0.1609  0.0023 -0.3319
 3107DOPG   D2A59142  16.094  14.137  12.338 -0.1412 -0.1890  0.0873
 3107DOPG   C3A59143  16.468  14.029  12.571  0.0640 -0.3841  0.1124
 3107DOPG   C4A59144  16.803  13.911  12.383 -0.1142  0.2402 -0.5328
 3107DOPG   C1B59145  15.601  14.778  11.691  0.2530  0.2367 -0.0548
 3107DOPG   D2B59146  15.739  15.268  11.860  0.1576  0.1629 -0.0567
 3107DOPG   C3B59147  15.743  15.638  11.875  0.4902 -0.2089  0.1402
 3107DOPG   C4B59148  15.945  15.942  12.096 -0.3027  0.3979 -0.0151
 3108DOPG   GL059149  22.801  13.938  14.532  0.0241 -0.2598 -0.0803
 3108DOPG   PO459150  22.456  13.706  14.650  0.0622 -0.0940  0.0231
 3108DOPG   GL159151  22.408  14.000  14.998  0.1457  0.2671 -0.0549
 3108DOPG   GL259152  22.592  14.219  14.865 -0.2058 -0.0065 -0.0600
 3108DOPG   C1A59153  22.419  14.300  15.319  0.0774  0.0274  0.4748
 3108DOPG   D2A59154  22.259  14.549  15.579 -0.3251 -0.0577  0.4036
 3108DOPG   C3A59155  22.308  14.512  15.931  0.0080 -0.1446 -0.3328
 3108DOPG   C4A59156  22.502  14.283  16.231  0.0809 -0.1015  0.0108
 3108DOPG   C1B59157  22.796  14.021  15.199  0.0145  0.3103 -0.2213
 3108DOPG   D2B59158  23.153  14.020  15.382  0.0888  0.0557 -0.4165
 3108DOPG   C3B59159  23.326  14.277  15.553 -0.0291 -0.0540  0.2772
 3108DOPG   C4B59160  23.162  14.560  15.844  0.2688  0.0566  0.3749
 3109DOPG   GL059161  26.679  16.961  15.505  0.0618  0.1875  0.0127
 3109DOPG   PO459162  26.970  17.239  15.478  0.2881 -0.0500  0.0373
 3109DOPG   GL159163  26.825  17.278  15.990  0.0372  0.0538 -0.1536
 3109DOPG   GL259164  26.904  17.165  16.253  0.0609  0.1665 -0.0819
 3109DOPG   C1A59165  26.501  17.469  16.149  0.2899 -0.2795  0.2322
 3109DOPG   D2A59166  26.126  17.402  16.307 -0.0069  0.1700 -0.1228
 3109DOPG   C3A59167  26.173  17.419  16.765  0.1434  0.0276  0.3976
 3109DOPG   C4A59168  26.135  17.303  17.225 -0.2551  0.2988  0.1078
 3109DOPG   C1B59169  26.807  17.312  16.618 -0.1977 -0.1486  0.3276
 3109DOPG   D2B59170  26.564  17.115  17.017 -0.2737 -0.1006  0.0512
 3109DOPG   C3B59171  26.619  17.201  17.440  0.2332  0.0969 -0.0804
 3109DOPG   C4B59172  26.865  16.841  17.625  0.1182  0.2850 -0.1104
 3110DOPG   GL059173  23.963  14.482  14.290 -0.2274 -0.2669  0.3969
 3110DOPG   PO459174  23.827  14.898  14.354 -0.0084 -0.1444 -0.1521
 3110DOPG   GL159175  23.565  15.051  14.703 -0.3268  0.0825 -0.0800
 3110DOPG   GL259176  23.471  15.420  14.837 -0.0740  0.0739  0.2178
 3110DOPG   C1A59177  23.248  14.939  15.035 -0.0457 -0.2689  0.4134
 3110DOPG   D2A59178  23.091  14.909  15.391 -0.0644 -0.2885 -0.0910
 3110DOPG   C3A59179  22.889  14.511  15.456  0.2256 -0.2015 -0.0350
 3110DOPG   C4A59180  22.745  14.196  15.807 -0.2795  0.0095  0.0408
 3110DOPG   C1B59181  23.822  15.744  14.821  0.1907 -0.4274 -0.3123
 3110DOPG   D2B59182  24.031  15.924  15.088 -0.0293  0.1887 -0.3030
 3110DOPG   C3B59183  23.742  15.887  15.362 -0.0669  0.2266  0.1488
 3110DOPG   C4B59184  23.717  15.517  15.805  0.0058 -0.2847  0.0181
 3111DOPG   GL059185  18.818  23.674  14.558  0.4417 -0.2182 -0.0977
 3111DOPG   PO459186  18.429  23.742  14.346  0.1743 -0.0972 -0.4083
 3111DOPG   GL159187  18.331  23.244  14.421  0.3281 -0.0662 -0.1143
 3111DOPG   GL259188  17.997  23.228  14.526 -0.1201 -0.0792  0.2372
 3111DOPG   C1A59189  18.408  22.801  14.515 -0.0734  0.0126 -0.0119
 3111DOPG   D2A59190  18.731  22.618  14.725 -0.1487  0.1561  0.0647
 3111DOPG   C3A59191  18.771  22.631  15.169  0.0838  0.0545  0.0668
 3111DOPG   C4A59192  18.692  22.761  15.628 -0.0845 -0.2945  0.3912
 3111DOPG   C1B59193  18.033  23.226  14.986 -0.2019  0.0116  0.3404
 3111DOPG   D2B59194  18.054  23.415  15.345  0.0671  0.1791  0.1649
 3111DOPG   C3B59195  17.653  23.436  15.678  0.0699 -0.2929 -0.1588
 3111DOPG   C4B59196  17.572  23.253  16.065  0.1833 -0.1908 -0.3009
 3112DOPG   GL059197   8.948  16.928  13.208  0.0062 -0.0904 -0.0112
 3112DOPG   PO459198   9.310  16.682  13.136  0.1581  0.1858  0.1964
 3112DOPG   GL159199   9.761  16.694  13.268  0.0553  0.1596  0.1236
 3112DOPG   GL259200   9.827  16.262  13.348  0.0493 -0.0263  0.0098
 3112DOPG   C1A59201   9.912  16.974  13.588  0.2396 -0.0328  0.2674
 3112DOPG   D2A59202   9.938  17.471  13.546 -0.0407  0.1713  0.1098
 3112DOPG   C3A59203   9.908  17.628  13.936 -0.1529  0.0032  0.1400
 3112DOPG   C4A59204   9.770  17.959  14.145  0.1761 -0.0978  0.0574
 3112DOPG   C1B59205   9.977  15.854  13.381 -0.1034 -0.1860  0.0464
 3112DOPG   D2B59206  10.373  15.579  13.562 -0.1751  0.1182  0.1694
 3112DOPG   C3B59207  10.665  15.365  13.239  0.0512  0.1010 -0.4103
 3112DOPG   C4B59208  11.063  15.575  13.042  0.0985  0.0640 -0.0471
 3113DOPG   GL059209  12.057  12.905  11.834  0.1528 -0.0474  0.1571
 3113DOPG   PO459210  11.636  12.987  11.677  0.2990  0.0730  0.0553
 3113DOPG   GL159211  11.876  13.338  11.977 -0.0339 -0.2406  0.3601
 3113DOPG   GL259212  12.152  13.387  11.809 -0.2218  0.3184  0.1009
 3113DOPG   C1A59213  11.948  13.695  12.383  0.0756  0.1569  0.1415
 3113DOPG   D2A59214  12.300  13.857  12.609 -0.0818 -0.1387  0.0375
 3113DOPG   C3A59215  12.230  13.885  13.048  0.0366  0.0610 -0.0362
 3113DOPG   C4A59216  12.282  14.156  13.367  0.3598  0.1860  0.0114
 3113DOPG   C1B59217  11.920  13.764  11.752 -0.0036  0.2197 -0.2216
 3113DOPG   D2B59218  11.940  14.213  11.840 -0.2463  0.3001  0.1864
 3113DOPG   C3B59219  11.644  14.239  12.129  0.2275  0.0960 -0.0440
 3113DOPG   C4B59220  11.857  14.143  12.467  0.0693  0.0327 -0.2241
 3114DOPG   GL059221   7.816  10.905  13.889  0.0942 -0.2288  0.0079
 3114DOPG   PO459222   8.089  11.043  13.663 -0.3380 -0.4126 -0.1006
 3114DOPG   GL159223   7.981  11.412  13.999  0.0143 -0.1487  0.0796
 3114DOPG   GL259224   8.346  11.400  13.902 -0.0535  0.1223  0.0049
 3114DOPG   C1A59225   7.976  11.721  14.292  0.0069  0.0009  0.0841
 3114DOPG   D2A59226   8.065  11.995  14.653 -0.0271  0.1693  0.2230
 3114DOPG   C3A59227   7.809  12.297  14.750  0.2003  0.2798  0.1266
 3114DOPG   C4A59228   7.717  12.793  14.765  0.3177  0.2731 -0.1436
 3114DOPG   C1B59229   8.497  11.640  14.344  0.1343  0.2444  0.0010
 3114DOPG   D2B59230   8.572  12.015  14.577 -0.1293 -0.4262 -0.3390
 3114DOPG   C3B59231   8.986  12.166  14.758  0.0672 -0.0670  0.0314
 3114DOPG   C4B59232   8.934  12.134  15.218  0.1943 -0.1205 -0.3390
 3115DOPG   GL059233  16.199  15.746  10.974  0.0684 -0.1436 -0.0130
 3115DOPG   PO459234  16.193  15.313  10.961  0.0972  0.0970 -0.0378
 3115DOPG   GL159235  16.104  15.109  11.403  0.1027 -0.2135  0.2467
 3115DOPG   GL259236  15.833  15.041  11.303 -0.2711 -0.0467 -0.0401
 3115DOPG   C1A59237  16.056  14.922  11.829  0.1050 -0.2295 -0.1709
 3115DOPG   D2A59238  15.885  14.620  12.140  0.4254  0.1091 -0.0173
 3115DOPG   C3A59239  15.837  14.613  12.561  0.2484 -0.2931 -0.0370
 3115DOPG   C4A59240  15.971  14.667  13.052 -0.2105  0.0758  0.0877
 3115DOPG   C1B59241  15.580  15.393  11.365  0.1176 -0.3291 -0.1057
 3115DOPG   D2B59242  15.268  15.721  11.548  0.1337 -0.1299 -0.0278
 3115DOPG   C3B59243  14.961  15.698  11.870  0.0761 -0.0463 -0.0546
 3115DOPG   C4B59244  14.744  15.532  12.151  0.0436 -0.0152 -0.1399
 3116DOPG   GL059245   7.163  15.780  13.678  0.0588 -0.1587 -0.0485
 3116DOPG   PO459246   7.469  15.799  13.950  0.2111 -0.1771  0.1405
 3116DOPG   GL159247   7.486  16.130  14.253  0.2418  0.0194 -0.0226
 3116DOPG   GL259248   7.276  16.345  14.390  0.0124 -0.1533 -0.1521
 3116DOPG   C1A59249   7.889  16.422  14.461  0.1700 -0.0463  0.2642
 3116DOPG   D2A59250   8.274  16.370  14.653  0.1490 -0.3377  0.1347
 3116DOPG   C3A59251   8.351  16.102  14.933  0.4675  0.0560  0.2489
 3116DOPG   C4A59252   8.383  15.774  15.360 -0.0450 -0.1319  0.0827
 3116DOPG   C1B59253   7.461  16.180  14.752 -0.1662  0.0590 -0.0211
 3116DOPG   D2B59254   7.268  16.069  15.037 -0.1460 -0.0757 -0.3252
 3116DOPG   C3B59255   7.581  16.074  15.373 -0.0678  0.3677  0.1245
 3116DOPG   C4B59256   8.110  16.202  15.438  0.1327 -0.1358  0.0621
 3117DOPG   GL059257  20.367  23.710  15.848 -0.0149 -0.1556  0.0394
 3117DOPG   PO459258  20.726  23.728  16.027 -0.1200  0.0097 -0.2920
 3117DOPG   GL159259  20.522  23.399  16.303  0.1677 -0.1543  0.1878
 3117DOPG   GL259260  20.246  23.296  16.145  0.1802 -0.0175  0.2086
 3117DOPG   C1A59261  20.495  23.054  16.528 -0.1225 -0.2726  0.0212
 3117DOPG   D2A59262  20.329  22.662  16.477 -0.1310 -0.2681  0.3357
 3117DOPG   C3A59263  20.740  22.379  16.615  0.0792 -0.0449 -0.2013
 3117DOPG   C4A59264  20.808  21.917  16.753 -0.1451  0.1510  0.3189
 3117DOPG   C1B59265  19.999  23.032  16.348  0.0476 -0.1437 -0.0724
 3117DOPG   D2B59266  19.583  22.942  16.458 -0.0376  0.0985 -0.0955
 3117DOPG   C3B59267  19.313  22.992  16.166  0.0745  0.3217  0.0482
 3117DOPG   C4B59268  19.126  22.687  15.914  0.0163  0.2112  0.1624
 3118DOPG   GL059269  18.058  24.230  15.993 -0.2924  0.0471  0.0461
 3118DOPG   PO459270  18.083  24.427  16.390 -0.0761 -0.1487 -0.2789
 3118DOPG   GL159271  17.962  23.986  16.441  0.0149 -0.1674 -0.1199
 3118DOPG   GL259272  18.293  23.726  16.423 -0.2057 -0.0472 -0.1598
 3118DOPG   C1A59273  17.787  23.543  16.502 -0.2685  0.2143  0.2338
 3118DOPG   D2A59274  17.459  23.349  16.622 -0.2485 -0.0335  0.1384
 3118DOPG   C3A59275  17.394  23.451  17.046  0.0679 -0.1549  0.1511
 3118DOPG   C4A59276  17.625  23.217  17.399 -0.1765  0.0459 -0.0211
 3118DOPG   C1B59277  18.250  23.766  16.804 -0.1186 -0.0681 -0.0813
 3118DOPG   D2B59278  17.851  23.594  17.003 -0.0903  0.3542  0.0394
 3118DOPG   C3B59279  17.727  23.089  16.964 -0.0587 -0.1071  0.2753
 3118DOPG   C4B59280  17.448  22.710  16.891  0.1033 -0.0370  0.3417
 3119DOPG   GL059281  25.309  22.910  15.894  0.2980 -0.0016 -0.2135
 3119DOPG   PO459282  25.049  22.631  15.715 -0.2204  0.2985  0.0982
 3119DOPG   GL159283  25.148  22.289  16.015  0.1809  0.4204  0.2382
 3119DOPG   GL259284  25.328  22.415  16.123 -0.2354 -0.4839  0.0403
 3119DOPG   C1A59285  25.257  21.942  15.814  0.2215 -0.0527  0.1053
 3119DOPG   D2A59286  25.459  21.644  15.468  0.1573 -0.1963  0.0876
 3119DOPG   C3A59287  25.224  21.406  15.387 -0.0564  0.0134 -0.0056
 3119DOPG   C4A59288  24.760  21.262  15.371 -0.0250  0.0004  0.0372
 3119DOPG   C1B59289  25.611  22.345  16.424 -0.3400  0.2010 -0.2272
 3119DOPG   D2B59290  25.950  22.111  16.656  0.2029  0.1103 -0.0259
 3119DOPG   C3B59291  25.715  21.817  16.721  0.2953  0.5159 -0.1700
 3119DOPG   C4B59292  25.520  21.469  16.675  0.1754 -0.0579  0.0866
 3120DOPG   GL059293   7.120  13.331  14.242 -0.0771  0.2265 -0.1679
 3120DOPG   PO459294   7.105  13.652  13.904  0.2156 -0.0564 -0.1693
 3120DOPG   GL159295   7.298  13.825  14.273  0.0058 -0.2990 -0.0255
 3120DOPG   GL259296   7.279  14.261  14.431 -0.1487 -0.1607  0.2995
 3120DOPG   C1A59297   7.620  13.958  14.540  0.0391  0.0143  0.1861
 3120DOPG   D2A59298   7.974  14.058  14.799 -0.3440 -0.1539  0.0607
 3120DOPG   C3A59299   8.447  14.030  14.845 -0.0085 -0.2800  0.0655
 3120DOPG   C4A59300   8.924  13.933  14.762  0.3466 -0.3456 -0.0733
 3120DOPG   C1B59301   7.766  14.418  14.432 -0.1741 -0.0232  0.0343
 3120DOPG   D2B59302   8.146  14.475  14.545 -0.0362 -0.0195  0.1244
 3120DOPG   C3B59303   8.370  14.517  14.975 -0.0071 -0.0978  0.4974
 3120DOPG   C4B59304   8.570  14.954  15.198  0.3521 -0.0536  0.2030
 3121DOPG   GL059305  10.197  24.810  14.026 -0.2594  0.3223 -0.1336
 3121DOPG   PO459306   9.982  24.350  13.850  0.1327  0.2650  0.0664
 3121DOPG   GL159307  10.119  23.997  14.137 -0.2353  0.1776 -0.0694
 3121DOPG   GL259308   9.876  23.994  14.424 -0.1643  0.0611 -0.2455
 3121DOPG   C1A59309  10.439  23.667  14.352 -0.1006 -0.0345  0.0765
 3121DOPG   D2A59310  10.894  23.695  14.444  0.0402  0.3949  0.0383
 3121DOPG   C3A59311  11.091  23.902  14.748 -0.1256 -0.0923 -0.2433
 3121DOPG   C4A59312  11.313  24.044  15.057 -0.1513  0.1363 -0.0395
 3121DOPG   C1B59313   9.957  23.550  14.493 -0.4360 -0.2243 -0.0212
 3121DOPG   D2B59314   9.705  23.234  14.716  0.1430  0.2644 -0.5387
 3121DOPG   C3B59315   9.738  23.146  15.166  0.2210 -0.3163 -0.3443
 3121DOPG   C4B59316   9.775  22.766  15.181  0.1567  0.1445 -0.0235
 3122DOPG   GL059317  21.231  22.197  13.166  0.1671  0.2392 -0.1730
 3122DOPG   PO459318  21.681  22.206  13.463  0.4254  0.2840 -0.0414
 3122DOPG   GL159319  21.424  21.923  13.806 -0.0085  0.1382  0.0733
 3122DOPG   GL259320  21.324  21.685  13.526  0.1529  0.2265 -0.4830
 3122DOPG   C1A59321  21.153  21.955  14.183  0.3593 -0.0538 -0.1069
 3122DOPG   D2A59322  20.787  21.998  14.572  0.0597 -0.0948 -0.0212
 3122DOPG   C3A59323  20.399  21.842  14.497  0.0060  0.2247  0.0608
 3122DOPG   C4A59324  20.062  21.593  14.732 -0.0907  0.3359  0.1159
 3122DOPG   C1B59325  21.595  21.405  13.701 -0.0552  0.1335  0.2724
 3122DOPG   D2B59326  21.919  21.198  13.859  0.0268  0.1137 -0.0719
 3122DOPG   C3B59327  21.929  20.900  14.165 -0.4384 -0.2396 -0.0049
 3122DOPG   C4B59328  21.501  20.713  14.260  0.1123  0.2830 -0.0406
 3123DOPG   GL059329  13.972  23.313  12.692  0.1029  0.0617 -0.2383
 3123DOPG   PO459330  13.896  23.045  13.017  0.2843  0.0859  0.0138
 3123DOPG   GL159331  13.773  22.640  13.114  0.1014 -0.0325  0.1063
 3123DOPG   GL259332  13.806  22.286  12.978 -0.0019  0.2944 -0.2330
 3123DOPG   C1A59333  13.702  22.431  13.520 -0.1438  0.1250 -0.1871
 3123DOPG   D2A59334  13.607  22.352  13.938 -0.0973  0.1079  0.3918
 3123DOPG   C3A59335  13.399  22.192  14.227 -0.1846 -0.4110  0.2513
 3123DOPG   C4A59336  13.040  22.290  14.462  0.1424 -0.2640  0.1099
 3123DOPG   C1B59337  14.224  22.005  13.133  0.2055 -0.3105  0.1494
 3123DOPG   D2B59338  14.393  21.774  13.434  0.2032  0.3211  0.0171
 3123DOPG   C3B59339  14.168  21.703  13.826 -0.2329 -0.2595  0.2691
 3123DOPG   C4B59340  13.926  21.979  14.106 -0.0196 -0.0901 -0.0735
 3124DOPG   GL059341  23.112  18.475  13.697 -0.0101 -0.2476  0.1080
 3124DOPG   PO459342  22.957  18.471  13.297  0.0898  0.1728 -0.3074
 3124DOPG   GL159343  22.507  18.389  13.490  0.2734 -0.0375  0.0622
 3124DOPG   GL259344  22.276  18.320  13.328  0.2792 -0.0599 -0.1192
 3124DOPG   C1A59345  22.294  18.437  13.964 -0.0434  0.3227  0.1379
 3124DOPG   D2A59346  22.016  18.665  14.072 -0.0122 -0.1314  0.1986
 3124DOPG   C3A59347  22.140  19.032  14.187 -0.2039  0.1029 -0.4122
 3124DOPG   C4A59348  22.417  19.264  14.413  0.3784  0.1264  0.6904
 3124DOPG   C1B59349  21.936  18.475  13.626  0.5386 -0.3024 -0.0188
 3124DOPG   D2B59350  21.475  18.549  13.760  0.1548 -0.0272 -0.0932
 3124DOPG   C3B59351  21.529  18.682  14.127  0.0314  0.0057  0.0852
 3124DOPG   C4B59352  21.790  18.663  14.468  0.0275  0.3416 -0.0970
 3125DOPG   GL059353  19.827  12.176  14.192  0.0709 -0.0920  0.2907
 3125DOPG   PO459354  20.276  12.181  14.174  0.1277 -0.0412  0.1159
 3125DOPG   GL159355  20.107  12.443  14.544  0.4055  0.0344  0.1713
 3125DOPG   GL259356  20.205  12.810  14.392 -0.2286 -0.0723 -0.0286
 3125DOPG   C1A59357  20.199  12.732  14.887  0.3310  0.1256 -0.2181
 3125DOPG   D2A59358  20.480  12.928  15.215  0.4075  0.1523  0.0724
 3125DOPG   C3A59359  20.352  13.325  15.260 -0.2789  0.0704  0.2205
 3125DOPG   C4A59360  20.230  13.832  15.382 -0.1790 -0.2871  0.0537
 3125DOPG   C1B59361  20.056  13.160  14.657 -0.3643 -0.0350 -0.3174
 3125DOPG   D2B59362  19.864  13.105  15.066 -0.0859 -0.1267 -0.0992
 3125DOPG   C3B59363  19.470  13.056  15.309 -0.2053 -0.2252 -0.4578
 3125DOPG   C4B59364  19.371  12.788  15.705 -0.0195 -0.1704 -0.2526
 3126DOPG   GL059365   9.079  17.821  12.941  0.2007  0.0741  0.2555
 3126DOPG   PO459366   9.137  18.209  13.203  0.4729 -0.0344 -0.0913
 3126DOPG   GL159367   9.270  18.331  13.582 -0.1519  0.4157 -0.1800
 3126DOPG   GL259368   9.388  18.633  13.717  0.4116 -0.1361 -0.1756
 3126DOPG   C1A59369   9.313  18.197  13.990 -0.1387 -0.4414  0.1001
 3126DOPG   D2A59370   9.495  18.382  14.366 -0.2398 -0.1551 -0.0919
 3126DOPG   C3A59371   9.743  18.684  14.597 -0.0778  0.1170 -0.0563
 3126DOPG   C4A59372   9.791  18.825  15.038  0.1820 -0.0443  0.2624
 3126DOPG   C1B59373   9.706  18.508  13.968  0.0792  0.0701  0.0610
 3126DOPG   D2B59374   9.993  18.475  14.247 -0.0612  0.1691 -0.3216
 3126DOPG   C3B59375   9.959  18.178  14.575  0.1756  0.1641  0.1127
 3126DOPG   C4B59376  10.003  17.777  14.579 -0.3928  0.2909 -0.0271
 3127DOPG   GL059377  24.008  22.406  13.964 -0.0456 -0.2521 -0.0667
 3127DOPG   PO459378  24.071  22.203  13.687  0.3055 -0.0493 -0.1562
 3127DOPG   GL159379  24.044  21.771  13.736  0.2634  0.0992  0.0639
 3127DOPG   GL259380  23.967  21.640  14.010 -0.1224  0.3380  0.0855
 3127DOPG   C1A59381  24.224  21.297  13.869 -0.1948  0.3770 -0.0856
 3127DOPG   D2A59382  24.222  21.101  14.325  0.0364  0.0064 -0.0044
 3127DOPG   C3A59383  24.358  20.773  14.648 -0.1413 -0.2461  0.1750
 3127DOPG   C4A59384  24.261  20.520  14.982  0.0108  0.1028  0.0740
 3127DOPG   C1B59385  23.741  21.381  14.244  0.0902  0.4134 -0.0778
 3127DOPG   D2B59386  23.647  20.990  14.469  0.0005 -0.2061 -0.1858
 3127DOPG   C3B59387  23.928  20.670  14.305 -0.0052 -0.1388  0.2061
 3127DOPG   C4B59388  23.826  20.220  14.240  0.1727  0.3740 -0.2762
 3128DOPG   GL059389  20.139  23.749  14.854 -0.1065  0.1268  0.0869
 3128DOPG   PO459390  20.144  23.399  14.794  0.1206 -0.0590 -0.0064
 3128DOPG   GL159391  20.026  23.289  15.158 -0.1361  0.1410  0.0590
 3128DOPG   GL259392  20.078  23.333  15.640  0.2500 -0.2999 -0.0525
 3128DOPG   C1A59393  19.934  22.950  15.318 -0.0272  0.1577  0.0609
 3128DOPG   D2A59394  19.573  22.680  15.411  0.2812  0.4349 -0.0352
 3128DOPG   C3A59395  19.206  22.446  15.442 -0.0245 -0.0027  0.0468
 3128DOPG   C4A59396  18.757  22.196  15.538  0.0151 -0.1917 -0.1119
 3128DOPG   C1B59397  19.785  23.099  15.865  0.5547  0.0978 -0.1589
 3128DOPG   D2B59398  19.645  22.634  16.025 -0.0328 -0.1761 -0.1497
 3128DOPG   C3B59399  19.522  22.315  15.800 -0.3523  0.2803  0.0120
 3128DOPG   C4B59400  19.701  22.057  15.573  0.2014 -0.0890 -0.1543
 3129DOPG   GL059401  10.642  12.242  12.131 -0.0267 -0.0698 -0.0891
 3129DOPG   PO459402  10.180  12.056  12.334 -0.1606  0.1107 -0.0928
 3129DOPG   GL159403  10.418  12.310  12.549 -0.1041  0.2119  0.2849
 3129DOPG   GL259404  10.645  12.573  12.475 -0.0610  0.0623 -0.1074
 3129DOPG   C1A59405  10.623  12.216  12.993 -0.0652  0.0571 -0.0735
 3129DOPG   D2A59406  10.896  12.415  13.226 -0.1158 -0.1867  0.1372
 3129DOPG   C3A59407  11.102  12.754  13.481  0.0964  0.3923  0.3327
 3129DOPG   C4A59408  11.318  12.949  13.680 -0.3263  0.1475  0.1165
 3129DOPG   C1B59409  10.856  12.794  12.749  0.3107  0.1839 -0.1565
 3129DOPG   D2B59410  10.807  13.198  13.019  0.2226  0.3682  0.3249
 3129DOPG   C3B59411  10.435  13.155  13.190  0.1947 -0.1121 -0.1955
 3129DOPG   C4B59412  10.126  12.832  13.521  0.2185 -0.1635 -0.0434
 3130DOPG   GL059413  20.554  14.364  12.998  0.0127  0.0628 -0.0042
 3130DOPG   PO459414  20.210  14.061  12.957  0.2317  0.3467 -0.2183
 3130DOPG   GL159415  19.963  13.756  13.216 -0.0020  0.1840 -0.0483
 3130DOPG   GL259416  20.276  13.595  13.411 -0.1198  0.0690 -0.1545
 3130DOPG   C1A59417  19.505  13.794  13.265  0.0808  0.0956  0.5883
 3130DOPG   D2A59418  19.285  14.173  13.447 -0.1427  0.1875 -0.0427
 3130DOPG   C3A59419  19.075  14.388  13.249 -0.1155  0.0326  0.0065
 3130DOPG   C4A59420  18.746  14.567  13.245  0.1162  0.4394  0.0467
 3130DOPG   C1B59421  19.817  13.478  13.548  0.2340 -0.2916  0.1277
 3130DOPG   D2B59422  19.486  13.551  13.940  0.1307 -0.1819 -0.3505
 3130DOPG   C3B59423  19.108  13.672  14.103 -0.0008 -0.0772  0.1171
 3130DOPG   C4B59424  19.070  14.131  14.040  0.0943  0.0554  0.0864
 3131DOPG   GL059425  17.800   9.979  14.146 -0.2259  0.1975 -0.0998
 3131DOPG   PO459426  18.195  10.284  14.256  0.1554 -0.3548  0.1460
 3131DOPG   GL159427  17.938  10.722  14.288 -0.1308  0.1420  0.5074
 3131DOPG   GL259428  17.913  10.981  14.504 -0.0539 -0.1219 -0.0075
 3131DOPG   C1A59429  17.475  10.761  14.389  0.0393 -0.0318  0.1559
 3131DOPG   D2A59430  17.385  11.073  14.701  0.2460  0.3059 -0.0166
 3131DOPG   C3A59431  17.615  11.298  14.907 -0.0679  0.3131 -0.0228
 3131DOPG   C4A59432  17.535  11.663  15.217 -0.2951 -0.0694 -0.4759
 3131DOPG   C1B59433  18.097  11.209  14.796  0.3522 -0.3326  0.0141
 3131DOPG   D2B59434  18.021  11.546  15.060  0.0233  0.4062  0.0725
 3131DOPG   C3B59435  18.195  11.855  14.845 -0.2397  0.1205  0.0214
 3131DOPG   C4B59436  18.606  11.836  14.456  0.0556 -0.0185  0.2159
 3132DOPG   GL059437   8.952  12.319  12.841 -0.4093 -0.2706  0.1146
 3132DOPG   PO459438   8.977  11.988  12.721 -0.0504  0.2445  0.2342
 3132DOPG   GL159439   9.060  11.987  13.200 -0.1225 -0.0097  0.1859
 3132DOPG   GL259440   8.856  12.167  13.322 -0.2848 -0.3263 -0.3074
 3132DOPG   C1A59441   9.296  11.916  13.550  0.3297 -0.3317 -0.0913
 3132DOPG   D2A59442   9.474  12.091  13.964 -0.0395 -0.0207 -0.0072
 3132DOPG   C3A59443   9.869  11.980  14.149 -0.1331  0.1274 -0.2699
 3132DOPG   C4A59444   9.977  12.231  14.456 -0.1466 -0.2730  0.1740
 3132DOPG   C1B59445   8.987  12.330  13.649 -0.2284 -0.1899  0.5694
 3132DOPG   D2B59446   9.118  12.675  14.030  0.3339 -0.0079  0.1793
 3132DOPG   C3B59447   9.072  13.122  13.928  0.6465 -0.0845 -0.1912
 3132DOPG   C4B59448   9.191  13.497  13.722 -0.3899  0.2002 -0.0213
 3133DOPG   GL059449  20.656  14.140  12.216  0.1582 -0.1541 -0.2736
 3133DOPG   PO459450  20.319  14.406  12.444 -0.0167  0.0150  0.2531
 3133DOPG   GL159451  20.038  14.546  12.758  0.1658 -0.0922 -0.0160
 3133DOPG   GL259452  19.697  14.697  12.850 -0.0076  0.1691  0.2481
 3133DOPG   C1A59453  20.107  14.764  13.162 -0.0954  0.0642 -0.4752
 3133DOPG   D2A59454  20.116  15.191  13.222 -0.3677  0.1305 -0.2737
 3133DOPG   C3A59455  20.042  15.458  12.780 -0.0848 -0.0263  0.0127
 3133DOPG   C4A59456  19.927  15.792  12.498 -0.0983 -0.0058  0.0523
 3133DOPG   C1B59457  19.300  14.771  12.969  0.0458 -0.0662  0.0066
 3133DOPG   D2B59458  19.065  15.108  13.044 -0.0396  0.0083 -0.0207
 3133DOPG   C3B59459  18.872  15.063  13.414  0.0070  0.1235  0.3857
 3133DOPG   C4B59460  18.777  14.761  13.768 -0.0238 -0.0651 -0.1656
 3134DOPG   GL059461  20.456  14.936  11.401  0.0370  0.1683  0.2462
 3134DOPG   PO459462  20.082  14.990  11.570  0.2701  0.1766 -0.1884
 3134DOPG   GL159463  19.866  15.081  11.992  0.3388  0.3203 -0.0753
 3134DOPG   GL259464  19.592  15.015  11.945  0.0957 -0.0877  0.0927
 3134DOPG   C1A59465  19.761  15.309  12.332 -0.1197  0.0092  0.0854
 3134DOPG   D2A59466  19.445  15.667  12.441  0.2614 -0.0217 -0.0909
 3134DOPG   C3A59467  19.524  15.763  12.903  0.1030 -0.4683  0.0676
 3134DOPG   C4A59468  19.440  15.830  13.226  0.0991 -0.1919  0.1192
 3134DOPG   C1B59469  19.531  14.811  12.417  0.1099  0.2992 -0.1615
 3134DOPG   D2B59470  19.470  15.163  12.705 -0.1699 -0.0362 -0.0709
 3134DOPG   C3B59471  19.594  15.199  13.161  0.0155  0.1163 -0.4396
 3134DOPG   C4B59472  19.322  15.356  13.468 -0.0325 -0.1829  0.1027
 3135DOPG   GL059473  17.258   8.227  16.700  0.0407 -0.4036  0.0536
 3135DOPG   PO459474  17.267   8.468  17.109 -0.2774  0.1199  0.0013
 3135DOPG   GL159475  16.923   8.844  17.121 -0.0142 -0.1578 -0.2082
 3135DOPG   GL259476  17.048   9.088  17.070 -0.0788 -0.0178 -0.1517
 3135DOPG   C1A59477  16.557   9.023  17.010 -0.2912 -0.0919 -0.4855
 3135DOPG   D2A59478  16.096   8.988  17.031  0.2170  0.0967  0.0627
 3135DOPG   C3A59479  15.937   9.384  16.880  0.0405  0.1467 -0.1006
 3135DOPG   C4A59480  15.702   9.856  16.850 -0.0481 -0.1211  0.4235
 3135DOPG   C1B59481  17.022   9.353  16.857  0.2350  0.1543 -0.0718
 3135DOPG   D2B59482  17.049   9.832  17.062  0.2723 -0.2144 -0.0009
 3135DOPG   C3B59483  17.308   9.980  17.456  0.2268 -0.1810  0.6856
 3135DOPG   C4B59484  17.749  10.088  17.483 -0.1939  0.0888  0.1501
 3136DOPG   GL059485  10.279   7.251  18.395  0.1177  0.0745  0.1385
 3136DOPG   PO459486   9.831   7.378  18.659 -0.2198  0.1014  0.0644
 3136DOPG   GL159487   9.677   7.707  18.414  0.1709  0.1247  0.2174
 3136DOPG   GL259488   9.909   7.661  18.204 -0.0697 -0.0027  0.1188
 3136DOPG   C1A59489   9.500   8.083  18.234  0.0073  0.2589  0.1452
 3136DOPG   D2A59490   9.588   8.406  17.884 -0.0521  0.0639  0.0757
 3136DOPG   C3A59491   9.594   8.825  17.849 -0.1608 -0.3511  0.0608
 3136DOPG   C4A59492   9.937   9.004  18.012  0.0258 -0.1018 -0.1051
 3136DOPG   C1B59493  10.002   8.090  18.309  0.3253  0.2258 -0.3122
 3136DOPG   D2B59494   9.865   8.573  18.387  0.1010  0.1334  0.0727
 3136DOPG   C3B59495  10.096   8.877  18.455  0.1596  0.0012 -0.3027
 3136DOPG   C4B59496  10.182   9.116  18.872  0.0212 -0.2185 -0.1496
 3137DOPG   GL059497  23.585  15.752  14.177 -0.1703 -0.0337  0.1880
 3137DOPG   PO459498  23.860  16.192  14.158  0.0744 -0.2692 -0.2347
 3137DOPG   GL159499  23.480  16.172  14.451 -0.0932 -0.1530 -0.1149
 3137DOPG   GL259500  23.408  15.930  14.618  0.0092  0.0547  0.1556
 3137DOPG   C1A59501  23.192  16.444  14.527 -0.1475  0.2525 -0.0347
 3137DOPG   D2A59502  23.143  16.884  14.550  0.0821  0.0161 -0.0780
 3137DOPG   C3A59503  23.359  17.218  14.609  0.1348  0.3976  0.2423
 3137DOPG   C4A59504  23.475  17.520  14.955 -0.2564  0.0471  0.0549
 3137DOPG   C1B59505  23.622  16.201  14.921 -0.2776  0.1392 -0.4231
 3137DOPG   D2B59506  23.656  16.499  15.243  0.0751  0.3774  0.0660
 3137DOPG   C3B59507  23.534  16.881  14.988  0.0116 -0.2173  0.1675
 3137DOPG   C4B59508  23.152  17.035  15.090  0.2323 -0.2910  0.3314
 3138DOPG   GL059509  17.210  20.666  11.724  0.3571  0.1059  0.1248
 3138DOPG   PO459510  17.605  20.651  12.003  0.2937  0.1442  0.2793
 3138DOPG   GL159511  17.517  20.372  12.298  0.2685 -0.1988 -0.0445
 3138DOPG   GL259512  17.794  20.455  12.479 -0.0160  0.1414  0.1757
 3138DOPG   C1A59513  17.196  20.040  12.427  0.0600 -0.3221  0.0457
 3138DOPG   D2A59514  17.332  19.744  12.852  0.0978  0.0634 -0.1983
 3138DOPG   C3A59515  17.147  19.792  13.293  0.0461  0.0264  0.2175
 3138DOPG   C4A59516  17.081  19.702  13.675 -0.1839 -0.1615  0.0861
 3138DOPG   C1B59517  17.675  20.059  12.693 -0.0166 -0.1315  0.0808
 3138DOPG   D2B59518  17.743  19.668  12.539 -0.1357  0.1784 -0.0102
 3138DOPG   C3B59519  17.449  19.630  12.226  0.0438  0.1669  0.0561
 3138DOPG   C4B59520  16.993  19.733  12.080  0.0693  0.1533  0.0844
 3139DOPG   GL059521  10.778  11.254  12.001 -0.1504  0.1076 -0.1112
 3139DOPG   PO459522  10.408  11.284  12.339 -0.3929 -0.1590  0.2149
 3139DOPG   GL159523  10.482  11.735  12.585  0.0655 -0.0901 -0.0920
 3139DOPG   GL259524  10.710  11.859  12.605  0.0558  0.3148 -0.1530
 3139DOPG   C1A59525  10.353  11.807  12.977 -0.3923  0.0485 -0.1024
 3139DOPG   D2A59526  10.587  11.832  13.400 -0.1297 -0.0521  0.2376
 3139DOPG   C3A59527  10.382  12.050  13.841 -0.2837 -0.1867 -0.0147
 3139DOPG   C4A59528  10.481  12.146  14.270  0.1379 -0.3691  0.0620
 3139DOPG   C1B59529  10.912  11.747  13.003 -0.3301 -0.3199 -0.1027
 3139DOPG   D2B59530  10.924  11.478  13.295 -0.3817 -0.0069 -0.0654
 3139DOPG   C3B59531  10.831  11.429  13.778 -0.2106  0.2139 -0.2159
 3139DOPG   C4B59532  11.092  11.460  14.177  0.0521  0.0929  0.3248
 3140DOPG   GL059533  19.137   9.538  16.171 -0.2583  0.0452  0.1436
 3140DOPG   PO459534  19.045   9.913  16.080  0.0686 -0.1312  0.4471
 3140DOPG   GL159535  18.913  10.303  16.121 -0.0072 -0.2236 -0.1153
 3140DOPG   GL259536  18.858  10.317  15.810  0.1022 -0.0351  0.0898
 3140DOPG   C1A59537  18.639  10.729  15.993 -0.0109  0.0599  0.0310
 3140DOPG   D2A59538  18.525  11.158  15.970  0.1135  0.1395  0.1476
 3140DOPG   C3A59539  18.537  11.580  15.759 -0.4545 -0.3895 -0.1970
 3140DOPG   C4A59540  18.355  11.885  15.425 -0.0234 -0.2233  0.0193
 3140DOPG   C1B59541  18.523  10.397  15.519 -0.1753 -0.1522 -0.1043
 3140DOPG   D2B59542  18.302  10.844  15.432 -0.0316  0.0491 -0.4572
 3140DOPG   C3B59543  17.839  10.814  15.609 -0.0359  0.1925 -0.0217
 3140DOPG   C4B59544  17.578  10.934  15.929 -0.0504 -0.0199  0.0821
 3141DOPG   GL059545  14.418  22.142  12.173 -0.1625  0.1786  0.1167
 3141DOPG   PO459546  14.731  22.363  12.363  0.1824  0.3733 -0.2427
 3141DOPG   GL159547  14.810  22.279  12.913 -0.2812 -0.1501 -0.1091
 3141DOPG   GL259548  14.744  22.495  13.225 -0.3079 -0.4956 -0.1063
 3141DOPG   C1A59549  14.809  21.931  13.129  0.0727  0.0480 -0.1261
 3141DOPG   D2A59550  15.114  21.781  13.484  0.0647  0.2142 -0.0694
 3141DOPG   C3A59551  15.270  21.410  13.693 -0.0118 -0.2103  0.1187
 3141DOPG   C4A59552  15.565  21.382  14.087 -0.1106 -0.1693  0.1361
 3141DOPG   C1B59553  14.619  22.675  13.595  0.0651 -0.3574  0.1727
 3141DOPG   D2B59554  14.542  22.657  14.072 -0.1112 -0.2550  0.1022
 3141DOPG   C3B59555  14.324  22.740  14.498  0.1519  0.2306 -0.1873
 3141DOPG   C4B59556  14.266  22.909  15.064  0.0958 -0.1901  0.0602
 3142DOPG   GL059557   6.659  10.063  17.152 -0.2736 -0.1683  0.0313
 3142DOPG   PO459558   6.967   9.953  17.431 -0.0490  0.0878  0.1803
 3142DOPG   GL159559   7.161  10.154  17.152 -0.0821  0.2513  0.1738
 3142DOPG   GL259560   7.352  10.167  16.761 -0.1372  0.2393 -0.1062
 3142DOPG   C1A59561   7.305  10.587  17.106 -0.3015  0.1046 -0.0562
 3142DOPG   D2A59562   7.077  10.895  16.839 -0.1812  0.1831  0.0584
 3142DOPG   C3A59563   7.450  11.057  16.781 -0.1289 -0.0644  0.2557
 3142DOPG   C4A59564   7.803  11.356  16.738  0.1504 -0.1573 -0.0194
 3142DOPG   C1B59565   7.471  10.318  16.483 -0.1638 -0.1170 -0.2094
 3142DOPG   D2B59566   7.791  10.622  16.296  0.0100 -0.3660 -0.2121
 3142DOPG   C3B59567   8.042  10.961  16.483 -0.0102  0.0658 -0.1469
 3142DOPG   C4B59568   8.265  11.210  16.770  0.0180 -0.0312  0.0625
 3143DOPG   GL059569   8.035  18.879  13.318  0.0096 -0.2051 -0.3231
 3143DOPG   PO459570   8.026  18.780  13.702  0.1731  0.1394 -0.1249
 3143DOPG   GL159571   7.903  18.641  14.114 -0.2808 -0.0086  0.1605
 3143DOPG   GL259572   7.735  18.861  14.225  0.5055 -0.1484  0.1792
 3143DOPG   C1A59573   8.063  18.434  14.519 -0.2455  0.1050 -0.0819
 3143DOPG   D2A59574   8.076  18.513  15.006  0.1105  0.1813  0.2708
 3143DOPG   C3A59575   8.348  18.808  15.204 -0.0173  0.1974  0.1468
 3143DOPG   C4A59576   8.586  19.208  15.465  0.2477  0.0407 -0.1942
 3143DOPG   C1B59577   7.684  19.251  14.340 -0.2774 -0.0413 -0.0595
 3143DOPG   D2B59578   7.780  19.681  14.402  0.2223 -0.1101 -0.2720
 3143DOPG   C3B59579   7.761  19.848  14.818  0.2306  0.1383 -0.3262
 3143DOPG   C4B59580   7.651  20.184  14.847  0.1395  0.0599  0.1443
 3144DOPG   GL059581   9.691  19.485  12.690  0.0354 -0.1014  0.0459
 3144DOPG   PO459582   9.291  19.583  12.924  0.1450  0.2083  0.1625
 3144DOPG   GL159583   9.403  19.580  13.374 -0.1038 -0.1225 -0.2255
 3144DOPG   GL259584   9.730  19.769  13.324  0.6589  0.1763  0.2153
 3144DOPG   C1A59585   9.598  19.601  13.840 -0.2808 -0.2971 -0.0072
 3144DOPG   D2A59586   9.867  19.481  14.239  0.0957  0.0355  0.2340
 3144DOPG   C3A59587   9.666  19.273  14.551  0.2475 -0.1501 -0.2368
 3144DOPG   C4A59588   9.348  19.484  14.753  0.0626 -0.0501  0.0175
 3144DOPG   C1B59589  10.006  19.858  13.732  0.2648 -0.0297 -0.0812
 3144DOPG   D2B59590  10.072  19.990  14.124 -0.2214 -0.0748  0.1768
 3144DOPG   C3B59591  10.203  19.842  14.522 -0.1898 -0.2584 -0.0691
 3144DOPG   C4B59592  10.269  19.922  14.902 -0.0807 -0.1138 -0.0938
 3145DOPG   GL059593  12.706  20.619  11.057  0.0925 -0.1337  0.0830
 3145DOPG   PO459594  12.868  20.452  11.384 -0.3056 -0.0803 -0.0139
 3145DOPG   GL159595  12.655  20.390  11.812 -0.1101  0.2047 -0.1693
 3145DOPG   GL259596  12.576  20.120  11.794 -0.2435  0.2318 -0.3076
 3145DOPG   C1A59597  12.627  20.526  12.171  0.2187 -0.1046  0.0018
 3145DOPG   D2A59598  12.824  20.706  12.525  0.2677  0.2445  0.0168
 3145DOPG   C3A59599  12.801  20.676  12.897 -0.0570 -0.2888  0.1528
 3145DOPG   C4A59600  12.869  20.593  13.244 -0.1750  0.0305 -0.0435
 3145DOPG   C1B59601  12.345  20.137  12.135  0.0966  0.2264  0.0925
 3145DOPG   D2B59602  12.178  20.418  12.348 -0.0492  0.0053 -0.1366
 3145DOPG   C3B59603  12.337  20.676  12.637  0.1469  0.0857  0.0315
 3145DOPG   C4B59604  12.073  20.944  12.836 -0.0671  0.0295 -0.0414
 3146DOPG   GL059605   8.901  21.552  13.154 -0.1174 -0.0940 -0.2687
 3146DOPG   PO459606   8.869  21.159  13.275  0.1184 -0.0048 -0.0207
 3146DOPG   GL159607   8.956  21.180  13.700  0.0999  0.0723  0.0823
 3146DOPG   GL259608   9.288  21.359  13.661  0.3715 -0.0401  0.2966
 3146DOPG   C1A59609   8.731  21.117  14.105 -0.2333  0.1656 -0.0039
 3146DOPG   D2A59610   8.867  20.937  14.544  0.2283 -0.2622  0.2213
 3146DOPG   C3A59611   8.865  21.141  14.952  0.0638  0.0036  0.0498
 3146DOPG   C4A59612   9.226  21.160  15.289 -0.2218  0.4101  0.1882
 3146DOPG   C1B59613   9.661  21.258  13.852  0.0385 -0.2598  0.1400
 3146DOPG   D2B59614  10.059  21.434  13.936 -0.1494  0.1951  0.1009
 3146DOPG   C3B59615  10.095  21.746  14.299 -0.0610 -0.2356 -0.2236
 3146DOPG   C4B59616  10.195  21.906  14.623 -0.1300  0.4476 -0.0486
 3147DOPG   GL059617  23.367  15.421  13.807 -0.0056 -0.1002  0.0624
 3147DOPG   PO459618  22.981  15.361  13.956  0.2512  0.1149 -0.3247
 3147DOPG   GL159619  23.060  15.460  14.486  0.1040 -0.0015 -0.3291
 3147DOPG   GL259620  22.907  15.837  14.587 -0.0337  0.1483  0.0596
 3147DOPG   C1A59621  22.998  15.617  14.962 -0.1217 -0.0157 -0.3468
 3147DOPG   D2A59622  22.996  15.578  15.346 -0.1922  0.0605  0.2067
 3147DOPG   C3A59623  22.559  15.724  15.517  0.1879 -0.0470 -0.1401
 3147DOPG   C4A59624  22.140  15.917  15.543 -0.0514 -0.0020 -0.1766
 3147DOPG   C1B59625  22.761  16.072  14.911  0.0987  0.0661  0.1320
 3147DOPG   D2B59626  22.591  16.331  15.352 -0.2794 -0.3241  0.2873
 3147DOPG   C3B59627  22.336  16.656  15.414 -0.0020  0.0414  0.1173
 3147DOPG   C4B59628  22.205  16.894  15.139  0.1928 -0.0072 -0.2479
 3148DOPG   GL059629   5.961  11.322  15.893 -0.4562 -0.0699  0.1853
 3148DOPG   PO459630   6.130  11.052  16.156  0.1084  0.2527 -0.1951
 3148DOPG   GL159631   6.453  11.172  16.401 -0.5373 -0.0471  0.0013
 3148DOPG   GL259632   6.522  11.471  16.420  0.0347  0.0662  0.3462
 3148DOPG   C1A59633   6.618  11.019  16.752 -0.0398  0.0182  0.0424
 3148DOPG   D2A59634   6.894  11.354  16.817  0.0790 -0.0056 -0.2174
 3148DOPG   C3A59635   6.744  11.563  17.138  0.0493 -0.0249 -0.1813
 3148DOPG   C4A59636   6.684  11.752  17.580  0.0237 -0.0078 -0.0752
 3148DOPG   C1B59637   6.726  11.814  16.466 -0.2654 -0.1799 -0.2642
 3148DOPG   D2B59638   6.917  11.926  16.800 -0.1295  0.1355 -0.2604
 3148DOPG   C3B59639   7.204  12.296  16.875  0.4830  0.1861 -0.1779
 3148DOPG   C4B59640   7.116  12.539  17.182 -0.3910  0.2876 -0.1401
 3149DOPG   GL059641  17.594  17.088  10.864  0.0961 -0.0712  0.2746
 3149DOPG   PO459642  17.914  17.249  10.768  0.3601  0.1844  0.1307
 3149DOPG   GL159643  18.052  17.276  11.157 -0.1166  0.1340  0.0485
 3149DOPG   GL259644  17.893  16.964  11.259  0.1588 -0.0352 -0.0136
 3149DOPG   C1A59645  17.982  17.534  11.472 -0.1590 -0.3917 -0.1295
 3149DOPG   D2A59646  17.814  18.034  11.560 -0.1474 -0.0975  0.1810
 3149DOPG   C3A59647  18.203  18.138  11.769 -0.2272 -0.0079 -0.3354
 3149DOPG   C4A59648  18.235  18.176  12.206 -0.0431  0.2093 -0.0739
 3149DOPG   C1B59649  17.665  17.198  11.604  0.3362 -0.3370  0.3537
 3149DOPG   D2B59650  17.878  17.330  11.993 -0.2030 -0.0537 -0.1107
 3149DOPG   C3B59651  17.977  17.448  12.353 -0.5293 -0.0212  0.1099
 3149DOPG   C4B59652  17.905  17.210  12.736 -0.1371 -0.1465  0.0164
 3150DOPG   GL059653  23.445  18.710  13.365  0.1010 -0.0410  0.0735
 3150DOPG   PO459654  23.677  19.138  13.308  0.0199  0.1216  0.1682
 3150DOPG   GL159655  23.603  19.135  13.776  0.3034 -0.0172  0.1905
 3150DOPG   GL259656  23.357  18.945  13.841 -0.3567  0.0102 -0.0158
 3150DOPG   C1A59657  23.724  19.017  14.257  0.0042 -0.0302 -0.0419
 3150DOPG   D2A59658  24.028  19.186  14.553  0.1472 -0.0906  0.2707
 3150DOPG   C3A59659  24.526  19.076  14.407 -0.1229 -0.6201 -0.3248
 3150DOPG   C4A59660  24.973  19.093  14.396 -0.0442 -0.0282  0.1256
 3150DOPG   C1B59661  23.460  18.597  14.150 -0.0526  0.0168  0.0566
 3150DOPG   D2B59662  23.185  18.306  14.460  0.4136  0.0269  0.2464
 3150DOPG   C3B59663  22.682  18.315  14.579  0.0055 -0.0181 -0.3577
 3150DOPG   C4B59664  22.374  18.051  14.797 -0.0777 -0.3090  0.2235
 3151DOPG   GL059665  12.265  17.208  10.857  0.2989  0.0611 -0.0957
 3151DOPG   PO459666  12.650  17.257  11.061 -0.3135 -0.0854 -0.0966
 3151DOPG   GL159667  12.243  17.034  11.336  0.0562  0.0202 -0.2708
 3151DOPG   GL259668  12.251  17.307  11.412  0.2593  0.1296  0.2976
 3151DOPG   C1A59669  11.981  16.762  11.588 -0.1516  0.1329 -0.0386
 3151DOPG   D2A59670  11.626  16.495  11.751 -0.0770  0.1162  0.2001
 3151DOPG   C3A59671  11.553  16.605  12.151  0.0283 -0.0886 -0.1624
 3151DOPG   C4A59672  11.741  16.924  12.506 -0.0313  0.2344 -0.2880
 3151DOPG   C1B59673  12.160  17.088  11.841 -0.3839  0.2479 -0.4543
 3151DOPG   D2B59674  11.996  16.819  12.114  0.4771 -0.3981  0.3874
 3151DOPG   C3B59675  12.359  16.628  12.459 -0.4081  0.1320 -0.1398
 3151DOPG   C4B59676  12.828  16.408  12.432  0.1260 -0.1844  0.3966
 3152DOPG   GL059677  17.160  13.500  12.508  0.1450 -0.1152  0.0085
 3152DOPG   PO459678  17.495  13.421  12.225 -0.4048  0.1861  0.0767
 3152DOPG   GL159679  17.689  13.567  12.517  0.0373 -0.1307 -0.0174
 3152DOPG   GL259680  17.714  13.334  12.793 -0.0018  0.1025 -0.0546
 3152DOPG   C1A59681  17.519  13.916  12.839 -0.1125  0.3906 -0.1760
 3152DOPG   D2A59682  17.124  14.066  12.943  0.1953  0.3051 -0.1012
 3152DOPG   C3A59683  16.694  14.129  12.962  0.1907 -0.1607 -0.0947
 3152DOPG   C4A59684  16.421  14.497  12.968 -0.1494  0.1495  0.1384
 3152DOPG   C1B59685  17.385  13.437  12.940 -0.0089 -0.1244 -0.0684
 3152DOPG   D2B59686  16.952  13.594  13.083  0.1176 -0.2629 -0.0882
 3152DOPG   C3B59687  16.984  13.984  13.408 -0.0167 -0.0062 -0.1020
 3152DOPG   C4B59688  16.999  14.373  13.402 -0.1735  0.0183  0.0921
 3153DOPG   GL059689  18.926  21.782  13.070  0.2534 -0.0780 -0.1081
 3153DOPG   PO459690  18.783  22.220  13.318 -0.0603 -0.1138  0.2580
 3153DOPG   GL159691  18.915  21.981  13.694 -0.0561  0.2797  0.3325
 3153DOPG   GL259692  19.279  21.944  13.694 -0.2161 -0.1590  0.0404
 3153DOPG   C1A59693  18.982  21.574  13.946 -0.0892  0.0668 -0.1995
 3153DOPG   D2A59694  18.965  21.210  14.212 -0.0810  0.0955 -0.0190
 3153DOPG   C3A59695  18.595  20.962  14.354 -0.1168  0.1754  0.3012
 3153DOPG   C4A59696  18.203  20.952  14.570 -0.2864  0.0523  0.1457
 3153DOPG   C1B59697  19.547  21.468  13.817 -0.1611 -0.1906  0.0748
 3153DOPG   D2B59698  19.571  21.155  14.082 -0.3671 -0.0151 -0.0492
 3153DOPG   C3B59699  19.648  20.699  13.838 -0.0634 -0.0138  0.0838
 3153DOPG   C4B59700  19.826  20.504  13.477  0.0566 -0.0455 -0.0549
 3154DOPG   GL059701  11.956  23.796  13.398  0.1009 -0.0945 -0.1559
 3154DOPG   PO459702  11.936  23.573  13.768  0.2741 -0.2083  0.0859
 3154DOPG   GL159703  11.988  23.590  14.219  0.0965  0.2247 -0.0222
 3154DOPG   GL259704  11.678  23.728  14.437  0.0655 -0.1108  0.4681
 3154DOPG   C1A59705  11.867  23.251  14.585 -0.2848  0.0628 -0.3248
 3154DOPG   D2A59706  12.027  23.131  14.868  0.2868  0.0783 -0.1569
 3154DOPG   C3A59707  11.823  22.771  15.098 -0.1821  0.0313  0.1214
 3154DOPG   C4A59708  11.937  22.477  15.459  0.3172  0.0524 -0.0781
 3154DOPG   C1B59709  11.383  23.517  14.666  0.1319  0.0808  0.1953
 3154DOPG   D2B59710  10.985  23.398  14.858 -0.0343 -0.0400  0.0131
 3154DOPG   C3B59711  10.955  23.016  15.162  0.1122 -0.0297  0.2560
 3154DOPG   C4B59712  10.599  22.989  15.362 -0.1872 -0.2359  0.2260
 3155DOPG   GL059713  11.925  13.887  11.232 -0.3087  0.1199 -0.1292
 3155DOPG   PO459714  12.268  13.967  11.025 -0.3384  0.1654  0.2061
 3155DOPG   GL159715  12.512  14.139  11.377 -0.0464  0.0600 -0.1418
 3155DOPG   GL259716  12.645  14.500  11.437 -0.0642  0.0028  0.2307
 3155DOPG   C1A59717  12.453  14.223  11.807  0.0004 -0.1841 -0.0149
 3155DOPG   D2A59718  12.775  14.269  12.198 -0.1272  0.0872 -0.1278
 3155DOPG   C3A59719  13.096  14.483  12.118 -0.0865  0.0524 -0.1295
 3155DOPG   C4A59720  13.310  14.604  11.724 -0.2716  0.2013  0.1174
 3155DOPG   C1B59721  12.733  14.705  11.875 -0.0186 -0.0839  0.1769
 3155DOPG   D2B59722  12.599  14.964  12.173  0.2952 -0.2045  0.2314
 3155DOPG   C3B59723  12.738  15.232  12.333 -0.1276 -0.0183 -0.2201
 3155DOPG   C4B59724  12.893  15.356  12.705 -0.1972  0.1055 -0.0223
 3156DOPG   GL059725   9.504   8.782  14.653 -0.1003  0.1480  0.0285
 3156DOPG   PO459726   9.490   8.284  14.555  0.0600 -0.2313 -0.1778
 3156DOPG   GL159727   9.815   8.414  14.830 -0.1506 -0.3518  0.1151
 3156DOPG   GL259728  10.119   8.472  14.700 -0.0934 -0.1602  0.1179
 3156DOPG   C1A59729   9.728   8.702  15.101  0.2515 -0.2301 -0.2191
 3156DOPG   D2A59730   9.696   9.019  15.345  0.2160  0.1608 -0.0558
 3156DOPG   C3A59731   9.292   9.318  15.263  0.2564  0.0057 -0.0912
 3156DOPG   C4A59732   9.232   9.730  15.448 -0.2500  0.1552 -0.0118
 3156DOPG   C1B59733   9.993   8.884  14.621  0.0241  0.2911 -0.2385
 3156DOPG   D2B59734   9.798   9.164  14.816 -0.1653  0.0191  0.1759
 3156DOPG   C3B59735   9.420   9.294  14.744  0.1313 -0.2994  0.0553
 3156DOPG   C4B59736   9.227   9.688  14.929  0.0177  0.0335  0.1871
 3157DOPG   GL059737   6.223  11.271  14.450 -0.0297 -0.1441  0.0147
 3157DOPG   PO459738   6.040  11.701  14.670 -0.0587  0.0762  0.3237
 3157DOPG   GL159739   6.039  11.911  15.066  0.2667  0.1923  0.0331
 3157DOPG   GL259740   5.942  12.290  15.180 -0.1853  0.2403 -0.1133
 3157DOPG   C1A59741   6.507  11.980  15.176  0.4676 -0.2099 -0.1090
 3157DOPG   D2A59742   6.898  11.663  15.139  0.1733 -0.0343 -0.3567
 3157DOPG   C3A59743   7.311  11.574  14.892  0.1427 -0.1450 -0.0119
 3157DOPG   C4A59744   7.627  11.359  14.687 -0.1519 -0.0063 -0.1662
 3157DOPG   C1B59745   6.391  12.459  15.354  0.0523  0.2241 -0.0676
 3157DOPG   D2B59746   6.543  12.850  15.658  0.0499  0.4310  0.3030
 3157DOPG   C3B59747   6.514  12.603  16.047 -0.1926  0.0922  0.0781
 3157DOPG   C4B59748   6.753  12.197  16.019  0.0498  0.0619  0.1596
 3158DOPG   GL059749  21.877  12.442  16.024  0.1326  0.0704 -0.3198
 3158DOPG   PO459750  22.090  12.311  16.280 -0.1231 -0.1175 -0.2593
 3158DOPG   GL159751  22.018  12.702  16.590 -0.0451 -0.1840 -0.2010
 3158DOPG   GL259752  21.884  12.994  16.503  0.0859  0.0292 -0.0483
 3158DOPG   C1A59753  21.841  12.934  17.012  0.0292 -0.0912 -0.0276
 3158DOPG   D2A59754  21.497  13.024  17.247  0.1518 -0.1944  0.1736
 3158DOPG   C3A59755  21.685  13.144  17.651  0.1114  0.0171  0.1607
 3158DOPG   C4A59756  21.977  13.422  17.882  0.3371  0.2930 -0.0107
 3158DOPG   C1B59757  21.679  13.377  16.615 -0.0074  0.0063  0.0229
 3158DOPG   D2B59758  21.498  13.566  16.807 -0.0791  0.3056  0.0798
 3158DOPG   C3B59759  21.224  13.909  16.709  0.1071  0.2208  0.4337
 3158DOPG   C4B59760  20.779  13.898  16.529 -0.0375  0.0435  0.4191
 3159DOPG   GL059761  20.477  15.503  11.487  0.0577  0.0011 -0.1213
 3159DOPG   PO459762  20.631  15.777  11.810  0.3148  0.0597  0.0094
 3159DOPG   GL159763  20.341  15.831  12.091  0.3010  0.3030  0.3892
 3159DOPG   GL259764  20.206  15.491  12.244  0.2546 -0.0381 -0.1178
 3159DOPG   C1A59765  20.246  16.204  12.331 -0.0514  0.2568 -0.0204
 3159DOPG   D2A59766  19.984  16.642  12.331  0.2815  0.3558 -0.0265
 3159DOPG   C3A59767  20.107  16.904  12.688 -0.0599  0.0603  0.1213
 3159DOPG   C4A59768  20.615  17.088  12.717 -0.0952 -0.1902 -0.4118
 3159DOPG   C1B59769  20.467  15.698  12.585  0.0691  0.1278 -0.4527
 3159DOPG   D2B59770  20.381  16.033  12.767 -0.3692 -0.2196  0.0675
 3159DOPG   C3B59771  19.970  16.245  12.742  0.0343 -0.0451 -0.3498
 3159DOPG   C4B59772  19.540  16.222  12.864  0.1716  0.2652  0.0266
 3160DOPG   GL059773   8.005  17.728  13.445 -0.0456  0.1080  0.1786
 3160DOPG   PO459774   8.298  17.935  13.684 -0.0222 -0.2330  0.1226
 3160DOPG   GL159775   8.259  17.821  14.122  0.4087  0.0138  0.0938
 3160DOPG   GL259776   8.584  17.957  14.205  0.1386 -0.2003 -0.1206
 3160DOPG   C1A59777   8.214  17.844  14.517  0.1993  0.0115 -0.0896
 3160DOPG   D2A59778   8.276  18.006  14.846 -0.0767  0.0352 -0.1118
 3160DOPG   C3A59779   8.197  17.774  15.184 -0.1692  0.3025 -0.0022
 3160DOPG   C4A59780   8.313  17.705  15.504 -0.4246  0.1250 -0.2777
 3160DOPG   C1B59781   8.893  18.260  14.369  0.0727  0.0679 -0.1044
 3160DOPG   D2B59782   8.874  18.709  14.523  0.2042 -0.2736 -0.3112
 3160DOPG   C3B59783   9.285  18.867  14.391  0.4540 -0.1385 -0.4199
 3160DOPG   C4B59784   9.639  19.029  14.103  0.0602  0.1873 -0.0044
 3161DOPG   GL059785  14.479  13.557  11.183  0.1430 -0.0767  0.1788
 3161DOPG   PO459786  14.829  13.420  11.364 -0.0147 -0.2501  0.0017
 3161DOPG   GL159787  14.838  13.269  11.685  0.1764  0.0751 -0.1257
 3161DOPG   GL259788  15.175  13.352  11.841  0.0931  0.1411  0.2390
 3161DOPG   C1A59789  14.923  13.102  12.202 -0.0492 -0.1166  0.0438
 3161DOPG   D2A59790  14.951  13.076  12.640 -0.0534  0.0365  0.0052
 3161DOPG   C3A59791  14.607  13.164  12.831 -0.1971 -0.1789 -0.3338
 3161DOPG   C4A59792  14.399  13.549  13.064 -0.1292  0.0241 -0.0512
 3161DOPG   C1B59793  15.232  13.514  12.326 -0.2419 -0.0353  0.1411
 3161DOPG   D2B59794  15.478  13.593  12.706 -0.1350  0.0792  0.2286
 3161DOPG   C3B59795  15.563  13.316  13.074  0.0718 -0.0705 -0.1947
 3161DOPG   C4B59796  15.956  13.108  13.211  0.3096 -0.0457 -0.0227
 3162DOPG   GL059797  20.478  17.560  11.338  0.0652  0.2015  0.0063
 3162DOPG   PO459798  20.130  17.942  11.266 -0.2451 -0.1882 -0.1616
 3162DOPG   GL159799  20.076  17.809  11.694  0.0333 -0.0470  0.1454
 3162DOPG   GL259800  20.108  17.428  11.846  0.1843  0.0217  0.1215
 3162DOPG   C1A59801  19.804  17.848  11.968  0.0905 -0.1331 -0.3995
 3162DOPG   D2A59802  19.558  17.578  12.137  0.0409 -0.0789  0.0202
 3162DOPG   C3A59803  19.741  17.692  12.497  0.3332 -0.2155  0.1135
 3162DOPG   C4A59804  20.151  17.484  12.563 -0.1390  0.1325 -0.1980
 3162DOPG   C1B59805  19.924  17.151  12.230  0.4061  0.4037  0.1975
 3162DOPG   D2B59806  19.509  16.981  12.370  0.0320 -0.1741  0.1870
 3162DOPG   C3B59807  19.446  16.575  12.351  0.4510 -0.2119 -0.0398
 3162DOPG   C4B59808  19.632  16.225  12.290  0.0273  0.0722  0.0099
 3163DOPG   GL059809  10.657  21.630  12.629 -0.0651  0.1978  0.1727
 3163DOPG   PO459810  10.333  21.934  12.720  0.0722  0.0432 -0.0677
 3163DOPG   GL159811  10.372  21.837  13.175  0.0949  0.1999 -0.2731
 3163DOPG   GL259812  10.667  22.034  13.190  0.2289  0.0219 -0.2771
 3163DOPG   C1A59813  10.129  21.810  13.592 -0.2104  0.0744 -0.1260
 3163DOPG   D2A59814   9.785  22.091  13.800 -0.3773 -0.0529  0.1012
 3163DOPG   C3A59815   9.898  22.470  13.497  0.0394 -0.1409 -0.1027
 3163DOPG   C4A59816   9.957  22.804  13.408  0.0388  0.2170 -0.0137
 3163DOPG   C1B59817  10.942  21.906  13.592  0.2068  0.1973 -0.1448
 3163DOPG   D2B59818  11.008  21.800  14.078  0.2838  0.0063  0.2672
 3163DOPG   C3B59819  10.984  21.412  14.118 -0.0406 -0.0444  0.0305
 3163DOPG   C4B59820  11.091  21.050  14.293  0.0275  0.0195 -0.1903
 3164DOPG   GL059821  13.271  16.302  10.549 -0.0433 -0.1943  0.0824
 3164DOPG   PO459822  13.486  15.971  10.749 -0.2263  0.0207  0.1930
 3164DOPG   GL159823  13.617  15.703  11.177  0.0542 -0.1813 -0.2126
 3164DOPG   GL259824  13.875  15.339  11.292 -0.3125  0.2340 -0.1183
 3164DOPG   C1A59825  13.395  15.344  11.356 -0.0410  0.0389  0.2466
 3164DOPG   D2A59826  13.072  15.118  11.482 -0.1785 -0.0011  0.3361
 3164DOPG   C3A59827  12.938  15.165  11.820  0.3055  0.0673 -0.1415
 3164DOPG   C4A59828  12.813  15.629  11.928 -0.0797 -0.0643 -0.1057
 3164DOPG   C1B59829  13.762  15.104  11.662 -0.0999  0.0146  0.1517
 3164DOPG   D2B59830  13.393  15.086  11.836 -0.2466 -0.2410  0.2812
 3164DOPG   C3B59831  13.348  14.926  12.223 -0.3242 -0.0180 -0.2260
 3164DOPG   C4B59832  13.169  14.798  12.609  0.2657  0.0834  0.1408
 3165DOPG   GL059833  13.696   6.317  14.921  0.0138 -0.2771  0.2993
 3165DOPG   PO459834  13.703   6.579  15.249 -0.0958  0.0889  0.2932
 3165DOPG   GL159835  13.486   7.133  15.255  0.2802 -0.4330 -0.0835
 3165DOPG   GL259836  13.101   7.157  15.439  0.0461  0.1871 -0.2382
 3165DOPG   C1A59837  13.600   7.355  15.598  0.0707  0.1920 -0.0963
 3165DOPG   D2A59838  14.070   7.426  15.688  0.2486 -0.0975  0.1420
 3165DOPG   C3A59839  14.159   7.800  15.868 -0.2082  0.0022  0.1415
 3165DOPG   C4A59840  13.976   8.214  15.794  0.1739 -0.0407  0.4297
 3165DOPG   C1B59841  13.028   7.525  15.724 -0.2572  0.2035 -0.3370
 3165DOPG   D2B59842  13.136   7.895  15.973 -0.1776  0.0949 -0.3070
 3165DOPG   C3B59843  12.693   7.773  16.373 -0.1939  0.0046 -0.0522
 3165DOPG   C4B59844  12.755   7.788  16.890  0.0067  0.1515 -0.0829
 3166DOPG   GL059845  25.159  22.555  15.206  0.2698  0.1517  0.1697
 3166DOPG   PO459846  24.740  22.724  15.143  0.1545  0.0733  0.0084
 3166DOPG   GL159847  24.514  22.368  14.971 -0.1330 -0.1753 -0.3289
 3166DOPG   GL259848  24.687  22.192  14.964  0.1821  0.0019 -0.1026
 3166DOPG   C1A59849  24.120  22.070  15.006  0.1769  0.0534  0.0258
 3166DOPG   D2A59850  24.205  21.767  15.008 -0.2254 -0.4428  0.0053
 3166DOPG   C3A59851  24.350  21.522  15.292 -0.1869 -0.1510  0.1008
 3166DOPG   C4A59852  24.122  21.495  15.623  0.0722 -0.2157 -0.2641
 3166DOPG   C1B59853  24.719  22.129  15.427 -0.3440 -0.0516 -0.0898
 3166DOPG   D2B59854  24.608  22.215  15.830 -0.0070  0.0220 -0.0661
 3166DOPG   C3B59855  24.713  21.970  16.216 -0.0237  0.1442  0.1642
 3166DOPG   C4B59856  25.092  22.054  16.440  0.0120  0.3519 -0.1227
 3167DOPG   GL059857  11.051  12.367  11.845 -0.1454 -0.0354 -0.1402
 3167DOPG   PO459858  10.939  11.974  11.869  0.3446  0.0504  0.3239
 3167DOPG   GL159859  11.056  12.019  12.358 -0.0243 -0.1127  0.3610
 3167DOPG   GL259860  11.276  12.017  12.221 -0.0409 -0.1358  0.0453
 3167DOPG   C1A59861  11.086  12.275  12.772  0.1940 -0.2444 -0.0077
 3167DOPG   D2A59862  11.449  12.585  12.928 -0.0669 -0.2913 -0.2841
 3167DOPG   C3A59863  11.286  12.954  12.915 -0.0811 -0.3290  0.1040
 3167DOPG   C4A59864  11.213  13.275  13.253 -0.4437  0.2151  0.1184
 3167DOPG   C1B59865  11.577  12.298  12.500  0.2885 -0.0567 -0.2340
 3167DOPG   D2B59866  11.804  12.241  12.908  0.1451 -0.2245  0.0372
 3167DOPG   C3B59867  11.765  12.050  13.171 -0.1658 -0.0924 -0.1360
 3167DOPG   C4B59868  11.932  11.866  13.604 -0.3871  0.0133  0.1597
 3168DOPG   GL059869   9.270  20.844  13.527 -0.1947  0.1134  0.1207
 3168DOPG   PO459870   9.220  20.462  13.293 -0.0382 -0.0538  0.2909
 3168DOPG   GL159871   8.858  20.335  13.487  0.0673  0.0464 -0.0967
 3168DOPG   GL259872   8.820  20.694  13.541 -0.1837 -0.0905 -0.0312
 3168DOPG   C1A59873   8.797  20.317  13.870 -0.2608  0.0021  0.2356
 3168DOPG   D2A59874   8.530  20.522  14.193 -0.3361  0.0226  0.0465
 3168DOPG   C3A59875   8.611  20.415  14.600 -0.0990  0.0284  0.1175
 3168DOPG   C4A59876   8.628  20.310  14.928 -0.0400  0.0569 -0.2119
 3168DOPG   C1B59877   9.031  20.778  13.997 -0.1166  0.1319  0.0234
 3168DOPG   D2B59878   9.183  20.531  14.308  0.1539 -0.0090  0.0744
 3168DOPG   C3B59879   9.522  20.466  14.484  0.1421 -0.2053  0.0613
 3168DOPG   C4B59880   9.824  20.187  14.644  0.2319  0.2938  0.2911
 3169DOPG   GL059881  15.879  21.358  12.002 -0.3400  0.1180 -0.0771
 3169DOPG   PO459882  15.636  21.297  12.428 -0.0650 -0.0434  0.2026
 3169DOPG   GL159883  15.905  21.583  12.527  0.1002  0.3188 -0.1505
 3169DOPG   GL259884  15.916  21.782  12.863  0.3288  0.2112 -0.3009
 3169DOPG   C1A59885  16.327  21.467  12.708 -0.0741  0.1002  0.2073
 3169DOPG   D2A59886  16.601  21.340  13.143  0.1343 -0.1442  0.4575
 3169DOPG   C3A59887  16.208  21.367  13.474 -0.0716 -0.0100  0.2376
 3169DOPG   C4A59888  15.839  21.507  13.662 -0.2359 -0.0307 -0.0643
 3169DOPG   C1B59889  15.913  21.330  12.966 -0.0200 -0.0156  0.1664
 3169DOPG   D2B59890  16.225  21.016  12.966 -0.0680 -0.2019 -0.0693
 3169DOPG   C3B59891  16.414  20.893  13.427  0.0938 -0.0206  0.0324
 3169DOPG   C4B59892  16.481  20.599  13.687 -0.4366 -0.0874  0.3496
 3170DOPG   GL059893   9.956  20.755  12.651  0.2221 -0.1858 -0.0029
 3170DOPG   PO459894   9.786  21.100  12.845 -0.0917 -0.0397  0.0731
 3170DOPG   GL159895   9.977  21.173  13.268 -0.1090 -0.0943  0.0373
 3170DOPG   GL259896  10.019  21.371  13.461 -0.1139  0.1950  0.2881
 3170DOPG   C1A59897   9.939  20.864  13.625  0.2078 -0.2267 -0.1084
 3170DOPG   D2A59898   9.983  20.516  13.809  0.3215 -0.2082  0.0755
 3170DOPG   C3A59899  10.109  20.471  14.214  0.0903 -0.0691 -0.0729
 3170DOPG   C4A59900  10.613  20.674  14.398  0.1190 -0.1108  0.3939
 3170DOPG   C1B59901  10.422  21.250  13.469 -0.2799 -0.1258  0.0041
 3170DOPG   D2B59902  10.670  21.052  13.854  0.2790  0.2642  0.1544
 3170DOPG   C3B59903  10.235  20.958  14.123 -0.1972  0.1597 -0.0161
 3170DOPG   C4B59904   9.854  21.064  14.287  0.1283  0.2568 -0.2366
 3171DOPG   GL059905  11.460   6.779  17.175  0.1456  0.0989 -0.1259
 3171DOPG   PO459906  11.042   6.834  17.038  0.0316 -0.0055 -0.0260
 3171DOPG   GL159907  11.078   7.238  16.928  0.2072 -0.1944  0.0392
 3171DOPG   GL259908  10.906   7.392  17.047  0.1804  0.0775  0.2715
 3171DOPG   C1A59909  11.126   7.767  16.742  0.0450 -0.1008 -0.0468
 3171DOPG   D2A59910  11.330   8.180  16.785  0.0541  0.1680  0.2447
 3171DOPG   C3A59911  11.071   8.585  16.549  0.2477 -0.0456 -0.1244
 3171DOPG   C4A59912  10.799   8.940  16.754 -0.1307 -0.1056 -0.0469
 3171DOPG   C1B59913  11.345   7.608  17.135  0.0935 -0.1054  0.0562
 3171DOPG   D2B59914  11.551   7.743  17.521  0.1292 -0.1994  0.1620
 3171DOPG   C3B59915  11.914   8.057  17.544 -0.3236 -0.0979  0.0266
 3171DOPG   C4B59916  12.291   8.426  17.596 -0.1127 -0.0799  0.0152
 3172DOPG   GL059917  14.544  20.693  11.117  0.1418 -0.1308  0.0980
 3172DOPG   PO459918  14.632  20.304  11.373 -0.2541  0.2595  0.5008
 3172DOPG   GL159919  14.471  20.291  11.849  0.1867  0.4953 -0.1474
 3172DOPG   GL259920  14.563  20.533  12.074  0.2995 -0.1108  0.1994
 3172DOPG   C1A59921  14.529  20.063  12.257  0.1037  0.0261 -0.0839
 3172DOPG   D2A59922  14.608  19.941  12.683  0.0753  0.2892 -0.1054
 3172DOPG   C3A59923  15.080  19.773  12.813 -0.1655  0.1296 -0.0859
 3172DOPG   C4A59924  15.613  19.708  12.737 -0.0822 -0.0215  0.0587
 3172DOPG   C1B59925  14.217  20.534  12.251  0.2700 -0.0242 -0.1600
 3172DOPG   D2B59926  13.840  20.488  12.488  0.0949 -0.0864 -0.0067
 3172DOPG   C3B59927  13.635  20.156  12.742 -0.0674 -0.1051  0.1652
 3172DOPG   C4B59928  13.520  19.833  13.142  0.2725  0.2617  0.0209
 3173DOPG   GL059929   7.654  16.894  13.735 -0.2727  0.2877  0.1933
 3173DOPG   PO459930   7.864  16.671  13.391 -0.0135 -0.1526 -0.1126
 3173DOPG   GL159931   8.165  16.781  13.800 -0.0716 -0.3430  0.1387
 3173DOPG   GL259932   8.048  16.750  14.124 -0.2522  0.1932 -0.0348
 3173DOPG   C1A59933   8.477  16.917  13.939 -0.1901 -0.1301 -0.2438
 3173DOPG   D2A59934   8.599  16.939  14.366  0.2023 -0.2083  0.1453
 3173DOPG   C3A59935   8.624  17.279  14.624  0.1607 -0.1761  0.0886
 3173DOPG   C4A59936   8.569  17.514  14.992  0.2193 -0.2278  0.2227
 3173DOPG   C1B59937   8.386  16.411  14.173  0.1834  0.1146  0.1205
 3173DOPG   D2B59938   8.760  16.411  14.359  0.0186  0.3009 -0.3825
 3173DOPG   C3B59939   8.803  16.307  14.799 -0.2543 -0.3091  0.1195
 3173DOPG   C4B59940   8.897  15.905  14.997 -0.0820 -0.1064  0.2064
 3174DOPG   GL059941   6.616   9.943  15.481 -0.2139 -0.1482 -0.1712
 3174DOPG   PO459942   6.953   9.965  15.660 -0.3647 -0.1218  0.2038
 3174DOPG   GL159943   7.237  10.288  15.620  0.4463  0.5314 -0.0623
 3174DOPG   GL259944   7.134  10.473  15.807 -0.2519 -0.3021  0.0682
 3174DOPG   C1A59945   7.357  10.697  15.346 -0.2811  0.0428  0.0983
 3174DOPG   D2A59946   7.659  11.087  15.112 -0.1006 -0.1602 -0.0699
 3174DOPG   C3A59947   7.938  11.364  15.046 -0.0331 -0.0145  0.0333
 3174DOPG   C4A59948   8.213  11.540  14.768  0.4244  0.2528 -0.0158
 3174DOPG   C1B59949   7.339  10.655  15.979 -0.2595 -0.0183 -0.0205
 3174DOPG   D2B59950   7.509  11.026  16.166 -0.0461 -0.1313  0.0586
 3174DOPG   C3B59951   7.786  11.236  16.151  0.2585  0.1157 -0.1323
 3174DOPG   C4B59952   7.663  11.740  16.197 -0.1986  0.1062  0.2234
 3175DOPG   GL059953  22.830  22.960  13.669  0.0372  0.0913  0.2701
 3175DOPG   PO459954  22.471  22.726  13.967  0.1195  0.0028  0.2904
 3175DOPG   GL159955  22.642  22.276  14.142  0.1666 -0.0403 -0.0700
 3175DOPG   GL259956  22.823  22.276  14.518 -0.1669  0.2209 -0.1155
 3175DOPG   C1A59957  22.247  22.061  14.299  0.1436 -0.0482 -0.0580
 3175DOPG   D2A59958  22.043  21.841  14.534 -0.1511 -0.2382 -0.2494
 3175DOPG   C3A59959  21.833  21.553  14.822 -0.1554  0.1197  0.0149
 3175DOPG   C4A59960  21.366  21.492  14.964 -0.1387  0.2086  0.3290
 3175DOPG   C1B59961  22.482  22.052  14.821  0.0514  0.2780 -0.0134
 3175DOPG   D2B59962  22.187  21.823  15.108  0.3205 -0.0011  0.3396
 3175DOPG   C3B59963  22.053  21.972  15.463 -0.2407 -0.2316 -0.2122
 3175DOPG   C4B59964  21.997  21.761  15.717  0.0139  0.2829  0.0412
 3176DOPG   GL059965  12.354  25.051  14.814  0.1608  0.2786 -0.0600
 3176DOPG   PO459966  12.503  25.021  15.325  0.2650 -0.0284  0.1681
 3176DOPG   GL159967  12.796  24.668  15.112  0.0709  0.2184 -0.3891
 3176DOPG   GL259968  12.591  24.426  15.094  0.0248 -0.0262 -0.0471
 3176DOPG   C1A59969  13.068  24.298  15.277 -0.1429 -0.0824  0.3533
 3176DOPG   D2A59970  13.102  24.062  15.665 -0.2017  0.1544  0.2076
 3176DOPG   C3A59971  13.304  23.873  15.838 -0.0877 -0.2054 -0.2706
 3176DOPG   C4A59972  13.424  23.650  16.121  0.0148  0.0673 -0.1062
 3176DOPG   C1B59973  12.415  24.010  15.226  0.1334  0.2890 -0.1057
 3176DOPG   D2B59974  12.170  23.900  15.584  0.2281 -0.0441 -0.0712
 3176DOPG   C3B59975  12.311  24.162  16.016  0.0508  0.0212 -0.0115
 3176DOPG   C4B59976  12.522  24.336  16.350 -0.1593 -0.0765 -0.0866
 3177DOPG   GL059977  19.602  10.709  14.606  0.2164  0.2110 -0.0142
 3177DOPG   PO459978  19.290  10.509  14.882  0.1962 -0.2676 -0.3087
 3177DOPG   GL159979  19.221  10.911  14.914  0.3084 -0.1559 -0.1402
 3177DOPG   GL259980  19.198  11.019  14.645  0.2941 -0.1173  0.3703
 3177DOPG   C1A59981  19.068  11.376  15.111 -0.1116 -0.0973 -0.0684
 3177DOPG   D2A59982  18.900  11.660  15.344 -0.0670  0.0911 -0.1020
 3177DOPG   C3A59983  19.145  11.959  15.414 -0.1743 -0.2282 -0.0405
 3177DOPG   C4A59984  19.304  12.163  14.957 -0.0215  0.0048  0.1745
 3177DOPG   C1B59985  18.667  11.026  14.800 -0.1606  0.1640  0.0009
 3177DOPG   D2B59986  18.233  10.751  14.904 -0.1545 -0.1428  0.2022
 3177DOPG   C3B59987  18.044  10.497  15.230 -0.1160 -0.2148  0.3067
 3177DOPG   C4B59988  17.550  10.480  15.341  0.0115  0.1553 -0.3364
 3178DOPG   GL059989   9.193  23.697  13.744  0.2485 -0.2653  0.0287
 3178DOPG   PO459990   8.833  23.544  13.542  0.0230 -0.1219  0.0167
 3178DOPG   GL159991   8.880  23.261  13.954 -0.2232  0.0016  0.0291
 3178DOPG   GL259992   8.992  23.440  14.281 -0.0611 -0.1789  0.1158
 3178DOPG   C1A59993   8.872  22.904  14.283 -0.1367  0.0613 -0.0901
 3178DOPG   D2A59994   9.093  22.650  14.556 -0.1467 -0.2041 -0.2223
 3178DOPG   C3A59995   8.864  22.293  14.704  0.0307  0.3120  0.2096
 3178DOPG   C4A59996   8.558  21.855  14.780 -0.1111  0.0320 -0.0568
 3178DOPG   C1B59997   9.128  23.230  14.665  0.1335 -0.1589 -0.0080
 3178DOPG   D2B59998   9.348  22.945  14.881 -0.2486  0.3323  0.1059
 3178DOPG   C3B59999   9.130  22.605  15.085 -0.1262  0.0101 -0.1782
 3178DOPG   C4B60000   8.735  22.481  15.246 -0.2437 -0.0298 -0.1676
 3179DOPG   GL060001  11.249  18.660  11.282 -0.1118 -0.0037  0.0220
 3179DOPG   PO460002  11.111  19.039  11.388  0.3093 -0.0745  0.3062
 3179DOPG   GL160003  11.246  18.806  11.787 -0.0277 -0.1789  0.1090
 3179DOPG   GL260004  11.338  19.017  12.028 -0.0715  0.2541  0.2040
 3179DOPG   C1A60005  11.253  18.488  12.158  0.2195 -0.1772  0.0860
 3179DOPG   D2A60006  11.120  18.478  12.590 -0.2196  0.1339 -0.1321
 3179DOPG   C3A60007  10.856  18.668  12.919 -0.1850  0.0011 -0.0744
 3179DOPG   C4A60008  10.638  18.475  13.242 -0.1780  0.1373 -0.4187
 3179DOPG   C1B60009  11.483  19.108  12.427 -0.0417 -0.0960 -0.1513
 3179DOPG   D2B60010  11.535  19.450  12.709 -0.1098 -0.1636  0.0949
 3179DOPG   C3B60011  11.503  19.376  13.089  0.0262 -0.0146  0.2214
 3179DOPG   C4B60012  11.700  19.513  13.484 -0.0860 -0.2106  0.2476
 3180DOPG   GL060013  14.064  25.302  16.836 -0.0273  0.1398 -0.0329
 3180DOPG   PO460014  13.778  25.193  16.624  0.1470  0.1461 -0.0472
 3180DOPG   GL160015  13.905  24.775  16.521  0.1069  0.0595 -0.1255
 3180DOPG   GL260016  14.154  24.592  16.709 -0.1948  0.0231 -0.1853
 3180DOPG   C1A60017  13.809  24.346  16.345  0.1146 -0.3054 -0.3850
 3180DOPG   D2A60018  13.664  24.005  16.404  0.1778 -0.0078 -0.0414
 3180DOPG   C3A60019  13.257  23.836  16.612 -0.2006 -0.0526 -0.0976
 3180DOPG   C4A60020  12.851  23.963  16.644 -0.1342  0.1500 -0.0703
 3180DOPG   C1B60021  14.292  24.322  16.328  0.4417  0.0935 -0.3653
 3180DOPG   D2B60022  14.601  24.157  16.120 -0.1939  0.1171  0.0018
 3180DOPG   C3B60023  14.575  23.748  15.961 -0.0946 -0.3832  0.1286
 3180DOPG   C4B60024  14.354  23.540  15.722 -0.0396  0.1764  0.1456
 3181DOPG   GL060025   8.470  14.071  12.823  0.2680  0.1918  0.0892
 3181DOPG   PO460026   8.286  14.452  12.909  0.0457 -0.4548 -0.1446
 3181DOPG   GL160027   8.593  14.691  13.317 -0.1810 -0.1066  0.2279
 3181DOPG   GL260028   8.548  14.338  13.463 -0.3313 -0.3128  0.0736
 3181DOPG   C1A60029   8.683  14.901  13.639  0.2572  0.1995  0.0612
 3181DOPG   D2A60030   8.630  14.918  14.097 -0.0702 -0.1150 -0.0942
 3181DOPG   C3A60031   8.876  15.317  14.267  0.2796  0.1666  0.0303
 3181DOPG   C4A60032   9.050  15.614  14.324 -0.0023 -0.1034  0.1130
 3181DOPG   C1B60033   8.771  13.981  13.702  0.1866 -0.0332 -0.0719
 3181DOPG   D2B60034   8.765  13.656  13.930 -0.1741 -0.3307 -0.4295
 3181DOPG   C3B60035   8.434  13.301  14.213 -0.0518 -0.0125  0.0759
 3181DOPG   C4B60036   8.252  13.017  14.556  0.1931  0.0857 -0.1383
 3182DOPG   GL060037   6.978   8.978  18.407 -0.2478 -0.1072  0.2714
 3182DOPG   PO460038   6.935   9.406  18.116 -0.0482 -0.1615  0.0184
 3182DOPG   GL160039   7.259   9.593  17.876  0.0302  0.1915  0.2504
 3182DOPG   GL260040   7.297  10.006  17.826 -0.1558 -0.1361  0.2523
 3182DOPG   C1A60041   7.701   9.616  18.024 -0.2380 -0.0594  0.1170
 3182DOPG   D2A60042   8.034   9.893  18.131  0.1687 -0.2506 -0.1572
 3182DOPG   C3A60043   8.259   9.843  18.436 -0.1361 -0.1146 -0.0440
 3182DOPG   C4A60044   8.521  10.067  18.718  0.1051 -0.0856 -0.4303
 3182DOPG   C1B60045   7.432  10.349  17.594  0.2193  0.0418 -0.3297
 3182DOPG   D2B60046   7.655  10.751  17.414 -0.2037  0.3495 -0.1888
 3182DOPG   C3B60047   8.042  11.070  17.520 -0.2647  0.0588  0.1268
 3182DOPG   C4B60048   8.056  11.407  17.777  0.3022 -0.0571 -0.1114
 3183DOPG   GL060049  20.073  10.938  14.722 -0.0623  0.1843  0.4359
 3183DOPG   PO460050  20.039  10.550  15.028  0.1817 -0.1056  0.0092
 3183DOPG   GL160051  19.667  10.766  15.163  0.0200 -0.0878 -0.2102
 3183DOPG   GL260052  19.670  11.086  15.031 -0.1937 -0.3574 -0.1039
 3183DOPG   C1A60053  19.672  10.884  15.640 -0.0849 -0.3127 -0.2312
 3183DOPG   D2A60054  19.688  10.622  16.092 -0.2210 -0.1079 -0.0020
 3183DOPG   C3A60055  19.323  10.671  16.333 -0.0875  0.2184  0.1123
 3183DOPG   C4A60056  18.925  10.696  16.520 -0.1140  0.0234  0.0303
 3183DOPG   C1B60057  19.518  11.565  14.830  0.1307 -0.0657  0.0753
 3183DOPG   D2B60058  19.710  11.851  14.569  0.5648  0.1980 -0.1545
 3183DOPG   C3B60059  19.739  12.280  14.751 -0.0030  0.2827 -0.1026
 3183DOPG   C4B60060  19.799  12.607  15.158  0.1049  0.1160 -0.3067
 3184DOPG   GL060061  26.557  22.004  15.496 -0.1019  0.2318 -0.0015
 3184DOPG   PO460062  26.246  21.970  15.794 -0.0180 -0.0064 -0.1400
 3184DOPG   GL160063  25.901  21.725  15.826 -0.2338 -0.0701  0.1685
 3184DOPG   GL260064  25.847  21.506  15.894  0.2583  0.1063 -0.1380
 3184DOPG   C1A60065  25.645  21.849  16.191 -0.0228  0.1954 -0.1803
 3184DOPG   D2A60066  25.366  21.663  16.230 -0.2031  0.0859 -0.0515
 3184DOPG   C3A60067  25.385  21.360  15.905 -0.2003  0.1793  0.1759
 3184DOPG   C4A60068  25.575  21.111  15.521 -0.2520  0.2288 -0.2860
 3184DOPG   C1B60069  25.871  21.429  16.291  0.1144 -0.2123 -0.0717
 3184DOPG   D2B60070  26.128  21.551  16.637  0.0590 -0.3406 -0.3089
 3184DOPG   C3B60071  25.977  21.409  16.986  0.0613  0.0546  0.0849
 3184DOPG   C4B60072  26.099  21.375  17.333  0.1479  0.0202 -0.1439
 3185DOPG   GL060073  18.154   9.108  16.924  0.0722 -0.0095  0.3313
 3185DOPG   PO460074  18.474   9.334  16.710 -0.1699  0.0927 -0.1027
 3185DOPG   GL160075  18.208   9.651  16.851 -0.2275 -0.1701 -0.1385
 3185DOPG   GL260076  17.906   9.551  16.953  0.1876  0.1251  0.1883
 3185DOPG   C1A60077  18.117  10.061  16.999  0.3361  0.2286  0.1014
 3185DOPG   D2A60078  17.766  10.344  17.088  0.0465  0.0288 -0.1612
 3185DOPG   C3A60079  17.716  10.705  16.992 -0.1402  0.3738 -0.1268
 3185DOPG   C4A60080  17.404  10.939  17.057 -0.2548 -0.0811 -0.2923
 3185DOPG   C1B60081  17.601   9.851  17.001 -0.0364  0.0642 -0.0494
 3185DOPG   D2B60082  17.287  10.132  16.767  0.1563  0.0693 -0.1604
 3185DOPG   C3B60083  17.516  10.483  16.576  0.3170 -0.3818 -0.1947
 3185DOPG   C4B60084  17.724  10.841  16.448  0.2206  0.0578 -0.1826
 3186DOPG   GL060085   8.915   9.455  13.282 -0.1708 -0.0319 -0.1738
 3186DOPG   PO460086   8.898   9.366  13.712 -0.2489  0.1556 -0.1622
 3186DOPG   GL160087   9.128   9.453  14.084  0.0050 -0.0384  0.2107
 3186DOPG   GL260088   9.071   9.639  14.400  0.1498 -0.0288  0.1639
 3186DOPG   C1A60089   9.481   9.343  14.224 -0.0316 -0.1107  0.4794
 3186DOPG   D2A60090   9.895   9.445  14.389 -0.0750  0.2209  0.2554
 3186DOPG   C3A60091   9.762   9.751  14.731  0.1664 -0.3075  0.1466
 3186DOPG   C4A60092   9.835  10.091  14.983 -0.0936  0.1028  0.0119
 3186DOPG   C1B60093   8.783   9.892  14.736  0.0210  0.0801 -0.1732
 3186DOPG   D2B60094   8.639  10.285  14.796 -0.0420 -0.0601 -0.1484
 3186DOPG   C3B60095   8.195  10.444  14.891  0.0553  0.1571 -0.1187
 3186DOPG   C4B60096   8.053  10.740  15.274 -0.1141  0.0379 -0.2777
 3187DOPG   GL060097  19.827  10.381  15.418  0.1937  0.3344 -0.0061
 3187DOPG   PO460098  20.372  10.551  15.406  0.0701 -0.1240 -0.1805
 3187DOPG   GL160099  20.129  10.947  15.395  0.1506  0.3075  0.2037
 3187DOPG   GL260100  20.182  11.115  15.164  0.0790  0.1096  0.1149
 3187DOPG   C1A60101  19.908  11.258  15.496 -0.0139 -0.2084  0.0063
 3187DOPG   D2A60102  19.695  11.419  15.754  0.1138  0.0074 -0.2140
 3187DOPG   C3A60103  19.526  11.892  15.734 -0.1294  0.2220 -0.1230
 3187DOPG   C4A60104  19.291  12.269  15.841 -0.1511  0.0636 -0.2221
 3187DOPG   C1B60105  20.006  11.410  14.902  0.0143  0.2159 -0.0413
 3187DOPG   D2B60106  20.013  11.847  15.054 -0.0542 -0.0652 -0.1048
 3187DOPG   C3B60107  19.694  12.074  15.323  0.3041  0.2129 -0.1494
 3187DOPG   C4B60108  19.452  12.366  15.403 -0.1008 -0.2045  0.1689
 3188DOPG   GL060109  13.491  24.007  13.483 -0.2319  0.0162  0.3009
 3188DOPG   PO460110  13.646  23.791  13.855  0.4066 -0.0944 -0.3591
 3188DOPG   GL160111  13.507  23.581  14.166  0.1333  0.3172  0.0873
 3188DOPG   GL260112  13.220  23.488  14.218  0.2257 -0.0053  0.1010
 3188DOPG   C1A60113  13.594  23.246  14.504 -0.1795  0.0449  0.0641
 3188DOPG   D2A60114  13.414  23.028  14.830  0.1342 -0.1514  0.0142
 3188DOPG   C3A60115  13.349  23.045  15.327  0.0323 -0.2511  0.1421
 3188DOPG   C4A60116  13.081  22.871  15.625  0.0303 -0.0608  0.1593
 3188DOPG   C1B60117  13.100  23.329  14.610  0.0566  0.3332  0.0263
 3188DOPG   D2B60118  13.103  23.376  15.106  0.0525  0.0319  0.3675
 3188DOPG   C3B60119  12.765  23.251  15.477 -0.1910  0.1368 -0.0590
 3188DOPG   C4B60120  12.295  23.375  15.612 -0.0543 -0.3626 -0.1657
 3189DOPG   GL060121   9.431  18.270  12.421 -0.3920  0.0138  0.2304
 3189DOPG   PO460122   9.440  17.817  12.583 -0.1526 -0.0767  0.2466
 3189DOPG   GL160123   9.634  17.745  13.045 -0.0881 -0.1383 -0.3639
 3189DOPG   GL260124   9.390  17.713  13.325  0.2012 -0.1961  0.2636
 3189DOPG   C1A60125   9.972  17.834  13.203 -0.0288 -0.0574 -0.2855
 3189DOPG   D2A60126  10.335  17.631  13.288  0.0342  0.3216  0.3302
 3189DOPG   C3A60127  10.632  17.564  12.958  0.0596  0.2825  0.2533
 3189DOPG   C4A60128  10.723  17.710  12.521  0.3562  0.0918 -0.0459
 3189DOPG   C1B60129   9.624  17.889  13.627 -0.0796 -0.0096  0.2280
 3189DOPG   D2B60130  10.028  18.129  13.724 -0.1257  0.2532  0.1710
 3189DOPG   C3B60131  10.408  18.083  13.420 -0.0515  0.5025  0.4680
 3189DOPG   C4B60132  10.305  17.970  12.898 -0.0543  0.0476  0.4203
 3190DOPG   GL060133  24.368  23.336  16.684  0.1161 -0.1194  0.1594
 3190DOPG   PO460134  24.183  23.719  16.774 -0.0923 -0.0498  0.1204
 3190DOPG   GL160135  23.948  23.238  16.974  0.3676  0.2781  0.2168
 3190DOPG   GL260136  23.598  23.242  16.853 -0.1472 -0.2376  0.1308
 3190DOPG   C1A60137  23.891  22.884  17.205 -0.0255 -0.0896 -0.0707
 3190DOPG   D2A60138  24.069  22.536  17.111 -0.2912  0.0531  0.0654
 3190DOPG   C3A60139  23.811  22.338  16.757 -0.1080 -0.1735  0.3316
 3190DOPG   C4A60140  23.887  22.394  16.405 -0.0806 -0.0378 -0.2951
 3190DOPG   C1B60141  23.510  23.236  17.300  0.0532  0.1239 -0.1073
 3190DOPG   D2B60142  23.134  23.316  17.603 -0.3342 -0.0037  0.1328
 3190DOPG   C3B60143  22.769  23.091  17.476 -0.2257  0.0714 -0.0288
 3190DOPG   C4B60144  22.609  22.784  16.993  0.1534  0.1613  0.1662
 3191DOPG   GL060145  12.983   9.677  13.367  0.0469 -0.1096 -0.0096
 3191DOPG   PO460146  13.152   9.706  12.933  0.2920 -0.2384 -0.2937
 3191DOPG   GL160147  13.315  10.177  13.082 -0.1461  0.1923  0.4839
 3191DOPG   GL260148  12.992  10.263  13.259  0.0191  0.1739  0.0816
 3191DOPG   C1A60149  13.341  10.612  13.290 -0.0549  0.1564 -0.5785
 3191DOPG   D2A60150  13.352  11.120  13.245  0.0233  0.0416 -0.1236
 3191DOPG   C3A60151  13.461  11.350  13.565 -0.2269  0.0496 -0.1957
 3191DOPG   C4A60152  13.620  11.278  13.974 -0.3532  0.3318 -0.0116
 3191DOPG   C1B60153  13.095  10.337  13.648  0.0796 -0.0677  0.0907
 3191DOPG   D2B60154  13.214  10.119  13.948 -0.0138 -0.1018 -0.2531
 3191DOPG   C3B60155  13.122  10.237  14.438 -0.1602  0.1307 -0.3139
 3191DOPG   C4B60156  13.239  10.243  14.819 -0.1459 -0.1348 -0.0651
 3192DOPG   GL060157  22.584  12.866  15.278  0.1193 -0.0260 -0.0808
 3192DOPG   PO460158  22.175  13.005  15.309 -0.0124  0.1075 -0.0662
 3192DOPG   GL160159  22.038  13.256  15.657 -0.0544 -0.0456 -0.1976
 3192DOPG   GL260160  22.095  13.512  15.821 -0.1527 -0.0195  0.3941
 3192DOPG   C1A60161  21.731  13.632  15.525  0.0697 -0.2990 -0.3301
 3192DOPG   D2A60162  21.291  13.903  15.391 -0.1924 -0.0136 -0.3031
 3192DOPG   C3A60163  21.124  14.127  15.709 -0.1696 -0.0215  0.2677
 3192DOPG   C4A60164  21.048  13.974  16.141  0.1083  0.0853 -0.2037
 3192DOPG   C1B60165  21.657  13.430  16.025 -0.0300  0.0068 -0.0932
 3192DOPG   D2B60166  21.401  13.078  15.998 -0.0393  0.1931 -0.3214
 3192DOPG   C3B60167  20.943  13.220  15.890  0.1483 -0.1388  0.4087
 3192DOPG   C4B60168  20.782  13.218  15.523  0.1362 -0.1965 -0.1342
 3193DOPG   GL060169  12.705  25.356  17.563  0.3326 -0.2571 -0.1115
 3193DOPG   PO460170  12.925  25.092  17.835 -0.0445  0.1218  0.2288
 3193DOPG   GL160171  13.015  24.721  17.658  0.1542 -0.0963  0.0130
 3193DOPG   GL260172  13.193  24.772  17.459  0.0042  0.1959 -0.1080
 3193DOPG   C1A60173  13.104  24.285  17.614  0.1486  0.1088  0.1682
 3193DOPG   D2A60174  12.889  23.899  17.576  0.1397 -0.2169  0.3429
 3193DOPG   C3A60175  12.629  23.458  17.356  0.2545  0.2471  0.2448
 3193DOPG   C4A60176  12.776  23.134  17.007 -0.1976 -0.0825 -0.2792
 3193DOPG   C1B60177  13.076  24.626  17.080  0.0085 -0.2203 -0.3425
 3193DOPG   D2B60178  12.895  24.470  16.713 -0.3225  0.4557 -0.0364
 3193DOPG   C3B60179  12.795  24.785  16.417  0.0589  0.1411  0.2823
 3193DOPG   C4B60180  12.464  24.809  16.054  0.1438 -0.3186  0.2572
 3194DOPG   GL060181  13.965  12.866  11.849 -0.1193 -0.0315  0.0451
 3194DOPG   PO460182  13.579  12.914  11.511 -0.1064 -0.4826 -0.2238
 3194DOPG   GL160183  13.599  13.281  11.715 -0.4833 -0.2264 -0.2010
 3194DOPG   GL260184  13.724  13.434  11.732 -0.0320  0.0959 -0.1977
 3194DOPG   C1A60185  13.545  13.192  12.100 -0.2235  0.0795 -0.4826
 3194DOPG   D2A60186  13.249  13.241  12.451  0.2594 -0.3572  0.0682
 3194DOPG   C3A60187  13.115  13.578  12.686 -0.0663  0.0336 -0.2671
 3194DOPG   C4A60188  13.211  13.813  13.126  0.0683 -0.2436 -0.2430
 3194DOPG   C1B60189  14.088  13.290  12.000  0.1233  0.0218  0.0257
 3194DOPG   D2B60190  14.414  13.222  12.154  0.0367 -0.2171 -0.0343
 3194DOPG   C3B60191  14.424  12.918  12.435  0.1270 -0.0016  0.2293
 3194DOPG   C4B60192  14.178  12.835  12.805 -0.1533  0.1899  0.0328
 3195DOPG   GL060193  21.311  12.611  15.251  0.0198  0.0400  0.0204
 3195DOPG   PO460194  21.427  12.882  14.911  0.1167 -0.1199  0.3513
 3195DOPG   GL160195  21.237  13.317  15.059 -0.1154 -0.2521  0.1378
 3195DOPG   GL260196  21.388  13.656  14.971 -0.1458 -0.2434  0.2625
 3195DOPG   C1A60197  21.305  13.372  15.507 -0.2137 -0.1003 -0.2378
 3195DOPG   D2A60198  21.151  13.637  15.840 -0.0615 -0.3001  0.0132
 3195DOPG   C3A60199  21.143  13.501  16.333 -0.0572  0.0398  0.1572
 3195DOPG   C4A60200  21.012  13.452  16.710  0.1763 -0.1845  0.3231
 3195DOPG   C1B60201  20.995  13.962  14.940  0.2727 -0.0278  0.0301
 3195DOPG   D2B60202  20.883  14.201  15.276 -0.0690  0.3600  0.1901
 3195DOPG   C3B60203  20.440  14.394  15.367 -0.0011 -0.3276  0.1481
 3195DOPG   C4B60204  20.043  14.563  15.647  0.0016  0.0572  0.2828
 3196DOPG   GL060205  20.569  24.138  18.105 -0.0550 -0.1829 -0.0938
 3196DOPG   PO460206  20.189  24.238  17.906 -0.0703 -0.0573  0.1629
 3196DOPG   GL160207  19.835  23.878  17.846 -0.0397 -0.2748  0.0976
 3196DOPG   GL260208  19.870  23.780  17.581  0.1943 -0.0022  0.3316
 3196DOPG   C1A60209  19.834  23.420  17.904  0.1721 -0.0026 -0.0092
 3196DOPG   D2A60210  20.033  23.117  18.053 -0.0944 -0.0121  0.1645
 3196DOPG   C3A60211  20.373  22.908  17.998  0.2472  0.2894 -0.1452
 3196DOPG   C4A60212  20.803  22.768  17.816  0.0330 -0.0969  0.1751
 3196DOPG   C1B60213  20.051  23.500  17.323  0.3395  0.0275  0.0161
 3196DOPG   D2B60214  20.046  23.131  17.246  0.0822  0.2536  0.2291
 3196DOPG   C3B60215  19.822  22.666  17.245  0.0810  0.0016 -0.2544
 3196DOPG   C4B60216  19.652  22.389  16.912  0.1577  0.0791 -0.2685
 3197DOPG   GL060217  17.943   8.241  18.604 -0.1455 -0.2103 -0.2268
 3197DOPG   PO460218  18.020   8.407  18.149 -0.2545  0.0767 -0.0182
 3197DOPG   GL160219  17.753   8.923  18.014 -0.1404 -0.2355 -0.0059
 3197DOPG   GL260220  17.415   8.901  17.773 -0.0471  0.0879 -0.2280
 3197DOPG   C1A60221  17.629   9.356  17.908 -0.1373 -0.0758  0.1158
 3197DOPG   D2A60222  17.655   9.809  17.899 -0.3480 -0.2196 -0.0091
 3197DOPG   C3A60223  17.297  10.043  17.986  0.0443 -0.0272  0.2958
 3197DOPG   C4A60224  16.899  10.043  17.713  0.1192  0.0915  0.0325
 3197DOPG   C1B60225  17.058   8.920  17.952 -0.1274 -0.3181 -0.0811
 3197DOPG   D2B60226  16.657   8.877  18.144 -0.0402  0.3192 -0.4823
 3197DOPG   C3B60227  16.267   9.158  18.102 -0.0245 -0.1541  0.2149
 3197DOPG   C4B60228  15.947   9.396  17.904  0.0960 -0.1046  0.3537
 3198DOPG   GL060229  20.968  11.449  15.384 -0.1870 -0.0007 -0.1886
 3198DOPG   PO460230  20.705  11.386  15.104  0.0183 -0.0631 -0.4172
 3198DOPG   GL160231  20.435  11.656  15.184  0.0572 -0.0287  0.1351
 3198DOPG   GL260232  20.548  11.857  15.448  0.1086 -0.0924  0.0665
 3198DOPG   C1A60233  20.053  11.735  15.548  0.1262  0.1092  0.1519
 3198DOPG   D2A60234  20.003  11.980  15.897  0.0034 -0.0220 -0.5139
 3198DOPG   C3A60235  19.608  12.149  16.199  0.0102  0.2745 -0.0463
 3198DOPG   C4A60236  19.294  12.123  16.412  0.2721 -0.0666  0.0621
 3198DOPG   C1B60237  20.157  12.220  15.428  0.3380  0.3044 -0.1857
 3198DOPG   D2B60238  19.943  12.546  15.640  0.0350 -0.2615  0.1926
 3198DOPG   C3B60239  19.956  12.965  15.524  0.1830  0.0301  0.1222
 3198DOPG   C4B60240  19.849  13.324  15.533 -0.0215 -0.1954 -0.0969
 3199DOPG   GL060241  17.085  16.423  10.480 -0.1288 -0.0550 -0.2912
 3199DOPG   PO460242  17.161  16.666  10.875  0.0435 -0.1191 -0.0821
 3199DOPG   GL160243  16.891  16.603  11.359 -0.0811 -0.0760  0.2413
 3199DOPG   GL260244  16.915  16.279  11.373 -0.4108  0.1119 -0.1350
 3199DOPG   C1A60245  16.551  16.676  11.534  0.1126  0.1197 -0.2308
 3199DOPG   D2A60246  16.456  17.049  11.853 -0.1080 -0.0837 -0.2496
 3199DOPG   C3A60247  16.595  17.399  11.778 -0.0004 -0.2586 -0.0427
 3199DOPG   C4A60248  17.001  17.724  11.928  0.0136 -0.1503  0.0066
 3199DOPG   C1B60249  17.012  15.980  11.575 -0.2151 -0.0183 -0.2397
 3199DOPG   D2B60250  17.007  15.790  12.054  0.1340 -0.0249  0.1406
 3199DOPG   C3B60251  16.633  15.558  12.192 -0.0910 -0.1501  0.2422
 3199DOPG   C4B60252  16.507  15.417  12.594 -0.4967  0.0551  0.0888
 3200DOPG   GL060253  23.381  22.934  14.143  0.2611 -0.0301 -0.0314
 3200DOPG   PO460254  23.187  22.646  14.454  0.1135 -0.0452  0.0947
 3200DOPG   GL160255  23.388  22.381  14.681 -0.1807 -0.0630 -0.0958
 3200DOPG   GL260256  23.414  22.076  14.527 -0.2376  0.4468 -0.2998
 3200DOPG   C1A60257  23.637  22.150  14.992  0.2888  0.2260 -0.1616
 3200DOPG   D2A60258  23.686  21.782  14.876  0.0608 -0.2042  0.1947
 3200DOPG   C3A60259  23.317  21.620  15.102  0.0220  0.0265 -0.0727
 3200DOPG   C4A60260  22.908  21.593  15.406 -0.2574 -0.5398  0.1834
 3200DOPG   C1B60261  23.112  21.933  14.698 -0.4238  0.4926 -0.4904
 3200DOPG   D2B60262  22.952  21.946  15.032  0.1675 -0.0014 -0.0698
 3200DOPG   C3B60263  23.180  22.224  15.194  0.2101 -0.0251  0.3120
 3200DOPG   C4B60264  23.493  22.358  15.475 -0.0967 -0.1001 -0.0930
 3201DOPG   GL060265   6.880  24.503  12.371 -0.1372  0.2978  0.0730
 3201DOPG   PO460266   7.277  24.698  12.237 -0.0401  0.1509  0.2743
 3201DOPG   GL160267   7.388  24.305  12.110 -0.2770 -0.1965  0.2608
 3201DOPG   GL260268   7.151  24.154  12.033 -0.1428 -0.1699 -0.2857
 3201DOPG   C1A60269   7.602  23.984  11.897  0.0781  0.0792 -0.0066
 3201DOPG   D2A60270   7.701  23.762  11.584 -0.3460 -0.0464  0.0883
 3201DOPG   C3A60271   7.928  23.994  11.182  0.3101 -0.0516  0.1010
 3201DOPG   C4A60272   7.962  23.927  10.706  0.0087 -0.1368  0.4423
 3201DOPG   C1B60273   7.236  23.739  11.885 -0.1431 -0.0479 -0.0247
 3201DOPG   D2B60274   6.948  23.379  11.763 -0.0009 -0.3040  0.1074
 3201DOPG   C3B60275   6.880  22.967  11.493  0.2476  0.2559 -0.0784
 3201DOPG   C4B60276   6.766  22.565  11.417 -0.2372  0.3226  0.0269
 3202DOPG   GL060277  25.539  22.605  14.516 -0.5100  0.1584  0.0697
 3202DOPG   PO460278  25.479  22.192  14.450  0.0144  0.1478 -0.1360
 3202DOPG   GL160279  25.192  21.876  14.574 -0.3334 -0.3214  0.2028
 3202DOPG   GL260280  25.072  21.920  14.730 -0.0820  0.3051 -0.0855
 3202DOPG   C1A60281  25.232  21.317  14.488 -0.2331  0.0587 -0.0468
 3202DOPG   D2A60282  25.150  20.984  14.198 -0.0014 -0.1435 -0.2810
 3202DOPG   C3A60283  24.770  20.668  14.271  0.0663  0.1376  0.0420
 3202DOPG   C4A60284  24.735  20.312  14.080 -0.1391  0.2398  0.0870
 3202DOPG   C1B60285  25.342  21.554  14.933  0.1695  0.1699 -0.0575
 3202DOPG   D2B60286  25.505  21.189  14.899 -0.2970 -0.1519 -0.0951
 3202DOPG   C3B60287  25.151  20.912  15.186 -0.4494 -0.3849 -0.2166
 3202DOPG   C4B60288  25.281  20.578  15.543 -0.0624  0.3262 -0.0593
 3203DOPG   GL060289  22.708  16.235  13.401  0.1017  0.0267  0.3407
 3203DOPG   PO460290  22.975  16.214  13.674  0.1509  0.2631  0.1010
 3203DOPG   GL160291  22.780  16.260  14.119 -0.1131 -0.3041  0.0982
 3203DOPG   GL260292  22.768  16.592  14.187  0.0518 -0.2977  0.0736
 3203DOPG   C1A60293  22.583  16.203  14.504 -0.2223 -0.1346 -0.0213
 3203DOPG   D2A60294  22.274  16.512  14.747 -0.0351  0.3681 -0.0603
 3203DOPG   C3A60295  21.877  16.497  14.646 -0.0813 -0.1926 -0.1740
 3203DOPG   C4A60296  21.565  16.610  14.368  0.0979  0.1811  0.1517
 3203DOPG   C1B60297  22.313  16.564  14.117  0.0410 -0.1880  0.2483
 3203DOPG   D2B60298  21.982  16.295  14.096  0.0236 -0.0877  0.2859
 3203DOPG   C3B60299  21.688  16.054  14.399  0.1885  0.3833 -0.3791
 3203DOPG   C4B60300  21.507  15.783  14.688 -0.1609 -0.0690  0.2411
 3204DOPG   GL060301  19.381  16.417  11.521  0.0298  0.1075  0.1521
 3204DOPG   PO460302  19.395  16.770  11.196 -0.0983 -0.1993 -0.0273
 3204DOPG   GL160303  19.280  16.997  11.512  0.2182  0.1629  0.2868
 3204DOPG   GL260304  19.034  16.973  11.505  0.4099 -0.0964 -0.0141
 3204DOPG   C1A60305  19.307  16.864  11.946 -0.0490  0.1820 -0.0745
 3204DOPG   D2A60306  18.992  17.015  12.306 -0.2843 -0.2278  0.1014
 3204DOPG   C3A60307  19.115  17.424  12.470 -0.2533  0.3203  0.0584
 3204DOPG   C4A60308  19.198  17.871  12.493  0.3145 -0.1092 -0.5077
 3204DOPG   C1B60309  19.017  16.553  11.740 -0.0963  0.1028 -0.1861
 3204DOPG   D2B60310  19.275  16.269  12.000  0.2050 -0.3701  0.1813
 3204DOPG   C3B60311  19.114  16.046  12.412 -0.3010 -0.0027  0.2617
 3204DOPG   C4B60312  19.017  16.105  12.840 -0.0558 -0.0682  0.3017
 3205DOPG   GL060313  12.894   6.317  17.772 -0.0722  0.2868  0.0285
 3205DOPG   PO460314  13.019   6.707  17.556  0.1243  0.3075  0.1242
 3205DOPG   GL160315  12.820   7.210  17.443 -0.4608 -0.2917 -0.2201
 3205DOPG   GL260316  12.991   7.426  17.220 -0.1454 -0.0457 -0.1692
 3205DOPG   C1A60317  12.571   7.654  17.530 -0.2598 -0.2004 -0.0995
 3205DOPG   D2A60318  12.436   7.968  17.830  0.0193 -0.3475  0.0050
 3205DOPG   C3A60319  12.018   7.817  17.979 -0.1463  0.0382  0.0950
 3205DOPG   C4A60320  11.730   7.385  17.899 -0.0255 -0.2766 -0.1070
 3205DOPG   C1B60321  13.199   7.818  17.086 -0.1947  0.1278  0.5172
 3205DOPG   D2B60322  13.156   8.281  17.100 -0.2902 -0.3938 -0.2205
 3205DOPG   C3B60323  13.422   8.409  16.679  0.1470 -0.0519 -0.1496
 3205DOPG   C4B60324  13.679   8.707  16.431  0.3530 -0.0864 -0.0489
 3206DOPG   GL060325  15.236  11.946  12.096  0.1907 -0.2490 -0.0452
 3206DOPG   PO460326  15.581  11.701  12.222 -0.0317 -0.3661 -0.0314
 3206DOPG   GL160327  15.539  12.096  12.496  0.2029 -0.0491 -0.2281
 3206DOPG   GL260328  15.229  12.013  12.660  0.2385  0.1147 -0.1092
 3206DOPG   C1A60329  15.480  12.463  12.821 -0.1709 -0.1058  0.0326
 3206DOPG   D2A60330  15.376  12.879  12.907  0.2277  0.2789 -0.0693
 3206DOPG   C3A60331  15.544  12.899  13.316 -0.1310  0.3002  0.1807
 3206DOPG   C4A60332  15.655  13.092  13.626 -0.2511  0.0484 -0.2022
 3206DOPG   C1B60333  15.318  11.885  13.113 -0.0889  0.0231 -0.1475
 3206DOPG   D2B60334  15.122  11.704  13.316  0.0317 -0.0109  0.0005
 3206DOPG   C3B60335  14.843  11.857  13.722 -0.1296  0.0926 -0.3094
 3206DOPG   C4B60336  14.582  11.943  14.007 -0.1830 -0.2576 -0.0564
 3207DOPG   GL060337  21.483  22.572  14.059  0.0609 -0.2984 -0.0225
 3207DOPG   PO460338  21.117  22.657  14.067 -0.1130  0.0477  0.1180
 3207DOPG   GL160339  20.837  22.522  14.351  0.1668 -0.0121  0.2911
 3207DOPG   GL260340  20.537  22.542  14.151  0.0373  0.0617 -0.0519
 3207DOPG   C1A60341  20.652  22.493  14.707  0.1503  0.2015 -0.0826
 3207DOPG   D2A60342  20.350  22.068  14.956 -0.0084 -0.3114 -0.0956
 3207DOPG   C3A60343  20.590  21.667  14.885  0.1087  0.0755 -0.0530
 3207DOPG   C4A60344  20.851  21.219  14.945 -0.0595  0.0652 -0.2972
 3207DOPG   C1B60345  20.214  22.311  14.464  0.2825  0.2924 -0.0599
 3207DOPG   D2B60346  20.173  22.501  14.873 -0.0865 -0.0595 -0.1222
 3207DOPG   C3B60347  19.800  22.556  14.971  0.0640  0.0408  0.1072
 3207DOPG   C4B60348  19.548  23.063  14.934 -0.0110 -0.2029  0.2277
 3208DOPG   GL060349  14.160   8.167  14.538 -0.0854 -0.0873  0.1224
 3208DOPG   PO460350  14.484   8.420  14.373  0.0125 -0.2103 -0.2399
 3208DOPG   GL160351  14.206   8.749  14.447  0.3515  0.2666  0.1609
 3208DOPG   GL260352  14.273   9.078  14.585  0.1013 -0.0303  0.0883
 3208DOPG   C1A60353  13.748   8.886  14.646 -0.2384  0.3741  0.1550
 3208DOPG   D2A60354  13.441   9.277  14.614  0.1231  0.0444 -0.2149
 3208DOPG   C3A60355  12.967   9.331  14.882 -0.0067  0.2630 -0.2444
 3208DOPG   C4A60356  12.549   9.360  15.234  0.0440  0.1203  0.3438
 3208DOPG   C1B60357  14.145   8.969  14.956 -0.0291  0.0421 -0.1873
 3208DOPG   D2B60358  13.778   8.942  15.196 -0.2735 -0.3716  0.3337
 3208DOPG   C3B60359  13.751   8.665  15.405  0.1944  0.1911  0.0867
 3208DOPG   C4B60360  13.584   8.263  15.520 -0.1962 -0.1284  0.1673
 3209DOPG   GL060361  13.193  10.522  12.733  0.1261  0.0936 -0.1822
 3209DOPG   PO460362  13.085  10.858  12.620 -0.4673 -0.4585 -0.3682
 3209DOPG   GL160363  12.851  11.152  12.811  0.2707  0.1443  0.1065
 3209DOPG   GL260364  12.537  11.045  12.906  0.4244  0.1475  0.0854
 3209DOPG   C1A60365  13.070  11.438  13.010  0.0743  0.2249  0.2949
 3209DOPG   D2A60366  12.962  11.509  13.447 -0.1025 -0.1679  0.1883
 3209DOPG   C3A60367  12.996  11.624  13.826  0.3562  0.0603  0.0715
 3209DOPG   C4A60368  12.921  12.025  13.972 -0.2770  0.0121 -0.3535
 3209DOPG   C1B60369  12.628  11.192  13.277 -0.2291  0.2747  0.0792
 3209DOPG   D2B60370  12.949  11.025  13.507  0.1870  0.0449 -0.0465
 3209DOPG   C3B60371  13.176  10.856  13.728 -0.3833 -0.0643  0.0780
 3209DOPG   C4B60372  13.640  10.791  13.663 -0.1351 -0.2537 -0.0504
 3210DOPG   GL060373  15.065  16.518  10.364 -0.0070 -0.1814  0.0129
 3210DOPG   PO460374  15.153  16.897  10.736  0.2622  0.0084 -0.1670
 3210DOPG   GL160375  14.877  17.012  11.146 -0.2602  0.0221 -0.0082
 3210DOPG   GL260376  14.719  17.344  11.221 -0.1522  0.1755 -0.0834
 3210DOPG   C1A60377  14.676  17.011  11.559 -0.0707 -0.0823 -0.1724
 3210DOPG   D2A60378  14.281  17.313  11.624  0.0448 -0.2337  0.0118
 3210DOPG   C3A60379  14.065  17.425  11.972 -0.2950  0.0802 -0.0829
 3210DOPG   C4A60380  13.907  17.629  12.443  0.0458 -0.4901 -0.0846
 3210DOPG   C1B60381  15.127  17.368  11.554  0.1026 -0.1561  0.1784
 3210DOPG   D2B60382  15.154  17.322  11.921 -0.2305  0.2254  0.0502
 3210DOPG   C3B60383  15.096  17.395  12.271 -0.1359 -0.1234  0.0029
 3210DOPG   C4B60384  15.087  17.657  12.570  0.0712  0.0068 -0.0253
 3211DOPG   GL060385  19.128  11.233  14.151  0.3146  0.1464 -0.0040
 3211DOPG   PO460386  18.798  10.899  14.041  0.4493 -0.0525 -0.5350
 3211DOPG   GL160387  18.451  11.221  14.221 -0.1794 -0.4546  0.0371
 3211DOPG   GL260388  18.446  11.407  13.881 -0.2441 -0.0272 -0.2619
 3211DOPG   C1A60389  18.233  11.534  14.439  0.0317  0.0886  0.1960
 3211DOPG   D2A60390  17.822  11.589  14.578  0.4376 -0.2533  0.0215
 3211DOPG   C3A60391  17.672  11.927  14.351  0.0809 -0.2199  0.0206
 3211DOPG   C4A60392  17.838  12.011  13.963  0.1419  0.1181 -0.1420
 3211DOPG   C1B60393  18.254  11.772  14.005 -0.0464  0.1259 -0.2394
 3211DOPG   D2B60394  18.172  12.011  14.374 -0.0256 -0.2214 -0.1169
 3211DOPG   C3B60395  17.943  12.383  14.385  0.0765  0.0079 -0.2313
 3211DOPG   C4B60396  17.602  12.558  14.630  0.0159  0.0365 -0.1159
 3212DOPG   GL060397  15.479  21.075  11.972 -0.1515  0.2095 -0.0448
 3212DOPG   PO460398  15.819  20.786  11.933 -0.1112  0.0489  0.1062
 3212DOPG   GL160399  15.654  20.682  12.240  0.1544 -0.0098  0.2731
 3212DOPG   GL260400  15.428  20.451  12.148  0.0605 -0.1345 -0.1222
 3212DOPG   C1A60401  15.858  20.602  12.653 -0.1627 -0.0660 -0.4171
 3212DOPG   D2A60402  15.986  20.513  12.993 -0.0479  0.0440  0.4427
 3212DOPG   C3A60403  16.443  20.468  13.206  0.0883  0.0312  0.1195
 3212DOPG   C4A60404  16.701  20.211  13.350  0.0627  0.0656  0.2435
 3212DOPG   C1B60405  15.004  20.333  12.325 -0.0143 -0.0166  0.0036
 3212DOPG   D2B60406  14.926  20.325  12.810  0.1239 -0.0062 -0.0810
 3212DOPG   C3B60407  15.261  20.448  13.062  0.3464 -0.0572  0.0072
 3212DOPG   C4B60408  15.566  20.532  13.443 -0.0693 -0.0992 -0.0231
 3213DOPG   GL060409   9.936  20.307  12.917  0.1687  0.1974  0.0394
 3213DOPG   PO460410   9.851  20.000  12.704 -0.2880 -0.1606  0.0625
 3213DOPG   GL160411  10.096  19.654  12.965 -0.1006 -0.2107  0.0410
 3213DOPG   GL260412  10.274  19.819  13.294  0.0254 -0.0420  0.0985
 3213DOPG   C1A60413  10.050  19.377  13.307  0.0891 -0.3299 -0.1063
 3213DOPG   D2A60414  10.113  19.357  13.840  0.1538  0.5234 -0.0586
 3213DOPG   C3A60415  10.324  19.506  14.098 -0.3490  0.0385 -0.3646
 3213DOPG   C4A60416  10.716  19.601  14.247 -0.4381  0.0068 -0.0559
 3213DOPG   C1B60417  10.531  19.590  13.642 -0.0569 -0.1665 -0.1733
 3213DOPG   D2B60418  10.841  19.307  13.732  0.0186 -0.0357 -0.2650
 3213DOPG   C3B60419  10.722  19.062  14.039 -0.1600 -0.2068 -0.4944
 3213DOPG   C4B60420  10.597  18.846  14.360  0.1500 -0.1584 -0.0261
 3214DOPG   GL060421  17.054  23.042  13.625  0.4191  0.1228  0.1564
 3214DOPG   PO460422  17.364  22.844  13.749 -0.0761 -0.1313 -0.0305
 3214DOPG   GL160423  17.267  22.586  14.056 -0.3567  0.0500 -0.0111
 3214DOPG   GL260424  17.077  22.287  14.012  0.0090 -0.1281 -0.3002
 3214DOPG   C1A60425  17.473  22.479  14.467 -0.0563  0.1173  0.1261
 3214DOPG   D2A60426  17.387  22.404  14.860  0.1557 -0.2700 -0.0258
 3214DOPG   C3A60427  17.592  22.468  15.241 -0.1186 -0.1432 -0.0958
 3214DOPG   C4A60428  17.828  22.410  15.530  0.2234 -0.1390  0.1004
 3214DOPG   C1B60429  16.893  21.874  14.141 -0.0257  0.0249  0.0465
 3214DOPG   D2B60430  16.691  21.664  14.431  0.3127 -0.1080  0.0726
 3214DOPG   C3B60431  16.778  21.708  14.779 -0.0245 -0.0561 -0.1793
 3214DOPG   C4B60432  16.848  21.890  15.218 -0.2760  0.1915  0.0632
 3215DOPG   GL060433  10.892  22.137  12.716 -0.1102 -0.3442 -0.0029
 3215DOPG   PO460434  11.119  21.938  12.944 -0.0603  0.2174  0.0194
 3215DOPG   GL160435  11.455  22.155  13.224  0.1598 -0.2556  0.1133
 3215DOPG   GL260436  11.686  22.431  13.139  0.1329  0.3003  0.0398
 3215DOPG   C1A60437  11.419  22.435  13.638 -0.1210  0.0964 -0.0258
 3215DOPG   D2A60438  11.707  22.280  14.023  0.2264 -0.0318  0.0538
 3215DOPG   C3A60439  11.453  22.040  14.274 -0.0954 -0.3674 -0.2568
 3215DOPG   C4A60440  11.148  21.951  14.559  0.0116 -0.2186  0.2325
 3215DOPG   C1B60441  11.893  22.282  13.518 -0.3838 -0.1327 -0.1679
 3215DOPG   D2B60442  11.957  21.913  13.722 -0.2507 -0.1019 -0.4003
 3215DOPG   C3B60443  11.784  21.639  14.194  0.1039 -0.1608 -0.1307
 3215DOPG   C4B60444  11.393  21.552  14.312  0.0360 -0.1479 -0.2152
 3216DOPG   GL060445  25.221  15.285  14.224  0.1449  0.0175  0.0097
 3216DOPG   PO460446  24.896  15.334  14.450 -0.0450 -0.1284 -0.0780
 3216DOPG   GL160447  24.857  15.519  14.874 -0.1281  0.0609 -0.0190
 3216DOPG   GL260448  24.911  15.831  14.981  0.0405  0.0162 -0.2328
 3216DOPG   C1A60449  24.828  15.555  15.355 -0.1520 -0.0962 -0.4278
 3216DOPG   D2A60450  24.649  15.867  15.655 -0.0335  0.3688 -0.0720
 3216DOPG   C3A60451  24.495  16.240  15.481 -0.2465 -0.1128 -0.1624
 3216DOPG   C4A60452  24.216  16.381  15.173  0.0595  0.1786 -0.2399
 3216DOPG   C1B60453  24.521  15.881  15.110  0.0358  0.0357 -0.4268
 3216DOPG   D2B60454  24.306  15.541  15.197 -0.1126  0.1030  0.0723
 3216DOPG   C3B60455  23.966  15.401  15.382 -0.0345 -0.1520 -0.1749
 3216DOPG   C4B60456  23.508  15.287  15.289 -0.0453 -0.1962 -0.2626
 3217DOPG   GL060457  20.634  21.135  12.669  0.3542 -0.2139 -0.0634
 3217DOPG   PO460458  20.655  20.798  12.653 -0.2634  0.0846 -0.4713
 3217DOPG   GL160459  20.301  20.763  12.890  0.0754 -0.1208  0.0640
 3217DOPG   GL260460  20.092  20.878  13.201  0.0067  0.0000  0.2621
 3217DOPG   C1A60461  20.195  20.313  13.045 -0.0161 -0.0055 -0.0196
 3217DOPG   D2A60462  20.004  20.078  13.428 -0.2053  0.0773  0.2345
 3217DOPG   C3A60463  20.016  20.251  13.866 -0.0407  0.0377 -0.2470
 3217DOPG   C4A60464  20.165  20.643  13.992 -0.3481 -0.0005  0.2425
 3217DOPG   C1B60465  20.389  20.655  13.444  0.0725  0.0407 -0.2160
 3217DOPG   D2B60466  20.549  20.173  13.499  0.2001 -0.3514  0.1453
 3217DOPG   C3B60467  20.941  20.037  13.660 -0.3095 -0.1831 -0.0089
 3217DOPG   C4B60468  21.002  19.907  14.019  0.1254 -0.0761  0.2607
 3218DOPG   GL060469  21.833  16.671  12.614  0.1237  0.0659  0.0015
 3218DOPG   PO460470  21.460  16.761  12.404 -0.2537  0.0198  0.2055
 3218DOPG   GL160471  21.357  16.710  12.719  0.2590  0.3498 -0.0322
 3218DOPG   GL260472  21.411  16.997  12.846  0.2734  0.1510 -0.3614
 3218DOPG   C1A60473  21.280  16.495  13.079 -0.2732 -0.4363 -0.1070
 3218DOPG   D2A60474  21.259  16.429  13.458 -0.0941 -0.0979 -0.0992
 3218DOPG   C3A60475  21.113  16.659  13.662 -0.0830 -0.3468 -0.0971
 3218DOPG   C4A60476  20.747  17.051  13.656 -0.0562 -0.2088 -0.2632
 3218DOPG   C1B60477  21.134  17.046  13.043  0.0350 -0.2488 -0.1345
 3218DOPG   D2B60478  20.934  17.421  13.382 -0.1630 -0.1753 -0.0397
 3218DOPG   C3B60479  20.616  17.803  13.405 -0.1448 -0.0770 -0.1268
 3218DOPG   C4B60480  20.491  18.098  13.543  0.1619 -0.0650  0.0057
 3219DOPG   GL060481  15.324   7.836  15.407  0.0999 -0.1813  0.0318
 3219DOPG   PO460482  15.658   7.762  15.703  0.2973  0.0204 -0.3440
 3219DOPG   GL160483  15.567   8.236  15.659  0.3143 -0.1228  0.3423
 3219DOPG   GL260484  15.265   8.383  15.630 -0.0481 -0.1013  0.1598
 3219DOPG   C1A60485  15.773   8.484  15.869 -0.2726  0.1161 -0.1953
 3219DOPG   D2A60486  15.897   8.624  16.257 -0.3083 -0.1760  0.0906
 3219DOPG   C3A60487  15.922   9.001  16.478 -0.0244  0.0229  0.2055
 3219DOPG   C4A60488  16.176   9.442  16.398 -0.0012  0.1511  0.2981
 3219DOPG   C1B60489  14.968   8.424  15.993 -0.0697  0.0165  0.0371
 3219DOPG   D2B60490  14.893   8.639  16.261 -0.0744  0.2192 -0.0830
 3219DOPG   C3B60491  14.842   8.362  16.642 -0.2490 -0.4073 -0.0845
 3219DOPG   C4B60492  15.081   8.156  16.901  0.3347 -0.1273 -0.3132
 3220DOPG   GL060493  21.876  24.586  16.968 -0.1992 -0.2165 -0.2495
 3220DOPG   PO460494  22.229  24.380  16.802  0.1199  0.0347  0.1192
 3220DOPG   GL160495  22.286  24.121  17.148  0.2325  0.1900 -0.4189
 3220DOPG   GL260496  22.340  24.379  17.390  0.0667 -0.1708  0.1376
 3220DOPG   C1A60497  22.546  23.775  17.264  0.3142  0.0262 -0.1492
 3220DOPG   D2A60498  22.737  23.589  17.531 -0.1835 -0.4260  0.1831
 3220DOPG   C3A60499  22.683  23.390  17.973  0.2267 -0.0809  0.0146
 3220DOPG   C4A60500  23.020  23.320  18.191  0.0122  0.0698 -0.0151
 3220DOPG   C1B60501  22.268  24.018  17.591 -0.0975 -0.1048  0.0256
 3220DOPG   D2B60502  22.211  23.584  17.762 -0.1122 -0.1387 -0.1916
 3220DOPG   C3B60503  22.256  23.144  17.564  0.3641  0.3226  0.2115
 3220DOPG   C4B60504  22.178  22.766  17.345  0.1469  0.2320 -0.0691
 3221DOPG   GL060505   9.110  25.504  16.530  0.0665  0.0964 -0.0860
 3221DOPG   PO460506   8.773  25.250  16.607  0.0963  0.1454  0.2894
 3221DOPG   GL160507   8.844  24.766  16.742 -0.1834  0.1470  0.0280
 3221DOPG   GL260508   9.155  24.510  16.733 -0.1687  0.3433 -0.1611
 3221DOPG   C1A60509   8.744  24.431  16.501  0.1694  0.1689  0.3964
 3221DOPG   D2A60510   9.039  24.060  16.395 -0.0585  0.1411 -0.1694
 3221DOPG   C3A60511   9.494  24.139  16.465  0.1365  0.1100 -0.0162
 3221DOPG   C4A60512   9.586  24.508  16.493 -0.1326 -0.2833  0.1753
 3221DOPG   C1B60513   8.974  24.168  16.887  0.0648 -0.3356 -0.1185
 3221DOPG   D2B60514   8.649  23.876  16.796 -0.3722  0.0831 -0.1686
 3221DOPG   C3B60515   8.825  23.589  16.528  0.2540 -0.1430 -0.1846
 3221DOPG   C4B60516   8.860  23.066  16.365  0.0686  0.0230 -0.1615
 3222DOPG   GL060517  16.383   7.295  18.677  0.2289 -0.0452  0.1297
 3222DOPG   PO460518  16.270   7.757  18.720  0.1923  0.3418 -0.2911
 3222DOPG   GL160519  16.208   8.163  18.523  0.3624 -0.0533 -0.0811
 3222DOPG   GL260520  16.361   8.311  18.356  0.1744  0.2116 -0.0761
 3222DOPG   C1A60521  16.085   8.637  18.656 -0.2991 -0.1625 -0.0477
 3222DOPG   D2A60522  15.581   8.829  18.698  0.0480 -0.0457  0.3197
 3222DOPG   C3A60523  15.532   9.329  18.461 -0.0243 -0.5256  0.1281
 3222DOPG   C4A60524  15.467   9.715  18.357  0.2032  0.0056  0.2277
 3222DOPG   C1B60525  16.595   8.668  18.616  0.0169  0.0072  0.0271
 3222DOPG   D2B60526  16.674   9.039  18.631  0.2836  0.2111 -0.0013
 3222DOPG   C3B60527  16.645   9.342  18.324 -0.3965  0.1222  0.2268
 3222DOPG   C4B60528  16.705   9.806  18.183 -0.2177  0.1216 -0.2326
 3223DOPG   GL060529  18.606  19.517  11.301  0.1411  0.0598  0.1114
 3223DOPG   PO460530  18.713  19.062  11.258 -0.1026  0.0825  0.0627
 3223DOPG   GL160531  18.593  19.047  11.688 -0.2050  0.2679 -0.0807
 3223DOPG   GL260532  18.352  19.140  11.946 -0.0074 -0.0897 -0.0112
 3223DOPG   C1A60533  18.702  18.678  11.985  0.2353  0.0782 -0.1011
 3223DOPG   D2A60534  18.992  18.617  12.240 -0.1359  0.0127  0.1621
 3223DOPG   C3A60535  19.162  18.380  12.624  0.0552  0.0802 -0.0731
 3223DOPG   C4A60536  19.244  18.048  12.918  0.2120  0.2239 -0.0300
 3223DOPG   C1B60537  18.055  19.117  12.246  0.2341  0.0720  0.3890
 3223DOPG   D2B60538  17.617  19.142  12.240 -0.0584 -0.1280 -0.3091
 3223DOPG   C3B60539  17.428  18.853  12.301 -0.1080 -0.3702 -0.1956
 3223DOPG   C4B60540  17.357  18.502  12.210 -0.1322 -0.0893  0.1446
 3224DOPG   GL060541  13.491  12.204  12.006 -0.3138 -0.0478  0.1474
 3224DOPG   PO460542  13.418  11.791  11.971 -0.0584  0.1874 -0.0332
 3224DOPG   GL160543  13.504  11.693  12.359  0.0369 -0.1859  0.1478
 3224DOPG   GL260544  13.838  11.694  12.405 -0.1397 -0.0449  0.2047
 3224DOPG   C1A60545  13.609  11.364  12.766 -0.1232 -0.2261  0.1455
 3224DOPG   D2A60546  13.769  11.373  13.104  0.0386  0.0894 -0.0316
 3224DOPG   C3A60547  13.519  11.673  13.159 -0.0756 -0.0411 -0.0219
 3224DOPG   C4A60548  13.193  11.945  13.358 -0.1004  0.0047 -0.0809
 3224DOPG   C1B60549  13.776  12.093  12.372 -0.2219 -0.0443 -0.1096
 3224DOPG   D2B60550  13.550  12.484  12.491 -0.1062 -0.0570 -0.0823
 3224DOPG   C3B60551  13.562  12.763  12.798  0.2781 -0.1787 -0.1717
 3224DOPG   C4B60552  13.723  12.707  13.167  0.0789  0.3913  0.0308
 3225DOPG   GL060553  23.661  12.758  17.480 -0.1842 -0.1491 -0.1301
 3225DOPG   PO460554  23.430  12.764  17.039  0.1209 -0.3573  0.1903
 3225DOPG   GL160555  23.190  13.137  17.235  0.2368  0.1017  0.1674
 3225DOPG   GL260556  22.973  13.108  16.929  0.3384 -0.0957  0.3954
 3225DOPG   C1A60557  23.026  13.576  17.178  0.1694  0.0796 -0.1603
 3225DOPG   D2A60558  22.905  13.962  17.252  0.0601 -0.1684  0.1231
 3225DOPG   C3A60559  22.493  14.069  17.093  0.0194 -0.2949  0.1399
 3225DOPG   C4A60560  22.066  14.376  17.081 -0.1491 -0.1506  0.0432
 3225DOPG   C1B60561  22.663  13.173  17.177 -0.0607  0.0032  0.0187
 3225DOPG   D2B60562  22.315  13.153  16.880 -0.0072 -0.1815 -0.5144
 3225DOPG   C3B60563  22.027  13.405  16.931  0.0734  0.5638  0.1860
 3225DOPG   C4B60564  21.918  13.840  17.064 -0.2622 -0.1823  0.1693
 3226DOPG   GL060565  11.925   6.724  17.291 -0.1404  0.0001 -0.0721
 3226DOPG   PO460566  12.223   6.864  16.955 -0.0400  0.1152 -0.2079
 3226DOPG   GL160567  12.379   7.197  17.135  0.0523  0.1649 -0.2441
 3226DOPG   GL260568  12.296   7.255  17.449  0.1030  0.0072 -0.2498
 3226DOPG   C1A60569  12.319   7.716  17.095 -0.1041 -0.1864  0.1210
 3226DOPG   D2A60570  12.489   8.175  16.942  0.1165  0.0277  0.0763
 3226DOPG   C3A60571  12.416   8.384  16.576  0.2285 -0.0316  0.0828
 3226DOPG   C4A60572  12.470   8.835  16.546 -0.2470  0.2307  0.3416
 3226DOPG   C1B60573  12.042   7.590  17.541  0.1781 -0.2183  0.0245
 3226DOPG   D2B60574  11.818   7.725  17.119  0.0749  0.1023  0.1174
 3226DOPG   C3B60575  11.728   8.152  17.067 -0.0793  0.0338 -0.0794
 3226DOPG   C4B60576  11.538   8.484  17.179 -0.3354 -0.1469 -0.1821
 3227DOPG   GL060577  16.497  24.197  16.034  0.0784 -0.3287  0.0111
 3227DOPG   PO460578  16.929  24.248  16.230 -0.1033  0.0546 -0.0327
 3227DOPG   GL160579  16.807  23.849  16.288 -0.0048 -0.0517 -0.2703
 3227DOPG   GL260580  16.683  23.718  16.056  0.3965 -0.4617 -0.1880
 3227DOPG   C1A60581  17.006  23.465  16.398 -0.2580  0.0535  0.1026
 3227DOPG   D2A60582  17.176  23.015  16.355  0.2886  0.1399 -0.1846
 3227DOPG   C3A60583  17.642  22.843  16.444 -0.0714 -0.1756 -0.2630
 3227DOPG   C4A60584  17.951  23.000  16.247 -0.4718 -0.2023 -0.0349
 3227DOPG   C1B60585  16.332  23.501  16.011  0.0589 -0.3372  0.0414
 3227DOPG   D2B60586  16.026  23.368  16.361  0.3285  0.1730  0.0262
 3227DOPG   C3B60587  15.869  23.663  16.675 -0.1501 -0.0201  0.4053
 3227DOPG   C4B60588  15.521  23.918  16.538  0.2231  0.0119  0.0991
 3228DOPG   GL060589  13.147  24.870  14.154 -0.3504  0.1812 -0.0301
 3228DOPG   PO460590  13.526  24.670  14.426  0.1177  0.1308  0.0026
 3228DOPG   GL160591  13.582  24.431  14.695  0.1176  0.2196 -0.1898
 3228DOPG   GL260592  13.491  24.521  15.017  0.0991 -0.0533  0.0754
 3228DOPG   C1A60593  13.724  24.096  14.854  0.1889 -0.0404  0.2387
 3228DOPG   D2A60594  13.991  23.882  15.021  0.0485 -0.0561  0.0939
 3228DOPG   C3A60595  14.361  23.854  15.355  0.1298  0.5218  0.0129
 3228DOPG   C4A60596  14.544  24.355  15.661 -0.0672  0.1784 -0.0573
 3228DOPG   C1B60597  13.227  24.097  14.853 -0.1346 -0.0958 -0.1523
 3228DOPG   D2B60598  13.289  23.764  14.738  0.3215  0.2458 -0.0499
 3228DOPG   C3B60599  13.517  23.565  14.872  0.0802 -0.1058 -0.1162
 3228DOPG   C4B60600  13.707  23.514  15.233  0.1644  0.2074 -0.0834
 3229DOPG   GL060601   8.951   8.353  17.410 -0.1573 -0.0127  0.0365
 3229DOPG   PO460602   8.989   8.273  16.977  0.3580 -0.2152 -0.0427
 3229DOPG   GL160603   9.306   8.144  16.718  0.0106  0.1362  0.0033
 3229DOPG   GL260604   9.327   7.881  16.470 -0.2350 -0.2554 -0.2439
 3229DOPG   C1A60605   9.713   8.116  16.906 -0.0838 -0.0402 -0.0627
 3229DOPG   D2A60606  10.180   8.038  17.070  0.3496 -0.3453 -0.2610
 3229DOPG   C3A60607  10.433   8.450  17.088 -0.3697  0.4542  0.1473
 3229DOPG   C4A60608  10.527   8.846  17.219 -0.0273  0.1605  0.2138
 3229DOPG   C1B60609   9.503   8.252  16.322  0.2116 -0.1629 -0.0414
 3229DOPG   D2B60610   9.771   8.628  16.099  0.1408  0.0377 -0.1484
 3229DOPG   C3B60611  10.164   8.659  16.325 -0.0704 -0.2918 -0.0490
 3229DOPG   C4B60612  10.274   8.823  16.710 -0.1832  0.0153 -0.1315
 3230DOPG   GL060613  19.497  12.380  13.793  0.1772  0.2957 -0.1948
 3230DOPG   PO460614  19.810  12.363  13.432  0.1262  0.1274  0.0273
 3230DOPG   GL160615  19.768  12.776  13.514 -0.0924 -0.0070  0.1566
 3230DOPG   GL260616  19.984  12.993  13.652 -0.1094 -0.1181 -0.1399
 3230DOPG   C1A60617  19.547  12.938  13.822 -0.3188  0.3908  0.1481
 3230DOPG   D2A60618  19.694  12.691  14.281 -0.1894 -0.1220 -0.4263
 3230DOPG   C3A60619  19.656  12.801  14.728 -0.0594  0.3196 -0.0996
 3230DOPG   C4A60620  19.320  12.636  15.011  0.2165 -0.4243 -0.0515
 3230DOPG   C1B60621  19.949  13.327  14.028 -0.1201 -0.0468 -0.2858
 3230DOPG   D2B60622  19.837  13.616  14.393  0.1082  0.1877  0.0817
 3230DOPG   C3B60623  19.428  13.637  14.579  0.1827 -0.0365 -0.0943
 3230DOPG   C4B60624  19.026  13.362  14.544 -0.2488 -0.2266 -0.1314
 3231DOPG   GL060625  18.838  13.272  12.032 -0.1200 -0.2560 -0.0067
 3231DOPG   PO460626  18.864  13.396  12.381  0.2713 -0.0146  0.0254
 3231DOPG   GL160627  18.770  13.294  12.766 -0.1838 -0.4069 -0.1010
 3231DOPG   GL260628  18.754  13.617  12.829 -0.0139 -0.2181  0.2646
 3231DOPG   C1A60629  18.772  13.000  13.251  0.0200 -0.0395 -0.1885
 3231DOPG   D2A60630  18.647  13.036  13.628  0.1624  0.0408 -0.1661
 3231DOPG   C3A60631  18.696  12.794  14.005 -0.4378 -0.2751  0.2554
 3231DOPG   C4A60632  18.513  13.009  14.445  0.1020  0.1769 -0.2229
 3231DOPG   C1B60633  18.563  13.651  13.282  0.4776  0.1005 -0.2881
 3231DOPG   D2B60634  18.423  13.705  13.790  0.0716 -0.0963  0.3509
 3231DOPG   C3B60635  18.683  13.393  14.064  0.0961  0.1324 -0.0403
 3231DOPG   C4B60636  19.016  13.185  14.010 -0.1660 -0.0244  0.0511
 3232DOPG   GL060637  22.970  18.926  13.527 -0.2603 -0.0048 -0.0444
 3232DOPG   PO460638  22.819  19.218  13.354  0.3219 -0.0975 -0.3952
 3232DOPG   GL160639  22.765  19.319  13.761 -0.0529  0.0389  0.4840
 3232DOPG   GL260640  23.046  19.351  13.965 -0.1971  0.1179 -0.1572
 3232DOPG   C1A60641  22.432  19.434  13.945 -0.1541  0.0768 -0.0336
 3232DOPG   D2A60642  22.095  19.586  14.306  0.3015  0.0409  0.0324
 3232DOPG   C3A60643  22.011  19.379  14.750  0.0723 -0.1693  0.0635
 3232DOPG   C4A60644  21.622  19.153  14.926 -0.1349 -0.1862  0.1181
 3232DOPG   C1B60645  23.209  19.090  14.407 -0.0896  0.2898 -0.2576
 3232DOPG   D2B60646  23.371  18.732  14.634 -0.0903  0.0944  0.0106
 3232DOPG   C3B60647  23.742  18.632  14.616  0.0729 -0.3128 -0.1366
 3232DOPG   C4B60648  24.193  18.722  14.554  0.3355 -0.0902  0.0350
 3233DOPG   GL060649  12.557   7.280  16.623  0.1769  0.0675  0.0958
 3233DOPG   PO460650  12.090   7.280  16.654  0.1110  0.1160 -0.1882
 3233DOPG   GL160651  12.165   7.773  16.515 -0.0997 -0.0456 -0.1528
 3233DOPG   GL260652  12.021   7.922  16.716  0.2721  0.0658  0.0649
 3233DOPG   C1A60653  12.109   8.095  16.195 -0.0755 -0.0587 -0.1360
 3233DOPG   D2A60654  12.043   8.528  16.144 -0.1081 -0.0252  0.1470
 3233DOPG   C3A60655  12.386   8.748  15.997 -0.2959 -0.1490  0.4025
 3233DOPG   C4A60656  12.729   8.767  15.637 -0.2279 -0.2323  0.0102
 3233DOPG   C1B60657  11.856   8.305  16.576  0.1637  0.0341  0.2664
 3233DOPG   D2B60658  11.554   8.621  16.400  0.1407 -0.1121 -0.1212
 3233DOPG   C3B60659  11.417   8.556  16.023 -0.0423  0.1051 -0.0232
 3233DOPG   C4B60660  11.721   8.720  15.748  0.4592 -0.1203  0.3004
 3234DOPG   GL060661  13.195  24.009  13.876  0.1573  0.1596 -0.1508
 3234DOPG   PO460662  12.878  23.872  14.016 -0.0858 -0.2879 -0.0712
 3234DOPG   GL160663  12.699  23.656  14.333 -0.1341 -0.0687  0.1019
 3234DOPG   GL260664  12.863  23.840  14.531  0.2942  0.2398 -0.2070
 3234DOPG   C1A60665  12.388  23.415  14.454 -0.3286  0.4429  0.2895
 3234DOPG   D2A60666  12.245  22.933  14.303 -0.1114  0.2711 -0.1834
 3234DOPG   C3A60667  11.913  22.781  14.099 -0.0444  0.0430 -0.1111
 3234DOPG   C4A60668  11.418  22.673  14.044 -0.0549  0.1442 -0.2358
 3234DOPG   C1B60669  12.750  23.735  14.925 -0.0990  0.1046  0.4496
 3234DOPG   D2B60670  12.818  23.774  15.314  0.1224 -0.0929  0.1853
 3234DOPG   C3B60671  12.672  23.787  15.619 -0.2519 -0.3000 -0.0150
 3234DOPG   C4B60672  12.794  23.971  16.097 -0.0990  0.0558  0.0582
 3235DOPG   GL060673  23.039  18.017  12.943 -0.0391 -0.0825 -0.0412
 3235DOPG   PO460674  23.277  17.681  13.077  0.4131  0.2217 -0.1603
 3235DOPG   GL160675  23.492  17.501  13.560 -0.0177 -0.4081 -0.1257
 3235DOPG   GL260676  23.503  17.827  13.726 -0.0269 -0.1683 -0.2232
 3235DOPG   C1A60677  23.268  17.518  13.991  0.4019  0.1606 -0.0624
 3235DOPG   D2A60678  23.001  17.336  14.338 -0.2520  0.0453  0.1064
 3235DOPG   C3A60679  22.792  17.298  14.759 -0.0440 -0.1203 -0.0569
 3235DOPG   C4A60680  22.561  17.279  15.147  0.2392  0.1228 -0.0185
 3235DOPG   C1B60681  23.576  18.027  14.159  0.2851  0.1198  0.2166
 3235DOPG   D2B60682  23.685  18.186  14.588 -0.1096  0.0544  0.2371
 3235DOPG   C3B60683  23.728  18.021  15.009 -0.4792 -0.1915 -0.0482
 3235DOPG   C4B60684  23.627  17.760  15.339 -0.3027  0.1392  0.1714
 3236DOPG   GL060685   7.535  17.907  13.683 -0.1313 -0.2603  0.0533
 3236DOPG   PO460686   7.842  18.179  13.825 -0.0645 -0.0650 -0.2415
 3236DOPG   GL160687   7.657  18.263  14.263 -0.2025 -0.0283 -0.0813
 3236DOPG   GL260688   7.401  18.510  14.326 -0.2563  0.1297  0.0938
 3236DOPG   C1A60689   7.679  18.000  14.616 -0.1263  0.0251 -0.0192
 3236DOPG   D2A60690   7.266  17.827  14.932 -0.1080  0.1910 -0.0941
 3236DOPG   C3A60691   7.231  17.595  15.306  0.1096  0.1370 -0.1322
 3236DOPG   C4A60692   7.320  17.725  15.800 -0.0535  0.0776  0.0944
 3236DOPG   C1B60693   7.336  18.876  14.495  0.3622  0.1923 -0.1074
 3236DOPG   D2B60694   7.373  19.178  14.785 -0.2351 -0.0706  0.2720
 3236DOPG   C3B60695   7.356  19.562  14.777  0.0114  0.1222 -0.0038
 3236DOPG   C4B60696   7.221  19.923  14.576 -0.1408  0.0925  0.1517
 3237DOPG   GL060697  17.211   9.027  14.700 -0.1872  0.0442 -0.0598
 3237DOPG   PO460698  17.543   9.298  14.777 -0.3186  0.0114 -0.1542
 3237DOPG   GL160699  17.122   9.545  14.666 -0.0895  0.1138 -0.0403
 3237DOPG   GL260700  17.366   9.926  14.512 -0.5721 -0.1786 -0.0651
 3237DOPG   C1A60701  16.717   9.715  14.870 -0.2540  0.1146 -0.2005
 3237DOPG   D2A60702  16.304   9.668  15.103  0.1482  0.0571  0.1005
 3237DOPG   C3A60703  15.943   9.539  15.368 -0.1407  0.1427  0.0342
 3237DOPG   C4A60704  15.689   9.243  15.586  0.2517  0.3548  0.2713
 3237DOPG   C1B60705  17.147  10.008  14.895  0.1784  0.0953 -0.1507
 3237DOPG   D2B60706  17.115  10.164  15.316  0.0933 -0.2084  0.0055
 3237DOPG   C3B60707  16.718  10.309  15.496 -0.0329  0.0669  0.1774
 3237DOPG   C4B60708  16.298  10.052  15.369  0.0718  0.1150 -0.0587
 3238DOPG   GL060709  22.108  23.900  16.346 -0.0175 -0.0609 -0.4455
 3238DOPG   PO460710  22.523  23.688  16.212  0.1599 -0.1907  0.0289
 3238DOPG   GL160711  22.298  23.398  16.467 -0.0002  0.1273  0.2331
 3238DOPG   GL260712  21.920  23.443  16.487  0.0415 -0.2215 -0.3574
 3238DOPG   C1A60713  22.344  23.000  16.518 -0.4355 -0.4402  0.2058
 3238DOPG   D2A60714  22.451  22.657  16.515 -0.0184 -0.0863 -0.0382
 3238DOPG   C3A60715  22.269  22.275  16.379  0.0910  0.0176  0.2011
 3238DOPG   C4A60716  22.302  21.913  16.662  0.0157 -0.3127  0.5374
 3238DOPG   C1B60717  21.836  23.177  16.711 -0.1965 -0.4834  0.1731
 3238DOPG   D2B60718  21.903  22.910  16.980 -0.3086 -0.1311 -0.1810
 3238DOPG   C3B60719  21.613  22.558  17.073 -0.2524 -0.0604 -0.0092
 3238DOPG   C4B60720  21.309  22.403  16.721  0.1356 -0.4909  0.1985
 3239DOPG   GL060721   7.394  15.405  13.502  0.1533  0.1882 -0.4401
 3239DOPG   PO460722   7.806  15.113  13.573  0.1946 -0.3131  0.0138
 3239DOPG   GL160723   7.975  15.430  13.896 -0.1607 -0.0337  0.3237
 3239DOPG   GL260724   8.251  15.563  13.955 -0.0852  0.1133 -0.1616
 3239DOPG   C1A60725   7.776  15.427  14.328  0.0304 -0.2834 -0.1671
 3239DOPG   D2A60726   8.009  15.386  14.813 -0.0700  0.2007  0.0605
 3239DOPG   C3A60727   8.442  15.443  14.960  0.0980 -0.1737 -0.2899
 3239DOPG   C4A60728   8.834  15.433  14.765  0.0574  0.0145  0.2826
 3239DOPG   C1B60729   8.601  15.800  14.143 -0.4495  0.1096 -0.0271
 3239DOPG   D2B60730   8.662  15.932  14.482 -0.0828 -0.2369  0.1979
 3239DOPG   C3B60731   9.098  16.007  14.588 -0.1249 -0.4655  0.4292
 3239DOPG   C4B60732   9.367  16.362  14.725 -0.1221  0.2137  0.0568
 3240DOPG   GL060733  15.384  10.885  12.659  0.2944  0.2723 -0.1720
 3240DOPG   PO460734  15.736  10.736  12.856  0.0969  0.0089 -0.3482
 3240DOPG   GL160735  15.772  11.084  12.991 -0.1493 -0.4850 -0.2707
 3240DOPG   GL260736  15.870  11.305  12.889 -0.3692  0.2564 -0.0715
 3240DOPG   C1A60737  15.940  11.109  13.393 -0.2110 -0.0222  0.1286
 3240DOPG   D2A60738  16.041  10.734  13.708  0.2618 -0.1390  0.0817
 3240DOPG   C3A60739  15.662  10.373  13.811  0.3221  0.0792 -0.2128
 3240DOPG   C4A60740  15.373  10.019  14.024  0.4563  0.1999 -0.2218
 3240DOPG   C1B60741  15.710  11.558  13.249  0.0896  0.0121 -0.1408
 3240DOPG   D2B60742  15.516  11.916  13.512 -0.2883 -0.0691 -0.1787
 3240DOPG   C3B60743  15.774  12.025  13.789  0.1138  0.1250  0.1438
 3240DOPG   C4B60744  16.160  12.064  13.939  0.0601  0.0599 -0.0301
 3241DOPG   GL060745   8.785   7.762  15.841 -0.3038  0.1745 -0.0169
 3241DOPG   PO460746   9.192   7.909  15.528  0.2143  0.1951  0.1878
 3241DOPG   GL160747   9.459   8.190  15.502 -0.1885 -0.1640 -0.0209
 3241DOPG   GL260748   9.583   8.418  15.602  0.4132  0.0474 -0.3560
 3241DOPG   C1A60749   9.916   8.140  15.311  0.0174 -0.0576  0.1170
 3241DOPG   D2A60750  10.254   8.486  15.177 -0.1797  0.0024  0.3318
 3241DOPG   C3A60751  10.202   8.928  15.120 -0.0659  0.2214  0.3210
 3241DOPG   C4A60752  10.296   9.346  14.802 -0.0892  0.0384  0.0142
 3241DOPG   C1B60753   9.963   8.733  15.673  0.0873  0.5087 -0.0744
 3241DOPG   D2B60754  10.121   9.218  15.598  0.1621  0.1197  0.1542
 3241DOPG   C3B60755  10.496   9.254  15.334  0.2697 -0.2417  0.0917
 3241DOPG   C4B60756  10.940   9.292  15.435  0.3768  0.0197 -0.0491
 3242DOPG   GL060757  21.259  19.181  11.716  0.1707  0.3657 -0.2363
 3242DOPG   PO460758  21.329  18.902  12.078 -0.1322  0.0028  0.2354
 3242DOPG   GL160759  21.435  19.181  12.434  0.1415  0.0164  0.3598
 3242DOPG   GL260760  21.314  18.981  12.688  0.1693 -0.4600  0.0542
 3242DOPG   C1A60761  21.182  19.519  12.660  0.0693 -0.0581 -0.1581
 3242DOPG   D2A60762  20.928  19.342  13.085 -0.0271  0.1659  0.0812
 3242DOPG   C3A60763  21.089  19.524  13.477 -0.1051  0.1780  0.1171
 3242DOPG   C4A60764  21.295  19.551  13.855  0.0591 -0.0967  0.2064
 3242DOPG   C1B60765  21.526  19.151  12.999  0.0670 -0.3083  0.1482
 3242DOPG   D2B60766  21.708  18.966  13.446 -0.2897 -0.2217  0.0029
 3242DOPG   C3B60767  21.670  19.128  13.902  0.1806  0.0186 -0.2044
 3242DOPG   C4B60768  21.628  19.135  14.358  0.2089 -0.0425  0.1265
 3243DOPG   GL060769  15.546  12.722  11.635 -0.0103  0.3815 -0.1561
 3243DOPG   PO460770  15.235  12.439  11.835  0.0345 -0.1582 -0.0285
 3243DOPG   GL160771  15.133  12.394  12.247  0.0697 -0.0662  0.2582
 3243DOPG   GL260772  14.805  12.273  12.251 -0.0612  0.2000 -0.3962
 3243DOPG   C1A60773  15.016  12.584  12.623 -0.0603  0.0236  0.2076
 3243DOPG   D2A60774  14.645  12.685  12.977 -0.2033 -0.0504  0.1680
 3243DOPG   C3A60775  14.687  12.986  13.488  0.1304  0.0642  0.3261
 3243DOPG   C4A60776  15.142  13.166  13.690 -0.0441 -0.3305  0.1560
 3243DOPG   C1B60777  14.484  12.405  12.477 -0.0615  0.4575 -0.3738
 3243DOPG   D2B60778  14.352  12.304  12.892 -0.0009 -0.2724  0.0117
 3243DOPG   C3B60779  13.953  12.285  12.834  0.1193  0.0058 -0.0967
 3243DOPG   C4B60780  13.578  12.130  12.916  0.0938  0.2903 -0.1200
 3244DOPG   GL060781  13.216  13.586  10.836  0.3242  0.2475 -0.0187
 3244DOPG   PO460782  13.288  13.942  11.018  0.1206  0.0512 -0.0365
 3244DOPG   GL160783  13.285  13.887  11.429  0.1841  0.1975  0.0546
 3244DOPG   GL260784  13.209  13.627  11.565  0.0629  0.1376  0.1895
 3244DOPG   C1A60785  13.482  14.079  11.861  0.1228 -0.0321 -0.1354
 3244DOPG   D2A60786  13.587  14.432  12.127  0.0748 -0.1219 -0.0895
 3244DOPG   C3A60787  13.501  14.427  12.534  0.1166 -0.1226 -0.1336
 3244DOPG   C4A60788  13.155  14.171  12.636 -0.1525  0.1633  0.2816
 3244DOPG   C1B60789  13.336  13.597  11.955  0.3435 -0.1953  0.1461
 3244DOPG   D2B60790  13.369  13.860  12.330 -0.1567  0.0131 -0.0964
 3244DOPG   C3B60791  13.743  14.002  12.583  0.1450 -0.1620 -0.1522
 3244DOPG   C4B60792  14.116  14.081  12.924  0.0869  0.1131  0.0915
 3245DOPG   GL060793   9.751  13.839  12.033  0.3559  0.0856 -0.0003
 3245DOPG   PO460794   9.873  14.171  12.300  0.2917  0.1463 -0.0298
 3245DOPG   GL160795  10.210  14.343  12.438 -0.1398  0.0494  0.2919
 3245DOPG   GL260796  10.104  14.441  12.741  0.1752 -0.1460 -0.2625
 3245DOPG   C1A60797  10.692  14.385  12.590 -0.2108  0.5382 -0.1755
 3245DOPG   D2A60798  10.773  14.510  12.987  0.1663  0.2406  0.2383
 3245DOPG   C3A60799  11.138  14.494  13.262  0.0202  0.0913  0.1302
 3245DOPG   C4A60800  11.126  14.712  13.619 -0.2639  0.7394 -0.0823
 3245DOPG   C1B60801  10.306  14.409  13.185 -0.0982  0.1353  0.1373
 3245DOPG   D2B60802  10.613  14.357  13.540 -0.1199  0.2849 -0.3787
 3245DOPG   C3B60803  10.500  14.501  13.989 -0.2061  0.2837  0.3529
 3245DOPG   C4B60804  10.260  14.460  14.280  0.4142 -0.0474 -0.2098
 3246DOPG   GL060805   7.605  23.981  13.840 -0.0381  0.5569 -0.0131
 3246DOPG   PO460806   7.854  24.312  13.769 -0.4198  0.1428  0.1032
 3246DOPG   GL160807   8.090  23.898  13.930  0.0518 -0.1519  0.2906
 3246DOPG   GL260808   8.175  24.001  14.164  0.0214  0.1277 -0.3776
 3246DOPG   C1A60809   8.059  23.431  14.155  0.0189  0.0836 -0.0044
 3246DOPG   D2A60810   7.767  23.324  14.502 -0.0211  0.0841  0.1342
 3246DOPG   C3A60811   7.762  23.219  14.956 -0.1184  0.2097  0.0881
 3246DOPG   C4A60812   7.758  23.300  15.385 -0.0351  0.1704 -0.0780
 3246DOPG   C1B60813   7.785  23.751  14.278 -0.0283 -0.0030  0.0464
 3246DOPG   D2B60814   7.347  23.580  14.357 -0.0306 -0.0605 -0.0788
 3246DOPG   C3B60815   7.316  23.259  14.110 -0.2871 -0.0054  0.1951
 3246DOPG   C4B60816   7.201  22.982  13.804  0.0709 -0.1233  0.0349
 3247DOPG   GL060817  21.642  14.453  13.496  0.1765 -0.0639  0.1385
 3247DOPG   PO460818  21.329  14.299  13.720  0.0202  0.0767 -0.0110
 3247DOPG   GL160819  21.022  14.413  14.086  0.0246 -0.0766  0.1045
 3247DOPG   GL260820  21.210  14.327  14.392  0.3423  0.2271  0.0507
 3247DOPG   C1A60821  20.898  14.846  14.349 -0.1283 -0.2129 -0.0433
 3247DOPG   D2A60822  20.830  14.928  14.750 -0.2352  0.2337  0.2868
 3247DOPG   C3A60823  20.858  15.332  14.923 -0.1484 -0.0619  0.1303
 3247DOPG   C4A60824  21.166  15.818  15.136 -0.1815 -0.3066  0.3859
 3247DOPG   C1B60825  20.838  14.380  14.647 -0.3089 -0.3409 -0.1114
 3247DOPG   D2B60826  20.647  14.470  14.905 -0.1202  0.1638  0.2157
 3247DOPG   C3B60827  20.179  14.726  14.926  0.0127 -0.2181 -0.1370
 3247DOPG   C4B60828  19.868  15.032  14.783 -0.0267  0.0867 -0.2037
 3248DOPG   GL060829  10.224  20.347  12.488  0.1662  0.3441 -0.1018
 3248DOPG   PO460830  10.392  20.639  12.445 -0.1050  0.2038 -0.0440
 3248DOPG   GL160831  10.359  20.537  12.914 -0.4407 -0.1537  0.0367
 3248DOPG   GL260832  10.205  20.711  13.097  0.3132 -0.2669 -0.0200
 3248DOPG   C1A60833  10.625  20.359  13.323  0.2776  0.0385  0.0781
 3248DOPG   D2A60834  10.371  20.173  13.616 -0.2191 -0.3998  0.2028
 3248DOPG   C3A60835  10.574  20.051  13.995 -0.0401  0.1954 -0.2048
 3248DOPG   C4A60836  10.646  20.194  14.384 -0.2925 -0.0054  0.1611
 3248DOPG   C1B60837  10.418  20.728  13.580  0.6093  0.1009  0.1862
 3248DOPG   D2B60838  10.555  20.513  13.912  0.0310 -0.0274  0.1046
 3248DOPG   C3B60839  11.018  20.530  13.998  0.1084 -0.1044  0.0805
 3248DOPG   C4B60840  11.523  20.723  14.019 -0.2267  0.1574  0.1582
 3249DOPG   GL060841  15.046  13.912  11.068  0.0690  0.1055 -0.2056
 3249DOPG   PO460842  15.265  14.226  11.245 -0.0528 -0.0565 -0.1021
 3249DOPG   GL160843  15.116  14.351  11.585 -0.2115  0.0389 -0.1742
 3249DOPG   GL260844  15.087  14.704  11.701  0.0996  0.1080 -0.1922
 3249DOPG   C1A60845  14.991  14.351  12.121 -0.0481  0.0568  0.1046
 3249DOPG   D2A60846  14.741  14.225  12.390  0.0207  0.3602  0.2860
 3249DOPG   C3A60847  14.678  13.927  12.684 -0.0694  0.2218 -0.0643
 3249DOPG   C4A60848  14.575  13.991  13.247 -0.2172  0.1204 -0.2889
 3249DOPG   C1B60849  15.320  14.753  12.076 -0.2008 -0.1507  0.3715
 3249DOPG   D2B60850  15.459  14.874  12.430  0.0119 -0.0720 -0.0304
 3249DOPG   C3B60851  15.710  15.108  12.302 -0.2603 -0.2721 -0.1255
 3249DOPG   C4B60852  16.008  15.511  12.382 -0.2638 -0.1518  0.1026
 3250DOPG   GL060853   9.096  16.461  12.693  0.3297  0.1104  0.1297
 3250DOPG   PO460854   9.464  16.528  12.346 -0.1451  0.1520  0.0575
 3250DOPG   GL160855   9.922  16.588  12.601 -0.0754 -0.0072  0.0941
 3250DOPG   GL260856  10.080  16.412  12.914  0.1065  0.0779  0.1455
 3250DOPG   C1A60857  10.354  16.754  12.726 -0.2466 -0.0210  0.1223
 3250DOPG   D2A60858  10.429  17.057  12.954  0.4347 -0.1121  0.1563
 3250DOPG   C3A60859  10.398  17.132  13.330  0.0591 -0.1264  0.1594
 3250DOPG   C4A60860  10.273  17.177  13.858 -0.1305 -0.0852  0.2465
 3250DOPG   C1B60861  10.324  16.648  13.196 -0.0552  0.3438 -0.0272
 3250DOPG   D2B60862  10.696  16.536  13.341  0.1111 -0.1734  0.3482
 3250DOPG   C3B60863  10.885  16.414  13.699  0.3198  0.1098  0.0777
 3250DOPG   C4B60864  10.687  16.457  14.155  0.1427  0.0159 -0.0763
 3251DOPG   GL060865  20.696  23.535  14.613  0.5186 -0.2895  0.2551
 3251DOPG   PO460866  20.596  23.396  15.049  0.2190 -0.2208  0.4686
 3251DOPG   GL160867  20.564  23.268  15.453  0.3257  0.0621  0.3344
 3251DOPG   GL260868  20.753  23.181  15.801  0.0430  0.1711  0.0369
 3251DOPG   C1A60869  20.493  22.845  15.566  0.0357  0.2327  0.1143
 3251DOPG   D2A60870  20.593  22.465  15.256  0.1939  0.1963 -0.3028
 3251DOPG   C3A60871  20.751  21.993  15.453 -0.0907  0.0824 -0.1023
 3251DOPG   C4A60872  20.925  21.837  15.829  0.1683 -0.0119  0.3213
 3251DOPG   C1B60873  20.397  22.912  16.004  0.2153  0.1392 -0.3021
 3251DOPG   D2B60874  20.098  22.734  15.875  0.4401  0.2567  0.0957
 3251DOPG   C3B60875  20.058  22.497  15.526  0.1821 -0.0856  0.0948
 3251DOPG   C4B60876  20.191  22.168  15.437 -0.0997  0.0085 -0.0855
 3252DOPG   GL060877  23.672  12.084  18.041 -0.1296 -0.0767 -0.1968
 3252DOPG   PO460878  23.470  12.382  18.261 -0.2513 -0.0460  0.1974
 3252DOPG   GL160879  23.616  12.876  18.303 -0.0709 -0.2017 -0.0189
 3252DOPG   GL260880  23.542  13.081  18.009  0.1833 -0.2948 -0.0792
 3252DOPG   C1A60881  23.348  13.347  18.353 -0.1231 -0.3054 -0.2529
 3252DOPG   D2A60882  23.151  13.565  18.125 -0.0646  0.0616 -0.0149
 3252DOPG   C3A60883  23.230  14.022  18.174  0.1320  0.0174 -0.0894
 3252DOPG   C4A60884  23.153  14.385  18.210  0.2978 -0.1581  0.0567
 3252DOPG   C1B60885  23.165  13.056  17.804 -0.0099 -0.4168  0.1691
 3252DOPG   D2B60886  22.920  13.377  17.628  0.0160  0.0934  0.0178
 3252DOPG   C3B60887  22.854  13.783  17.702  0.1527  0.2263  0.0816
 3252DOPG   C4B60888  22.749  14.137  17.994 -0.2031 -0.0042 -0.0484
 3253DOPG   GL060889  24.201  13.419  16.203 -0.0083  0.3327 -0.0542
 3253DOPG   PO460890  24.366  13.722  16.088  0.0354 -0.0970  0.1981
 3253DOPG   GL160891  24.010  13.878  16.325 -0.0866  0.3449 -0.0789
 3253DOPG   GL260892  23.849  13.659  16.546 -0.0162  0.1562  0.0642
 3253DOPG   C1A60893  23.589  13.939  16.186 -0.0223  0.2944  0.2167
 3253DOPG   D2A60894  23.323  13.888  16.598 -0.0542 -0.0725 -0.2737
 3253DOPG   C3A60895  22.958  13.916  16.755  0.5100 -0.1182 -0.2203
 3253DOPG   C4A60896  22.680  14.275  16.733 -0.0919  0.3740 -0.0429
 3253DOPG   C1B60897  23.825  13.962  16.881  0.0461 -0.2111 -0.1143
 3253DOPG   D2B60898  23.761  14.455  17.011 -0.1954 -0.1651  0.1545
 3253DOPG   C3B60899  23.892  14.934  16.933 -0.0328 -0.2173  0.0970
 3253DOPG   C4B60900  24.094  15.214  16.674  0.5437  0.2554  0.0413
 3254DOPG   GL060901  17.769  14.857  11.447 -0.0306  0.0549  0.3842
 3254DOPG   PO460902  17.780  14.481  11.685 -0.2052  0.0007  0.0927
 3254DOPG   GL160903  18.022  14.594  12.006  0.0527  0.2071 -0.0239
 3254DOPG   GL260904  18.257  14.455  12.043 -0.2056 -0.2358  0.0687
 3254DOPG   C1A60905  17.955  14.638  12.441 -0.2548 -0.0492 -0.2376
 3254DOPG   D2A60906  18.353  14.605  12.855 -0.0921 -0.0847 -0.1525
 3254DOPG   C3A60907  18.487  15.051  13.035 -0.2189 -0.0910 -0.0402
 3254DOPG   C4A60908  18.420  15.477  13.359 -0.1874  0.0366  0.0824
 3254DOPG   C1B60909  18.579  14.413  12.417 -0.0304  0.1804 -0.0460
 3254DOPG   D2B60910  18.666  14.170  12.792 -0.0839 -0.1863 -0.2072
 3254DOPG   C3B60911  18.372  14.095  13.146  0.0227 -0.2565 -0.1407
 3254DOPG   C4B60912  18.088  13.966  13.475  0.2306 -0.2095 -0.0111
 3255DOPG   GL060913  26.146  22.618  18.854 -0.1180  0.2128  0.2556
 3255DOPG   PO460914  25.950  22.334  19.033 -0.2354  0.1631 -0.1380
 3255DOPG   GL160915  25.620  22.183  19.135 -0.0813  0.2085  0.3066
 3255DOPG   GL260916  25.255  22.233  19.420  0.1903 -0.0756  0.0605
 3255DOPG   C1A60917  25.170  22.213  18.944  0.2656  0.3089  0.2747
 3255DOPG   D2A60918  24.792  22.243  18.860  0.2125  0.1139 -0.1222
 3255DOPG   C3A60919  24.506  22.175  18.526 -0.1605 -0.0940 -0.0452
 3255DOPG   C4A60920  24.025  22.160  18.497 -0.0244 -0.2412 -0.0305
 3255DOPG   C1B60921  25.022  21.921  19.305 -0.1758  0.0745  0.0196
 3255DOPG   D2B60922  24.731  21.713  18.934  0.3730  0.1967 -0.2175
 3255DOPG   C3B60923  24.921  21.777  18.568  0.2325 -0.1941 -0.0878
 3255DOPG   C4B60924  24.671  21.517  18.319 -0.3238  0.1992 -0.1346
 3256DOPG   GL060925  22.032  14.927  13.157  0.0495  0.0915 -0.2044
 3256DOPG   PO460926  21.882  15.331  13.153 -0.0948 -0.0957 -0.1370
 3256DOPG   GL160927  21.500  15.560  13.006  0.2075  0.3612  0.0365
 3256DOPG   GL260928  21.419  15.776  12.715  0.2879 -0.5837  0.2237
 3256DOPG   C1A60929  21.310  15.858  13.262 -0.1802  0.1664 -0.2782
 3256DOPG   D2A60930  21.232  15.999  13.741 -0.0812 -0.0253 -0.0094
 3256DOPG   C3A60931  21.552  15.889  13.942  0.2582 -0.0477 -0.1419
 3256DOPG   C4A60932  21.748  15.585  14.271  0.3031  0.3959  0.0838
 3256DOPG   C1B60933  20.948  15.811  12.867  0.4658  0.0509  0.1514
 3256DOPG   D2B60934  20.642  15.759  13.246  0.3107  0.0714 -0.0057
 3256DOPG   C3B60935  20.220  15.729  13.180 -0.2439  0.1768  0.1406
 3256DOPG   C4B60936  19.937  15.582  13.495  0.1048  0.0845  0.0403
 3257DOPG   GL060937  19.363  11.442  13.688  0.0376  0.1130  0.0508
 3257DOPG   PO460938  19.685  11.331  13.955 -0.1796 -0.1493 -0.0491
 3257DOPG   GL160939  19.440  11.600  14.189 -0.0566  0.4027 -0.2429
 3257DOPG   GL260940  19.465  11.883  13.989  0.2525  0.4756  0.0402
 3257DOPG   C1A60941  19.172  11.845  14.533  0.1153 -0.0547  0.2637
 3257DOPG   D2A60942  18.911  11.916  14.827  0.0879  0.0066  0.1019
 3257DOPG   C3A60943  18.740  12.294  15.038  0.0781  0.2237  0.0057
 3257DOPG   C4A60944  18.390  12.355  15.118 -0.3590  0.1696  0.0176
 3257DOPG   C1B60945  19.200  12.110  14.150  0.1199  0.2930  0.3070
 3257DOPG   D2B60946  19.175  12.570  14.101 -0.1289 -0.2684  0.1722
 3257DOPG   C3B60947  19.179  12.893  14.389  0.0460 -0.2848  0.0162
 3257DOPG   C4B60948  19.490  13.188  14.334 -0.3386  0.2512 -0.4552
 3258DOPG   GL060949  13.465  21.514  11.960  0.2476  0.2155 -0.1115
 3258DOPG   PO460950  13.709  21.540  12.238  0.0600  0.1514  0.2344
 3258DOPG   GL160951  13.781  21.442  12.742 -0.0832 -0.0307 -0.5200
 3258DOPG   GL260952  13.857  21.625  12.986 -0.0920 -0.0110 -0.2413
 3258DOPG   C1A60953  13.911  21.108  13.118  0.0101 -0.1278 -0.0801
 3258DOPG   D2A60954  13.815  20.707  13.309 -0.0673 -0.0086  0.2238
 3258DOPG   C3A60955  13.454  20.636  13.683 -0.1021  0.0538 -0.0947
 3258DOPG   C4A60956  13.225  20.292  13.665  0.1101  0.0333 -0.1825
 3258DOPG   C1B60957  13.846  21.505  13.436 -0.1735  0.1656 -0.0527
 3258DOPG   D2B60958  13.701  21.540  13.862 -0.0836  0.0267  0.0711
 3258DOPG   C3B60959  13.556  21.840  13.782  0.1466  0.0311  0.0884
 3258DOPG   C4B60960  13.729  21.960  13.370  0.5691 -0.1465  0.0736
 3259DOPG   GL060961  17.774  16.088  10.742  0.0585  0.0428 -0.1771
 3259DOPG   PO460962  17.664  15.791  10.940 -0.0227  0.0411 -0.0981
 3259DOPG   GL160963  17.738  16.125  11.267  0.1085 -0.0621  0.1953
 3259DOPG   GL260964  17.445  16.218  11.424 -0.2677  0.0573  0.2662
 3259DOPG   C1A60965  17.821  16.151  11.718 -0.1464 -0.1710 -0.0968
 3259DOPG   D2A60966  17.903  15.987  12.181  0.2080 -0.0654 -0.0922
 3259DOPG   C3A60967  18.297  16.069  12.379  0.1745 -0.2786  0.1830
 3259DOPG   C4A60968  18.662  16.300  12.564  0.3339  0.3567  0.0727
 3259DOPG   C1B60969  17.223  16.317  11.831 -0.1692 -0.1413  0.2719
 3259DOPG   D2B60970  16.828  16.436  11.902  0.0722 -0.0811  0.0659
 3259DOPG   C3B60971  16.764  16.715  12.145 -0.1109  0.1883 -0.0362
 3259DOPG   C4B60972  16.502  16.997  12.345  0.6153  0.1663  0.0978
 3260DOPG   GL060973  15.690  21.890  12.126 -0.0966  0.1432  0.4054
 3260DOPG   PO460974  15.730  22.096  12.528 -0.1025  0.0710 -0.1067
 3260DOPG   GL160975  15.514  22.086  12.850 -0.0743  0.0658 -0.0326
 3260DOPG   GL260976  15.397  22.329  12.943  0.3264 -0.0374  0.1229
 3260DOPG   C1A60977  15.471  21.767  13.141  0.0158  0.0893 -0.0411
 3260DOPG   D2A60978  15.484  21.382  13.267 -0.3123 -0.2012 -0.2744
 3260DOPG   C3A60979  15.173  21.066  13.318 -0.6348 -0.0027 -0.2581
 3260DOPG   C4A60980  14.896  20.822  13.085 -0.3143 -0.1661 -0.1852
 3260DOPG   C1B60981  15.180  22.208  13.259  0.1221  0.1142  0.0746
 3260DOPG   D2B60982  14.939  22.241  13.652  0.1460  0.0903 -0.0390
 3260DOPG   C3B60983  15.138  21.942  14.017 -0.4079 -0.0667  0.0071
 3260DOPG   C4B60984  14.973  21.841  14.390 -0.0793  0.1898 -0.2534
 3261DOPG   GL060985   9.556  10.170  12.978 -0.1535  0.0069 -0.1211
 3261DOPG   PO460986   9.931   9.945  12.816 -0.0411 -0.2638 -0.2939
 3261DOPG   GL160987  10.048  10.157  13.278  0.0824 -0.0726  0.0525
 3261DOPG   GL260988  10.443  10.083  13.378 -0.1155  0.0174 -0.1761
 3261DOPG   C1A60989  10.061  10.412  13.674  0.1895  0.0079 -0.2723
 3261DOPG   D2A60990  10.166  10.510  14.102 -0.2342 -0.2773 -0.0525
 3261DOPG   C3A60991   9.908  10.411  14.393  0.0663  0.0726 -0.4083
 3261DOPG   C4A60992   9.548  10.394  14.484 -0.1653  0.0193 -0.0164
 3261DOPG   C1B60993  10.632  10.211  13.774  0.1385  0.1531 -0.1965
 3261DOPG   D2B60994  10.814  10.003  14.084 -0.2496  0.5395 -0.3191
 3261DOPG   C3B60995  11.247  10.005  14.229  0.0777 -0.0867 -0.0691
 3261DOPG   C4B60996  11.655  10.015  14.501 -0.1293 -0.2412  0.1630
 3262DOPG   GL060997  20.048  18.795  11.141  0.0533 -0.3030 -0.1314
 3262DOPG   PO460998  19.684  18.817  11.378 -0.2487  0.0831 -0.1139
 3262DOPG   GL160999  19.563  18.777  11.714 -0.1882  0.0202 -0.2376
 3262DOPG   GL261000  19.632  18.587  11.924  0.0906  0.1899 -0.0920
 3262DOPG   C1A61001  19.232  18.962  11.911 -0.2652 -0.0106 -0.3695
 3262DOPG   D2A61002  18.910  19.104  12.049  0.0883 -0.2042  0.1443
 3262DOPG   C3A61003  19.013  19.161  12.441  0.0095 -0.0486  0.0343
 3262DOPG   C4A61004  19.048  19.494  12.654  0.1793  0.0177  0.1602
 3262DOPG   C1B61005  19.416  18.725  12.397  0.3828 -0.1647 -0.0804
 3262DOPG   D2B61006  19.402  19.037  12.754 -0.1111 -0.2414  0.3305
 3262DOPG   C3B61007  19.241  19.107  13.098  0.0830 -0.3334 -0.3604
 3262DOPG   C4B61008  18.945  19.556  13.197 -0.0790  0.2151  0.2239
 3263DOPG   GL061009   8.209  13.188  12.685  0.4382  0.0864 -0.1903
 3263DOPG   PO461010   7.972  13.215  13.032  0.1743 -0.0676 -0.1365
 3263DOPG   GL161011   8.251  13.318  13.400  0.0424  0.1535 -0.0321
 3263DOPG   GL261012   8.419  13.647  13.545  0.1179  0.1687  0.0225
 3263DOPG   C1A61013   8.598  13.132  13.676 -0.1051  0.0345 -0.2278
 3263DOPG   D2A61014   8.672  12.714  13.760  0.1923 -0.0700 -0.1002
 3263DOPG   C3A61015   8.419  12.399  13.825 -0.1063 -0.0303  0.2043
 3263DOPG   C4A61016   8.564  11.932  13.912  0.0644  0.2304 -0.4043
 3263DOPG   C1B61017   8.292  13.837  13.936  0.1171  0.0700  0.0665
 3263DOPG   D2B61018   8.480  13.867  14.301 -0.0537 -0.2002  0.3240
 3263DOPG   C3B61019   8.880  14.130  14.194 -0.1207 -0.0113 -0.1161
 3263DOPG   C4B61020   8.961  14.566  13.872 -0.1386  0.2682 -0.0178
 3264DOPG   GL061021  17.113  15.648  11.176 -0.0296  0.0728 -0.1144
 3264DOPG   PO461022  16.745  15.897  10.994 -0.3135  0.1731  0.1476
 3264DOPG   GL161023  16.579  15.890  11.331  0.0391  0.1767 -0.1022
 3264DOPG   GL261024  16.358  16.150  11.284  0.1670  0.1520 -0.0288
 3264DOPG   C1A61025  16.592  15.929  11.791 -0.3369  0.3748 -0.2855
 3264DOPG   D2A61026  16.588  16.050  12.173 -0.2087  0.1100 -0.0965
 3264DOPG   C3A61027  16.836  15.868  12.506  0.0154  0.1208 -0.0959
 3264DOPG   C4A61028  17.025  15.782  12.913 -0.0407  0.0168 -0.3345
 3264DOPG   C1B61029  16.197  16.379  11.656  0.2425  0.1660  0.1882
 3264DOPG   D2B61030  16.281  16.461  12.097  0.0964 -0.0529  0.1973
 3264DOPG   C3B61031  16.198  16.250  12.487  0.1508 -0.1893  0.3489
 3264DOPG   C4B61032  16.379  15.899  12.652  0.3058  0.2041 -0.0024
 3265DOPG   GL061033  22.048  20.560  12.449  0.0228 -0.2788  0.0700
 3265DOPG   PO461034  22.025  20.607  12.883 -0.0298  0.0893 -0.1339
 3265DOPG   GL161035  22.414  20.553  13.182  0.0744 -0.1387 -0.1308
 3265DOPG   GL261036  22.459  20.828  13.458  0.1889 -0.3223  0.3334
 3265DOPG   C1A61037  22.702  20.378  13.536  0.0507  0.0966 -0.0467
 3265DOPG   D2A61038  22.573  20.272  13.949  0.2709  0.0832 -0.0618
 3265DOPG   C3A61039  22.768  20.272  14.309 -0.1111 -0.2743  0.1905
 3265DOPG   C4A61040  23.104  19.973  14.422 -0.2689  0.0086 -0.0543
 3265DOPG   C1B61041  22.276  20.742  13.849 -0.1023  0.1028 -0.0846
 3265DOPG   D2B61042  22.352  20.586  14.263  0.0281  0.0363  0.1036
 3265DOPG   C3B61043  22.181  20.733  14.559  0.3335  0.1285 -0.0241
 3265DOPG   C4B61044  22.172  20.646  15.028 -0.1304  0.0653 -0.0588
 3266DOPG   GL061045  16.721   8.877  15.606  0.0448  0.0013 -0.1725
 3266DOPG   PO461046  16.660   8.891  16.075  0.3262 -0.0876  0.3638
 3266DOPG   GL161047  16.560   9.009  16.474  0.0958  0.0963  0.1337
 3266DOPG   GL261048  16.899   9.111  16.472 -0.0531 -0.1612  0.1532
 3266DOPG   C1A61049  16.455   9.365  16.735  0.0436 -0.0894 -0.2673
 3266DOPG   D2A61050  16.573   9.677  16.866 -0.1119  0.1045 -0.0569
 3266DOPG   C3A61051  16.261  10.079  16.825 -0.5210 -0.3730  0.2564
 3266DOPG   C4A61052  16.148  10.532  17.040  0.2929 -0.1431 -0.2437
 3266DOPG   C1B61053  16.870   9.614  16.465 -0.0527 -0.2931  0.0626
 3266DOPG   D2B61054  16.702  10.066  16.544 -0.0457  0.2250 -0.2406
 3266DOPG   C3B61055  16.767  10.398  16.831  0.0404 -0.0298 -0.2159
 3266DOPG   C4B61056  17.011  10.312  17.180  0.0493 -0.2570 -0.1057
 3267DOPG   GL061057  19.814  21.324  12.888 -0.2845  0.0419  0.1332
 3267DOPG   PO461058  20.196  21.241  12.775 -0.0611 -0.2878 -0.2236
 3267DOPG   GL161059  20.238  21.402  13.137  0.0746 -0.1841 -0.1319
 3267DOPG   GL261060  19.956  21.480  13.349 -0.2760 -0.0823 -0.0352
 3267DOPG   C1A61061  20.508  21.447  13.556  0.1767  0.2671 -0.1031
 3267DOPG   D2A61062  20.517  21.349  14.061 -0.0970 -0.0720  0.1104
 3267DOPG   C3A61063  20.811  21.517  14.433  0.1005  0.1448  0.0655
 3267DOPG   C4A61064  21.153  21.574  14.549 -0.0462 -0.1767 -0.0174
 3267DOPG   C1B61065  20.128  21.065  13.689  0.0501  0.0223 -0.0644
 3267DOPG   D2B61066  20.583  20.970  13.714  0.1726  0.0267 -0.0075
 3267DOPG   C3B61067  20.937  20.848  14.083  0.2227  0.0262 -0.3804
 3267DOPG   C4B61068  21.060  21.042  14.491  0.2110  0.0462  0.0431
 3268DOPG   GL061069  16.499  12.026  11.739  0.1197  0.3717 -0.4717
 3268DOPG   PO461070  16.463  12.284  12.098  0.2344  0.2994  0.0126
 3268DOPG   GL161071  16.301  12.437  12.438  0.1992  0.3265 -0.0969
 3268DOPG   GL261072  16.031  12.189  12.526  0.1000 -0.1964 -0.0367
 3268DOPG   C1A61073  15.959  12.670  12.684 -0.3221 -0.0295  0.2626
 3268DOPG   D2A61074  15.865  12.593  13.088 -0.2249  0.0159 -0.2312
 3268DOPG   C3A61075  15.896  12.594  13.552  0.1115 -0.0124 -0.1063
 3268DOPG   C4A61076  16.287  12.444  13.617 -0.0955 -0.0715 -0.1432
 3268DOPG   C1B61077  16.276  12.275  12.959 -0.2521 -0.1657  0.1887
 3268DOPG   D2B61078  16.396  12.657  13.149 -0.1085 -0.0421 -0.0972
 3268DOPG   C3B61079  16.399  12.967  13.378  0.3183 -0.4461  0.1716
 3268DOPG   C4B61080  16.250  13.459  13.477 -0.2493 -0.4562  0.2289
 3269DOPG   GL061081  14.548  10.596  11.928  0.3012  0.1744  0.0690
 3269DOPG   PO461082  14.501  10.831  12.344 -0.0458 -0.1790  0.0219
 3269DOPG   GL161083  14.372  10.925  12.678  0.1337 -0.3066 -0.1940
 3269DOPG   GL261084  14.065  10.870  12.769 -0.1144  0.1152  0.1080
 3269DOPG   C1A61085  14.553  10.854  13.017  0.3145 -0.0244  0.1635
 3269DOPG   D2A61086  14.654  10.618  13.407 -0.0272  0.1574 -0.0616
 3269DOPG   C3A61087  15.030  10.877  13.699 -0.0839 -0.2095  0.0917
 3269DOPG   C4A61088  15.437  10.895  13.520  0.1959 -0.0239 -0.1890
 3269DOPG   C1B61089  14.205  11.262  12.927 -0.0185  0.3079  0.0913
 3269DOPG   D2B61090  14.227  11.679  12.878  0.2681  0.3073  0.4024
 3269DOPG   C3B61091  13.965  11.868  13.127 -0.1835  0.0380 -0.0217
 3269DOPG   C4B61092  13.788  12.169  13.390 -0.2417 -0.0695 -0.2057
 3270DOPG   GL061093   9.539  22.746  13.680 -0.1293  0.0249  0.6220
 3270DOPG   PO461094   9.262  23.061  13.673 -0.3680 -0.1831 -0.1563
 3270DOPG   GL161095   8.965  22.692  13.795 -0.0011  0.0965 -0.0487
 3270DOPG   GL261096   8.993  22.314  13.816 -0.1659 -0.0384  0.0683
 3270DOPG   C1A61097   8.662  22.417  14.205 -0.1593 -0.3837 -0.0206
 3270DOPG   D2A61098   8.267  22.462  14.512  0.1199  0.2756 -0.0830
 3270DOPG   C3A61099   8.250  22.742  14.827 -0.1634 -0.2924  0.1032
 3270DOPG   C4A61100   7.948  22.810  15.152  0.0761  0.0298  0.2226
 3270DOPG   C1B61101   9.420  22.367  14.070  0.0043  0.2146  0.1528
 3270DOPG   D2B61102   9.468  22.130  14.516 -0.5705  0.2134 -0.3953
 3270DOPG   C3B61103   9.175  21.910  14.570 -0.1280 -0.3983  0.1870
 3270DOPG   C4B61104   8.806  21.914  14.329  0.0798  0.1047  0.1989
 3271DOPG   GL061105  23.784  16.716  13.191 -0.0322  0.3597  0.1151
 3271DOPG   PO461106  23.867  17.061  13.432  0.0051  0.1275 -0.0769
 3271DOPG   GL161107  23.809  17.335  13.863  0.1648  0.3126 -0.2021
 3271DOPG   GL261108  23.963  17.316  14.019  0.1922 -0.0253  0.0197
 3271DOPG   C1A61109  23.653  17.521  14.331 -0.0906  0.1956 -0.1398
 3271DOPG   D2A61110  23.278  17.761  14.467  0.2207 -0.3035 -0.1674
 3271DOPG   C3A61111  23.033  17.940  14.163  0.2561 -0.4154 -0.2361
 3271DOPG   C4A61112  22.752  18.297  14.064  0.0657  0.1760 -0.1705
 3271DOPG   C1B61113  24.150  17.701  14.216  0.1324 -0.0711 -0.3054
 3271DOPG   D2B61114  24.050  18.099  14.234 -0.1168 -0.1150 -0.2825
 3271DOPG   C3B61115  24.200  18.407  13.997 -0.0492  0.2033 -0.4239
 3271DOPG   C4B61116  24.479  18.763  13.945 -0.0769  0.2564  0.3591
 3272DOPG   GL061117  11.794   7.012  16.276 -0.1858 -0.0115 -0.1117
 3272DOPG   PO461118  11.569   6.594  16.349 -0.0951 -0.0314 -0.1339
 3272DOPG   GL161119  11.306   7.055  16.477  0.1143 -0.2458  0.1275
 3272DOPG   GL261120  11.522   7.378  16.596 -0.0961 -0.1168 -0.3908
 3272DOPG   C1A61121  11.022   7.459  16.355 -0.3384  0.2637 -0.1169
 3272DOPG   D2A61122  11.230   7.675  16.184  0.0393 -0.0786  0.1212
 3272DOPG   C3A61123  11.627   7.542  16.076  0.1836 -0.3791 -0.0353
 3272DOPG   C4A61124  11.977   7.738  15.738 -0.1535  0.1644  0.0280
 3272DOPG   C1B61125  11.579   7.804  16.548  0.2062 -0.2028  0.1172
 3272DOPG   D2B61126  11.541   8.045  16.225  0.0031 -0.0800 -0.0339
 3272DOPG   C3B61127  11.493   8.090  15.820 -0.0418  0.3245 -0.0227
 3272DOPG   C4B61128  11.568   8.321  15.444 -0.2534  0.0528  0.2647
 3273DOPG   GL061129   9.629  18.664  12.746 -0.1638  0.4269 -0.1647
 3273DOPG   PO461130   9.446  19.038  12.803 -0.1797 -0.2107  0.0526
 3273DOPG   GL161131   9.554  19.172  13.111  0.0561 -0.0274 -0.0191
 3273DOPG   GL261132   9.712  18.971  13.233 -0.0002  0.1191  0.0723
 3273DOPG   C1A61133   9.420  19.168  13.618  0.2269  0.0385 -0.0511
 3273DOPG   D2A61134   9.237  19.192  14.017  0.1219 -0.2519  0.1613
 3273DOPG   C3A61135   9.349  19.555  14.275  0.0383 -0.1013 -0.0696
 3273DOPG   C4A61136   9.601  19.875  14.333 -0.1980 -0.2488 -0.1560
 3273DOPG   C1B61137   9.909  18.867  13.630 -0.0584  0.2445 -0.1668
 3273DOPG   D2B61138  10.192  18.893  13.939 -0.1029 -0.0087  0.3002
 3273DOPG   C3B61139  10.132  19.044  14.307 -0.0977 -0.0242 -0.2131
 3273DOPG   C4B61140  10.188  19.310  14.634  0.1263  0.0765  0.0674
 3274DOPG   GL061141  16.578  22.414  12.222 -0.2805 -0.3407  0.0868
 3274DOPG   PO461142  16.847  22.279  12.554  0.0854  0.0716 -0.0234
 3274DOPG   GL161143  16.886  21.953  12.762 -0.3061 -0.4126  0.0087
 3274DOPG   GL261144  16.933  21.705  12.546 -0.1616  0.2682  0.2468
 3274DOPG   C1A61145  16.922  21.885  13.213  0.1509  0.0745  0.1341
 3274DOPG   D2A61146  17.224  21.888  13.581 -0.1212 -0.1363 -0.5545
 3274DOPG   C3A61147  17.278  21.457  13.772 -0.3165  0.3061  0.0106
 3274DOPG   C4A61148  17.398  21.151  14.080  0.1244  0.1381 -0.0850
 3274DOPG   C1B61149  17.038  21.456  12.891 -0.0607 -0.1616  0.3957
 3274DOPG   D2B61150  17.171  21.408  13.264  0.1353 -0.0276 -0.1292
 3274DOPG   C3B61151  17.321  20.977  13.499 -0.0281 -0.0701  0.4230
 3274DOPG   C4B61152  17.531  20.611  13.367 -0.0706 -0.0573  0.0087
 3275DOPG   GL061153  14.766  17.193  10.651  0.0895 -0.0611  0.0960
 3275DOPG   PO461154  14.434  16.983  10.619 -0.2671  0.1458 -0.3039
 3275DOPG   GL161155  14.404  16.887  11.056 -0.2692  0.0385  0.1130
 3275DOPG   GL261156  14.453  16.629  11.282  0.0132 -0.3873  0.2689
 3275DOPG   C1A61157  14.032  16.897  11.307  0.0620 -0.2213  0.3801
 3275DOPG   D2A61158  13.859  16.980  11.705  0.2322  0.3368  0.0388
 3275DOPG   C3A61159  14.070  16.840  12.110 -0.0206 -0.0449  0.3766
 3275DOPG   C4A61160  13.847  16.725  12.476 -0.3799 -0.1159  0.1347
 3275DOPG   C1B61161  14.178  16.535  11.600 -0.0848 -0.1055  0.2509
 3275DOPG   D2B61162  14.174  16.346  11.984 -0.1880  0.0119 -0.1281
 3275DOPG   C3B61163  14.400  16.582  12.393 -0.0148 -0.0140 -0.3280
 3275DOPG   C4B61164  14.660  16.887  12.672 -0.0629  0.1006  0.1610
 3276DOPG   GL061165  16.541  14.886  11.268  0.0577  0.3163  0.1465
 3276DOPG   PO461166  17.047  15.010  11.331 -0.0892 -0.1041  0.2961
 3276DOPG   GL161167  17.310  15.174  11.567  0.0317  0.1819  0.0188
 3276DOPG   GL261168  17.435  15.520  11.521 -0.1170  0.0000  0.0401
 3276DOPG   C1A61169  17.259  15.335  12.034 -0.1594 -0.2414 -0.0798
 3276DOPG   D2A61170  17.092  15.351  12.480  0.0269  0.2691  0.0473
 3276DOPG   C3A61171  16.850  15.110  12.819  0.2413 -0.1634  0.2221
 3276DOPG   C4A61172  16.466  14.967  13.065  0.0077  0.0201 -0.0600
 3276DOPG   C1B61173  17.472  15.843  11.925 -0.1856  0.1647 -0.3025
 3276DOPG   D2B61174  17.357  15.929  12.372 -0.1551  0.1541 -0.1055
 3276DOPG   C3B61175  17.431  16.213  12.651 -0.1307 -0.2347 -0.2758
 3276DOPG   C4B61176  17.602  16.492  12.969 -0.0943 -0.4211  0.3417
 3277DOPG   GL061177  10.363  17.033  11.815  0.3452 -0.0367 -0.0003
 3277DOPG   PO461178  10.621  17.424  11.724  0.1666  0.2556  0.0373
 3277DOPG   GL161179  10.839  17.478  12.031 -0.4064  0.3107  0.0381
 3277DOPG   GL261180  11.077  17.270  11.776 -0.1769 -0.1275  0.5014
 3277DOPG   C1A61181  11.161  17.475  12.359 -0.0446  0.1604 -0.0038
 3277DOPG   D2A61182  11.425  17.567  12.556  0.3600 -0.1556  0.3472
 3277DOPG   C3A61183  11.677  17.744  12.960  0.0359  0.0466  0.1791
 3277DOPG   C4A61184  11.813  17.567  13.290 -0.0620 -0.0071 -0.2046
 3277DOPG   C1B61185  10.789  17.001  12.133 -0.2280 -0.1615 -0.2051
 3277DOPG   D2B61186  10.626  17.167  12.463 -0.0599 -0.1133 -0.1881
 3277DOPG   C3B61187  10.968  17.245  12.798  0.0529 -0.0585  0.2668
 3277DOPG   C4B61188  10.960  17.264  13.265  0.0218 -0.1905 -0.1867
 3278DOPG   GL061189  20.487  10.728  17.974  0.2174 -0.3351 -0.0604
 3278DOPG   PO461190  20.269  10.538  17.565 -0.1812  0.3494 -0.1107
 3278DOPG   GL161191  19.927  10.676  17.382  0.2947 -0.1317 -0.1049
 3278DOPG   GL261192  19.642  10.564  17.304 -0.2299 -0.4220  0.1852
 3278DOPG   C1A61193  19.651  11.002  17.573 -0.1034 -0.2616  0.0852
 3278DOPG   D2A61194  19.306  11.073  17.839  0.1756 -0.1896  0.2181
 3278DOPG   C3A61195  19.084  11.354  17.715  0.0575 -0.2273  0.1143
 3278DOPG   C4A61196  19.088  11.700  17.371  0.0069 -0.0006 -0.1516
 3278DOPG   C1B61197  19.261  10.735  17.447 -0.0384  0.1583  0.1332
 3278DOPG   D2B61198  18.921  10.975  17.277  0.2263  0.0715 -0.1685
 3278DOPG   C3B61199  18.442  10.962  16.957 -0.2623 -0.2934 -0.1965
 3278DOPG   C4B61200  18.112  10.983  16.754  0.1119  0.0103  0.2111
 3279DOPG   GL061201  11.199  23.045  12.542 -0.1801  0.1194  0.0014
 3279DOPG   PO461202  10.874  22.963  12.769 -0.3131 -0.2004  0.1482
 3279DOPG   GL161203  10.969  22.843  13.090 -0.1213 -0.0855  0.3449
 3279DOPG   GL261204  11.090  22.482  13.131  0.1640 -0.2682  0.2262
 3279DOPG   C1A61205  11.060  22.807  13.640 -0.5247 -0.1067 -0.3929
 3279DOPG   D2A61206  11.037  22.956  14.083 -0.0745  0.0185 -0.3281
 3279DOPG   C3A61207  10.719  23.187  14.463 -0.1654 -0.1394 -0.0337
 3279DOPG   C4A61208  10.284  23.182  14.483  0.0658 -0.1229  0.1162
 3279DOPG   C1B61209  10.871  22.385  13.602 -0.1525 -0.1157 -0.0760
 3279DOPG   D2B61210  10.909  22.280  14.032 -0.1519  0.0187 -0.1913
 3279DOPG   C3B61211  11.114  22.477  14.346 -0.4527 -0.2974  0.2106
 3279DOPG   C4B61212  11.476  22.413  14.604  0.1172 -0.1635 -0.2429
 3280DOPG   GL061213   9.708  18.110  12.051 -0.0337  0.0469  0.2645
 3280DOPG   PO461214  10.077  18.044  12.103  0.0113 -0.1923 -0.1018
 3280DOPG   GL161215  10.422  18.130  12.465  0.0485 -0.0223 -0.0073
 3280DOPG   GL261216  10.646  18.469  12.500 -0.2507  0.0224  0.1070
 3280DOPG   C1A61217  10.793  18.153  12.858 -0.2733 -0.0117  0.1448
 3280DOPG   D2A61218  10.934  18.090  13.250  0.3113  0.1733  0.1674
 3280DOPG   C3A61219  10.796  17.791  13.481  0.1484  0.1230  0.2720
 3280DOPG   C4A61220  10.671  17.495  13.786 -0.1304 -0.4633 -0.6212
 3280DOPG   C1B61221  10.911  18.165  12.313 -0.1172 -0.1907  0.0173
 3280DOPG   D2B61222  11.314  18.012  12.042  0.0753 -0.1599 -0.1801
 3280DOPG   C3B61223  11.436  17.563  12.006  0.1817  0.0547  0.0922
 3280DOPG   C4B61224  11.680  17.336  12.229 -0.3082  0.0090  0.1315
 3281DOPG   GL061225  26.186  16.044  14.777 -0.1952 -0.3905 -0.4217
 3281DOPG   PO461226  26.054  16.299  14.396  0.1074  0.3193  0.1302
 3281DOPG   GL161227  25.946  16.678  14.473 -0.2628  0.1341 -0.0104
 3281DOPG   GL261228  26.015  17.062  14.462  0.2698  0.2258 -0.0008
 3281DOPG   C1A61229  25.825  16.918  14.961 -0.0730 -0.0707 -0.3570
 3281DOPG   D2A61230  25.697  16.980  15.398  0.1983  0.1943 -0.0981
 3281DOPG   C3A61231  25.638  17.370  15.462  0.1820 -0.2893 -0.2196
 3281DOPG   C4A61232  25.552  17.868  15.588 -0.0348  0.2957 -0.0355
 3281DOPG   C1B61233  25.901  17.019  14.036  0.0616 -0.0364 -0.2102
 3281DOPG   D2B61234  25.580  17.107  13.758 -0.1106 -0.3469  0.3191
 3281DOPG   C3B61235  25.652  16.951  13.465  0.0270 -0.2959 -0.0936
 3281DOPG   C4B61236  25.869  16.489  13.366  0.5870  0.0181  0.1579
 3282DOPG   GL061237  22.220  20.009  13.151  0.0073 -0.0338 -0.0278
 3282DOPG   PO461238  22.546  19.696  13.138  0.0721  0.0948  0.0833
 3282DOPG   GL161239  22.630  19.755  13.500 -0.1815  0.0968 -0.1658
 3282DOPG   GL261240  22.985  19.738  13.470 -0.1779 -0.1191 -0.0687
 3282DOPG   C1A61241  22.305  19.860  13.804  0.1110 -0.0785  0.0327
 3282DOPG   D2A61242  22.276  20.044  14.243 -0.2485  0.2178  0.2182
 3282DOPG   C3A61243  21.991  19.956  14.669 -0.3498 -0.2151 -0.1193
 3282DOPG   C4A61244  21.832  20.163  14.989  0.0972 -0.1435 -0.1761
 3282DOPG   C1B61245  22.962  19.949  13.862  0.1084 -0.1706 -0.3103
 3282DOPG   D2B61246  22.691  19.790  14.147 -0.0385  0.0113 -0.2394
 3282DOPG   C3B61247  22.864  19.428  14.441  0.1324  0.3319 -0.0975
 3282DOPG   C4B61248  23.123  19.473  14.790 -0.0815  0.5466  0.0869
 3283DOPG   GL061249  16.388  19.423  11.274 -0.3098  0.1294 -0.1013
 3283DOPG   PO461250  16.488  19.822  11.381  0.0877  0.1802  0.0551
 3283DOPG   GL161251  16.341  19.987  11.776  0.1433  0.1687 -0.1786
 3283DOPG   GL261252  16.493  20.218  11.891 -0.0453  0.0991 -0.4567
 3283DOPG   C1A61253  16.391  19.667  12.019  0.1533  0.1600 -0.0377
 3283DOPG   D2A61254  16.598  19.380  12.250 -0.3045 -0.1342  0.0587
 3283DOPG   C3A61255  16.654  19.043  12.005 -0.2087 -0.1171  0.3214
 3283DOPG   C4A61256  16.422  18.606  12.041  0.1185 -0.2204 -0.0597
 3283DOPG   C1B61257  16.739  20.135  12.083 -0.1141 -0.1573  0.2053
 3283DOPG   D2B61258  16.612  19.887  12.386 -0.0154 -0.1505  0.0601
 3283DOPG   C3B61259  16.970  19.615  12.541 -0.2266  0.0186 -0.3221
 3283DOPG   C4B61260  16.811  19.125  12.633 -0.0348  0.2601  0.0123
 3284DOPG   GL061261  14.955   7.608  14.783 -0.3313  0.0422 -0.4842
 3284DOPG   PO461262  14.879   7.874  15.081  0.1262 -0.2028 -0.2652
 3284DOPG   GL161263  14.725   8.189  15.152  0.2207  0.0301 -0.3437
 3284DOPG   GL261264  14.533   8.450  14.917 -0.1126  0.0531 -0.0698
 3284DOPG   C1A61265  14.756   8.541  15.428 -0.2455  0.0374 -0.1773
 3284DOPG   D2A61266  14.797   8.901  15.719 -0.0747  0.4103  0.2043
 3284DOPG   C3A61267  14.565   9.172  15.597  0.2034  0.1163  0.0080
 3284DOPG   C4A61268  14.192   9.297  15.359  0.3271 -0.3741 -0.2613
 3284DOPG   C1B61269  14.591   8.863  15.158 -0.0393  0.0889 -0.3515
 3284DOPG   D2B61270  14.633   9.263  14.971  0.1306 -0.0162  0.1952
 3284DOPG   C3B61271  14.287   9.509  14.871  0.0845  0.0962  0.4472
 3284DOPG   C4B61272  13.892   9.413  15.000 -0.2402 -0.0888 -0.1619
 3285DOPG   GL061273  19.322  18.467  11.314 -0.1687 -0.0041 -0.4632
 3285DOPG   PO461274  19.167  18.045  11.464 -0.1691  0.2569 -0.1425
 3285DOPG   GL161275  18.926  17.886  11.700  0.2262 -0.1411 -0.2086
 3285DOPG   GL261276  18.713  18.165  11.937  0.1515 -0.1633 -0.3777
 3285DOPG   C1A61277  18.793  17.658  12.101 -0.0853 -0.0908  0.0929
 3285DOPG   D2A61278  18.455  17.739  12.372 -0.1999 -0.1403  0.0940
 3285DOPG   C3A61279  18.747  17.668  12.726 -0.3077  0.0988  0.0576
 3285DOPG   C4A61280  18.829  17.237  12.915  0.1931  0.0543 -0.1491
 3285DOPG   C1B61281  18.754  18.157  12.344  0.1676  0.0335 -0.1729
 3285DOPG   D2B61282  18.718  18.219  12.838 -0.1001 -0.1650 -0.0270
 3285DOPG   C3B61283  18.887  18.712  12.917  0.0037 -0.2862 -0.3472
 3285DOPG   C4B61284  18.745  19.143  12.878 -0.0644 -0.2350  0.1493
 3286DOPG   GL061285  11.056   6.956  15.017  0.1367 -0.2503 -0.2710
 3286DOPG   PO461286  11.442   7.238  14.939  0.1217 -0.1523  0.1556
 3286DOPG   GL161287  11.620   7.451  15.303  0.0955  0.1087  0.0330
 3286DOPG   GL261288  11.625   7.337  15.615 -0.3889 -0.2041  0.4132
 3286DOPG   C1A61289  11.618   7.814  15.239 -0.2987  0.1935  0.1139
 3286DOPG   D2A61290  12.006   8.177  15.159 -0.2741  0.2492  0.1480
 3286DOPG   C3A61291  12.245   8.579  15.326 -0.2798 -0.1263  0.2244
 3286DOPG   C4A61292  12.334   8.901  15.334 -0.2300 -0.1836  0.1743
 3286DOPG   C1B61293  11.350   7.684  15.623  0.1162 -0.1788 -0.1133
 3286DOPG   D2B61294  10.880   7.729  15.645  0.1595 -0.0610 -0.1555
 3286DOPG   C3B61295  10.710   8.044  15.555 -0.0492  0.0536 -0.1252
 3286DOPG   C4B61296  10.785   8.311  15.283  0.3881 -0.0942 -0.4768
 3287DOPG   GL061297  16.146  23.905  14.710  0.0907  0.3662 -0.0949
 3287DOPG   PO461298  16.139  23.802  14.376 -0.1080  0.2561 -0.0924
 3287DOPG   GL161299  16.368  23.469  14.682 -0.0141  0.2194  0.3209
 3287DOPG   GL261300  16.697  23.438  14.879  0.2521  0.0911 -0.2322
 3287DOPG   C1A61301  16.252  23.310  15.079  0.1469  0.0000  0.0001
 3287DOPG   D2A61302  15.790  23.202  15.133 -0.4340 -0.1274 -0.0559
 3287DOPG   C3A61303  15.695  22.917  15.437 -0.0892  0.0271  0.0677
 3287DOPG   C4A61304  15.713  22.531  15.531  0.1524  0.3316 -0.2835
 3287DOPG   C1B61305  16.881  23.042  14.975  0.2301  0.0985  0.1212
 3287DOPG   D2B61306  16.811  22.839  15.319  0.0399  0.0807  0.0346
 3287DOPG   C3B61307  16.461  22.469  15.218 -0.0246 -0.1983  0.0337
 3287DOPG   C4B61308  16.092  22.283  15.241  0.3278  0.3577  0.0731
 3288DOPG   GL061309  15.177  18.892  15.038 -0.0356  0.1194 -0.2852
 3288DOPG   PO461310  15.028  18.835  14.630  0.2538  0.0333 -0.0189
 3288DOPG   GL161311  15.049  18.835  14.191  0.0061  0.3049 -0.3208
 3288DOPG   GL261312  14.755  18.885  13.883  0.3105 -0.2476 -0.3436
 3288DOPG   C1A61313  15.173  19.164  14.034  0.3023  0.1452 -0.1317
 3288DOPG   D2A61314  15.320  19.245  13.672  0.0486  0.1392  0.1082
 3288DOPG   C3A61315  15.163  19.372  13.305  0.0920  0.3346 -0.0678
 3288DOPG   C4A61316  14.861  19.381  12.956  0.0280 -0.0473 -0.3195
 3288DOPG   C1B61317  14.756  19.387  13.847 -0.2548  0.1999 -0.0168
 3288DOPG   D2B61318  15.015  19.681  13.952 -0.1297 -0.2449  0.0087
 3288DOPG   C3B61319  15.140  19.825  13.514  0.1783 -0.0438 -0.1693
 3288DOPG   C4B61320  15.172  20.178  13.547  0.0357 -0.1016  0.0270
 3289DOPG   GL061321  13.917  15.883  14.762 -0.1623 -0.1052 -0.2806
 3289DOPG   PO461322  14.267  16.097  14.388  0.2610  0.3610 -0.2376
 3289DOPG   GL161323  14.104  16.212  13.948 -0.2447  0.5069  0.0620
 3289DOPG   GL261324  14.379  16.105  13.879  0.1496 -0.1860  0.0568
 3289DOPG   C1A61325  14.023  16.340  13.539 -0.0370  0.1018 -0.1953
 3289DOPG   D2A61326  13.921  16.243  13.000 -0.3676 -0.0252 -0.0940
 3289DOPG   C3A61327  13.595  16.130  12.716 -0.1610  0.0058  0.0435
 3289DOPG   C4A61328  13.373  16.429  12.410  0.2096  0.1555  0.2111
 3289DOPG   C1B61329  14.496  16.230  13.468  0.1216  0.0897  0.1141
 3289DOPG   D2B61330  14.455  16.492  13.028 -0.0413 -0.2672  0.1752
 3289DOPG   C3B61331  14.378  16.143  12.612 -0.3819 -0.1077 -0.2243
 3289DOPG   C4B61332  14.007  16.121  12.383 -0.2500 -0.1407  0.2027
 3290DOPG   GL061333  19.372  17.786  14.751 -0.2323  0.2451 -0.0236
 3290DOPG   PO461334  19.307  17.513  14.505 -0.0819  0.2447 -0.2272
 3290DOPG   GL161335  19.571  17.593  14.183  0.1265  0.2003  0.1207
 3290DOPG   GL261336  19.568  17.304  14.051  0.1717 -0.2425 -0.2113
 3290DOPG   C1A61337  19.635  17.772  13.838  0.2777  0.2628  0.1949
 3290DOPG   D2A61338  19.381  17.944  13.483  0.6215  0.1001  0.0716
 3290DOPG   C3A61339  19.423  18.312  13.308  0.0550  0.1494 -0.0770
 3290DOPG   C4A61340  19.395  18.612  13.030  0.1229 -0.3922 -0.3168
 3290DOPG   C1B61341  19.868  17.257  13.722  0.3207 -0.2135  0.1773
 3290DOPG   D2B61342  19.989  17.620  13.387 -0.0542  0.0331  0.2310
 3290DOPG   C3B61343  19.651  17.730  13.075 -0.0259 -0.1167  0.0370
 3290DOPG   C4B61344  19.265  17.520  12.998  0.0122 -0.1837  0.1056
 3291DOPG   GL061345  20.332  18.333  15.826  0.0790 -0.0891 -0.2708
 3291DOPG   PO461346  20.546  18.264  15.497  0.2612 -0.1036  0.0747
 3291DOPG   GL161347  20.566  18.177  15.079 -0.3344  0.0370  0.1472
 3291DOPG   GL261348  20.295  18.005  14.887  0.1543 -0.0986  0.0383
 3291DOPG   C1A61349  20.891  18.171  14.740 -0.1702  0.1225  0.1435
 3291DOPG   D2A61350  20.923  17.890  14.349  0.0702 -0.0194 -0.0723
 3291DOPG   C3A61351  20.558  17.835  14.015  0.0438  0.1078  0.2614
 3291DOPG   C4A61352  20.210  17.741  13.907  0.1170  0.1799  0.3027
 3291DOPG   C1B61353  20.370  18.206  14.580  0.3937  0.0764 -0.1162
 3291DOPG   D2B61354  20.570  18.341  14.309 -0.1739  0.1457 -0.1462
 3291DOPG   C3B61355  20.857  18.225  13.928  0.0684  0.1954  0.0918
 3291DOPG   C4B61356  20.936  18.311  13.479 -0.1179 -0.1216 -0.2736
 3292DOPG   GL061357  16.211  14.158  15.552 -0.1794 -0.1576 -0.2328
 3292DOPG   PO461358  15.998  13.783  15.465 -0.0526  0.0965  0.0555
 3292DOPG   GL161359  16.114  13.916  15.021 -0.1417 -0.0606  0.0489
 3292DOPG   GL261360  16.318  13.642  14.969  0.0713  0.1214  0.1259
 3292DOPG   C1A61361  16.108  13.907  14.509  0.0071  0.2360  0.0580
 3292DOPG   D2A61362  15.898  13.732  14.143 -0.1366 -0.2477  0.1836
 3292DOPG   C3A61363  15.969  13.399  13.895 -0.0119 -0.0431 -0.0189
 3292DOPG   C4A61364  16.080  13.043  13.806  0.0471  0.1958 -0.0108
 3292DOPG   C1B61365  16.653  13.587  14.769  0.0442  0.3877 -0.1342
 3292DOPG   D2B61366  17.024  13.476  14.443  0.3346 -0.1286  0.0718
 3292DOPG   C3B61367  17.159  13.239  14.416 -0.1468 -0.1579 -0.1333
 3292DOPG   C4B61368  17.444  12.962  14.287  0.0837  0.1147  0.1156
 3293DOPG   GL061369  11.147  20.025  17.608  0.1987 -0.1832  0.3138
 3293DOPG   PO461370  11.493  20.168  17.451 -0.1855 -0.1974  0.0240
 3293DOPG   GL161371  11.562  19.804  17.364 -0.2510  0.0869 -0.2150
 3293DOPG   GL261372  11.340  19.623  17.180  0.2265  0.1591  0.0168
 3293DOPG   C1A61373  11.775  19.439  17.391 -0.1810  0.0506 -0.0491
 3293DOPG   D2A61374  11.558  19.189  17.674  0.0666 -0.0986  0.0412
 3293DOPG   C3A61375  11.617  18.825  17.421 -0.0609  0.0499 -0.0088
 3293DOPG   C4A61376  11.625  18.461  17.644  0.1539 -0.0188  0.0658
 3293DOPG   C1B61377  11.417  19.203  17.101 -0.2612 -0.0606 -0.2727
 3293DOPG   D2B61378  11.656  18.904  16.920  0.0040  0.0018 -0.1972
 3293DOPG   C3B61379  11.667  18.782  16.550 -0.0117  0.1349  0.0090
 3293DOPG   C4B61380  11.656  18.849  16.196  0.4321  0.0309 -0.2326
 3294DOPG   GL061381   9.917  11.998  16.819 -0.2108  0.3257 -0.2036
 3294DOPG   PO461382   9.544  11.939  16.574  0.0493 -0.2143 -0.0136
 3294DOPG   GL161383   9.300  11.876  16.310 -0.3250  0.0765 -0.3444
 3294DOPG   GL261384   9.024  11.890  16.325 -0.1925 -0.0172  0.1548
 3294DOPG   C1A61385   9.262  11.819  15.843  0.0249  0.3958 -0.1614
 3294DOPG   D2A61386   9.444  11.673  15.475  0.0649  0.0313  0.4697
 3294DOPG   C3A61387   9.296  11.237  15.316  0.2236  0.1364 -0.1112
 3294DOPG   C4A61388   8.851  10.960  15.227 -0.2194 -0.1449 -0.0101
 3294DOPG   C1B61389   8.624  11.829  16.022  0.0080  0.2276 -0.1637
 3294DOPG   D2B61390   8.490  11.759  15.648 -0.1203 -0.2830 -0.4892
 3294DOPG   C3B61391   8.341  11.453  15.394 -0.0240  0.0605 -0.0704
 3294DOPG   C4B61392   8.371  11.091  15.135  0.1629  0.0968 -0.2091
 3295DOPG   GL061393  11.917  18.515  15.086 -0.0559 -0.5123  0.0599
 3295DOPG   PO461394  11.976  18.188  14.707 -0.1260 -0.0068  0.0482
 3295DOPG   GL161395  11.664  18.189  14.388  0.1996  0.2817  0.0676
 3295DOPG   GL261396  11.361  18.061  14.583 -0.2205 -0.2473 -0.2812
 3295DOPG   C1A61397  11.448  18.320  14.133  0.0249  0.0093 -0.1452
 3295DOPG   D2A61398  11.288  18.650  13.980 -0.1828  0.1813 -0.0601
 3295DOPG   C3A61399  11.256  18.891  14.279  0.1580  0.1522  0.0077
 3295DOPG   C4A61400  11.141  19.318  14.182  0.0404  0.0609 -0.0429
 3295DOPG   C1B61401  10.872  18.144  14.724  0.0397  0.1495 -0.0854
 3295DOPG   D2B61402  10.556  18.362  14.715 -0.1253  0.1608 -0.1767
 3295DOPG   C3B61403  10.203  18.098  14.953  0.1845 -0.0491 -0.2756
 3295DOPG   C4B61404   9.852  18.029  15.266 -0.0934 -0.3828  0.3978
 3296DOPG   GL061405  13.899  16.199  15.424  0.2205  0.0868 -0.1656
 3296DOPG   PO461406  13.744  16.545  15.434  0.0769  0.2358 -0.2296
 3296DOPG   GL161407  13.581  16.618  15.792 -0.2731 -0.3363 -0.0957
 3296DOPG   GL261408  13.637  16.333  15.988  0.0840 -0.2327 -0.2201
 3296DOPG   C1A61409  13.633  16.813  16.187  0.0665 -0.0523  0.0547
 3296DOPG   D2A61410  13.477  16.887  16.591  0.2387  0.0721  0.2007
 3296DOPG   C3A61411  13.551  17.319  16.777 -0.3613 -0.1906  0.1953
 3296DOPG   C4A61412  13.735  17.725  16.824 -0.4275 -0.2446  0.1415
 3296DOPG   C1B61413  13.796  16.362  16.423  0.2974 -0.0554  0.1040
 3296DOPG   D2B61414  13.923  16.603  16.698  0.0790 -0.0525  0.1862
 3296DOPG   C3B61415  14.373  16.784  16.823 -0.0850 -0.1431  0.1344
 3296DOPG   C4B61416  14.609  17.082  16.993  0.1944 -0.0278 -0.2368
 3297DOPG   GL061417  13.646  19.635  17.875  0.2401 -0.2412 -0.0633
 3297DOPG   PO461418  13.630  19.342  18.192 -0.0699 -0.2771 -0.1113
 3297DOPG   GL161419  13.792  18.954  18.228  0.3339  0.0261  0.0136
 3297DOPG   GL261420  13.974  18.720  18.453  0.1267  0.0977  0.0827
 3297DOPG   C1A61421  13.544  18.604  18.253 -0.0394  0.0158 -0.0378
 3297DOPG   D2A61422  13.101  18.517  18.225  0.0060 -0.0459  0.1675
 3297DOPG   C3A61423  12.911  18.223  17.949  0.1634 -0.0017 -0.1488
 3297DOPG   C4A61424  13.079  17.976  17.666 -0.0619 -0.2785 -0.0520
 3297DOPG   C1B61425  14.155  18.478  18.151 -0.0530 -0.1030  0.0062
 3297DOPG   D2B61426  14.306  18.243  17.782 -0.0682 -0.1869  0.2447
 3297DOPG   C3B61427  14.440  18.170  17.428 -0.0138  0.1433  0.0055
 3297DOPG   C4B61428  14.799  18.258  17.264 -0.0128  0.0742 -0.2143
 3298DOPG   GL061429  12.502  11.805  15.665 -0.1552 -0.0868 -0.2407
 3298DOPG   PO461430  13.001  11.935  15.619  0.0007  0.0827 -0.0675
 3298DOPG   GL161431  13.328  11.939  15.314 -0.3811 -0.1912  0.3666
 3298DOPG   GL261432  13.633  11.827  15.271  0.1333 -0.2487  0.1962
 3298DOPG   C1A61433  13.326  12.151  14.910  0.1699 -0.1492  0.0030
 3298DOPG   D2A61434  13.387  12.349  14.570  0.2860  0.1052 -0.1269
 3298DOPG   C3A61435  13.394  12.243  14.086  0.1526  0.3426 -0.2783
 3298DOPG   C4A61436  13.381  12.264  13.690  0.1295  0.3548 -0.0578
 3298DOPG   C1B61437  13.528  11.533  14.870  0.0125  0.0636 -0.3051
 3298DOPG   D2B61438  13.370  11.065  14.842  0.0039 -0.2093 -0.2562
 3298DOPG   C3B61439  13.298  10.952  14.446  0.1997 -0.0049  0.0883
 3298DOPG   C4B61440  13.276  10.624  14.132  0.1516 -0.0497  0.1955
 3299DOPG   GL061441  12.697  16.550  15.498 -0.5470 -0.0231 -0.0389
 3299DOPG   PO461442  12.668  16.529  16.034  0.0123 -0.0197  0.1347
 3299DOPG   GL161443  12.337  16.575  16.323 -0.0038 -0.2239  0.4708
 3299DOPG   GL261444  12.030  16.539  16.214  0.0767 -0.0975  0.0443
 3299DOPG   C1A61445  12.323  16.838  16.654 -0.3361  0.1593  0.0536
 3299DOPG   D2A61446  12.527  16.844  17.001  0.0144  0.0475  0.0511
 3299DOPG   C3A61447  12.581  16.471  17.093  0.0855  0.0242 -0.5859
 3299DOPG   C4A61448  12.243  16.273  17.333  0.1454  0.1162  0.0176
 3299DOPG   C1B61449  11.995  16.189  16.229 -0.0529  0.2404 -0.0292
 3299DOPG   D2B61450  12.026  15.911  16.489  0.1970  0.0469 -0.0122
 3299DOPG   C3B61451  11.674  15.821  16.784 -0.2995  0.0407 -0.4132
 3299DOPG   C4B61452  11.382  15.641  16.937  0.0022 -0.1877 -0.1877
 3300DOPG   GL061453  25.135  18.190  17.254  0.3706 -0.2845 -0.2572
 3300DOPG   PO461454  24.981  18.206  16.873 -0.0619 -0.2935 -0.0617
 3300DOPG   GL161455  25.318  17.935  16.801 -0.1123 -0.1420 -0.1379
 3300DOPG   GL261456  25.473  18.236  16.930  0.0951  0.1097 -0.3911
 3300DOPG   C1A61457  25.640  17.700  16.561  0.1360 -0.1890  0.2021
 3300DOPG   D2A61458  25.695  17.250  16.521  0.0566  0.1026  0.0182
 3300DOPG   C3A61459  25.494  17.033  16.224 -0.2785 -0.3286 -0.2526
 3300DOPG   C4A61460  25.751  17.068  15.899  0.0232 -0.1156 -0.1297
 3300DOPG   C1B61461  25.587  18.321  17.372 -0.2878 -0.2406 -0.0728
 3300DOPG   D2B61462  26.047  18.412  17.420  0.2425  0.1028  0.3573
 3300DOPG   C3B61463  26.293  18.848  17.487  0.0571  0.4434  0.4540
 3300DOPG   C4B61464  26.723  19.079  17.311 -0.0127  0.1532  0.1829
 3301DOPG   GL061465  18.855  17.809  14.644  0.0828 -0.0218 -0.0696
 3301DOPG   PO461466  18.847  18.347  14.485 -0.0285 -0.2253  0.0176
 3301DOPG   GL161467  18.692  18.661  14.450  0.1298 -0.0726 -0.1814
 3301DOPG   GL261468  18.410  18.530  14.324 -0.0865  0.2648  0.0588
 3301DOPG   C1A61469  18.299  18.914  14.699  0.2063 -0.1791 -0.2080
 3301DOPG   D2A61470  18.358  19.369  14.798  0.1851  0.2235  0.3680
 3301DOPG   C3A61471  18.194  19.559  14.410  0.3397 -0.1254 -0.2824
 3301DOPG   C4A61472  18.330  19.626  14.044  0.3179  0.2062 -0.0161
 3301DOPG   C1B61473  18.414  18.798  14.054 -0.1277  0.3228 -0.1308
 3301DOPG   D2B61474  18.569  19.178  13.840 -0.2615 -0.4311  0.1680
 3301DOPG   C3B61475  18.356  19.306  13.617 -0.0943 -0.0163  0.0040
 3301DOPG   C4B61476  18.141  19.635  13.528  0.2417  0.2435  0.0363
 3302DOPG   GL061477   4.121  20.360  14.917  0.2175  0.1470  0.1982
 3302DOPG   PO461478   4.390  20.333  14.604  0.0177  0.1244  0.0642
 3302DOPG   GL161479   4.828  20.161  14.551 -0.0597 -0.3660 -0.0118
 3302DOPG   GL261480   5.077  20.406  14.435 -0.0719 -0.3012 -0.2396
 3302DOPG   C1A61481   5.074  19.878  14.452 -0.0231 -0.0509  0.2576
 3302DOPG   D2A61482   5.347  19.697  14.625  0.1809  0.0977  0.2706
 3302DOPG   C3A61483   5.597  19.389  14.498 -0.2318 -0.0167  0.0307
 3302DOPG   C4A61484   5.997  19.337  14.718  0.2119 -0.3647 -0.1010
 3302DOPG   C1B61485   5.479  20.257  14.335 -0.0212 -0.3514  0.0552
 3302DOPG   D2B61486   5.839  20.379  14.365 -0.2442  0.0532 -0.1998
 3302DOPG   C3B61487   6.174  20.535  14.120  0.1027  0.0547  0.1795
 3302DOPG   C4B61488   6.563  20.728  13.906 -0.2028  0.0053  0.0541
 3303DOPG   GL061489  14.351  12.592  16.148  0.1543  0.0511 -0.1204
 3303DOPG   PO461490  14.798  12.836  15.932  0.1993 -0.2696 -0.3361
 3303DOPG   GL161491  14.863  12.796  15.417  0.0278 -0.5824  0.2100
 3303DOPG   GL261492  14.789  13.073  15.317  0.0511  0.0000 -0.0278
 3303DOPG   C1A61493  15.111  12.621  14.996  0.2147 -0.2031 -0.0670
 3303DOPG   D2A61494  15.476  12.834  14.898 -0.2316  0.3230 -0.0155
 3303DOPG   C3A61495  15.276  13.126  14.639  0.0006  0.1095 -0.2051
 3303DOPG   C4A61496  15.131  13.433  14.788  0.1621  0.1175  0.1157
 3303DOPG   C1B61497  14.673  13.124  14.921  0.0885  0.1945 -0.2049
 3303DOPG   D2B61498  14.500  13.182  14.574 -0.2241  0.2693 -0.0202
 3303DOPG   C3B61499  14.418  13.557  14.202  0.1550  0.0774  0.2516
 3303DOPG   C4B61500  14.409  13.925  13.892 -0.0602 -0.2527  0.1134
 3304DOPG   GL061501   5.128  22.577  13.574  0.1730 -0.2486  0.1473
 3304DOPG   PO461502   5.209  22.209  13.235 -0.2474  0.0597 -0.1334
 3304DOPG   GL161503   5.544  21.894  13.367  0.1695  0.0090  0.1034
 3304DOPG   GL261504   5.516  21.836  13.596 -0.0618  0.2661  0.3206
 3304DOPG   C1A61505   6.070  21.875  13.422 -0.2292 -0.0049 -0.2341
 3304DOPG   D2A61506   6.446  21.955  13.695  0.2009  0.1718 -0.4045
 3304DOPG   C3A61507   6.493  22.330  13.749  0.0048 -0.1596 -0.1623
 3304DOPG   C4A61508   6.926  22.428  13.870 -0.0954 -0.0370 -0.1333
 3304DOPG   C1B61509   5.821  21.503  13.482  0.0141  0.0074  0.0606
 3304DOPG   D2B61510   5.913  21.110  13.402  0.0833  0.1531  0.0981
 3304DOPG   C3B61511   6.295  20.944  13.408 -0.0796  0.0955 -0.2275
 3304DOPG   C4B61512   6.798  20.900  13.233 -0.3564 -0.0409 -0.0464
 3305DOPG   GL061513   8.852  21.021  16.466 -0.4131 -0.0433  0.2326
 3305DOPG   PO461514   8.480  21.351  16.418 -0.1817 -0.0985  0.0370
 3305DOPG   GL161515   8.675  21.407  16.091  0.1529 -0.1784  0.0259
 3305DOPG   GL261516   8.928  21.232  16.024 -0.0730  0.3590 -0.0569
 3305DOPG   C1A61517   8.959  21.799  15.852  0.1097 -0.3286  0.0510
 3305DOPG   D2A61518   9.001  22.142  15.535 -0.0509 -0.0499 -0.1386
 3305DOPG   C3A61519   9.161  22.499  15.582  0.0874  0.0815  0.3326
 3305DOPG   C4A61520   9.359  22.836  15.451 -0.2792 -0.3304  0.1725
 3305DOPG   C1B61521   8.944  20.915  15.685 -0.2062 -0.1193  0.0926
 3305DOPG   D2B61522   9.049  20.703  15.214  0.0308  0.0401 -0.1877
 3305DOPG   C3B61523   9.247  20.375  15.067 -0.0433  0.0940  0.0229
 3305DOPG   C4B61524   9.366  20.005  14.758  0.0887 -0.0311  0.0903
 3306DOPG   GL061525  14.751  20.211  15.420  0.1542 -0.0108  0.3599
 3306DOPG   PO461526  14.995  20.526  15.609  0.3615  0.1128  0.0441
 3306DOPG   GL161527  15.362  20.599  15.282  0.1366  0.3179  0.0833
 3306DOPG   GL261528  15.623  20.362  15.083  0.4329 -0.3601 -0.2826
 3306DOPG   C1A61529  15.453  20.786  14.898  0.0911  0.0994 -0.2573
 3306DOPG   D2A61530  15.676  21.053  14.581  0.0054 -0.0060  0.1311
 3306DOPG   C3A61531  15.820  20.876  14.222  0.2122 -0.0167 -0.2464
 3306DOPG   C4A61532  16.090  21.087  13.914  0.2391 -0.0317 -0.1806
 3306DOPG   C1B61533  15.860  20.575  14.696  0.1142 -0.0829 -0.2367
 3306DOPG   D2B61534  16.276  20.708  14.683  0.1218 -0.0740  0.1607
 3306DOPG   C3B61535  16.506  20.709  14.186 -0.1958 -0.3689  0.2549
 3306DOPG   C4B61536  16.819  20.423  14.050  0.2009  0.0516 -0.0226
 3307DOPG   GL061537  12.549  14.151  15.031  0.0657 -0.0022 -0.1531
 3307DOPG   PO461538  12.123  14.000  15.215 -0.1182 -0.0693  0.1637
 3307DOPG   GL161539  11.720  13.872  14.926  0.0156 -0.3013 -0.2161
 3307DOPG   GL261540  11.763  13.535  14.640  0.0187 -0.0664  0.0842
 3307DOPG   C1A61541  11.320  13.889  14.722 -0.3032  0.3225  0.0671
 3307DOPG   D2A61542  10.995  14.200  14.698 -0.1889  0.1705 -0.1514
 3307DOPG   C3A61543  10.673  14.187  14.367 -0.2045  0.2281 -0.2783
 3307DOPG   C4A61544  10.684  14.060  14.070 -0.4978  0.1533  0.1828
 3307DOPG   C1B61545  11.914  13.095  14.588 -0.2546 -0.2112 -0.1399
 3307DOPG   D2B61546  12.230  12.750  14.472  0.0410  0.0243  0.0224
 3307DOPG   C3B61547  11.964  12.503  14.250  0.0385 -0.2786  0.1057
 3307DOPG   C4B61548  11.633  12.311  14.171  0.1300  0.1404  0.0727
 3308DOPG   GL061549  17.345  20.313  17.767  0.1107 -0.0650  0.1189
 3308DOPG   PO461550  17.295  20.243  17.435  0.0013 -0.1351  0.1132
 3308DOPG   GL161551  17.076  19.837  17.523 -0.1044 -0.1073  0.0537
 3308DOPG   GL261552  16.931  19.920  17.753 -0.4290  0.2655  0.3046
 3308DOPG   C1A61553  16.971  19.519  17.194  0.2621 -0.1899  0.0849
 3308DOPG   D2A61554  16.735  19.185  16.983 -0.2143  0.2593 -0.1295
 3308DOPG   C3A61555  16.476  19.101  17.291  0.2687  0.2981  0.1432
 3308DOPG   C4A61556  16.175  18.785  17.449  0.0861  0.0322  0.2408
 3308DOPG   C1B61557  16.635  19.697  17.683 -0.1031 -0.1306  0.1477
 3308DOPG   D2B61558  16.458  19.617  17.286  0.1344  0.0365 -0.1118
 3308DOPG   C3B61559  16.736  19.688  16.843  0.3437  0.0432  0.5508
 3308DOPG   C4B61560  16.881  19.537  16.347 -0.1739  0.0165  0.0706
 3309DOPG   GL061561  13.237  10.567  16.980 -0.0912  0.1382 -0.1505
 3309DOPG   PO461562  13.136  10.353  17.373 -0.0781 -0.0279 -0.0501
 3309DOPG   GL161563  13.332  10.070  17.146 -0.1794 -0.1936  0.1085
 3309DOPG   GL261564  13.027   9.999  17.016 -0.3186  0.0122 -0.0515
 3309DOPG   C1A61565  13.340   9.610  17.009 -0.1549  0.0961 -0.1103
 3309DOPG   D2A61566  13.394   9.149  16.988  0.0606 -0.0665 -0.0868
 3309DOPG   C3A61567  13.760   9.004  17.016  0.1836 -0.1285 -0.0314
 3309DOPG   C4A61568  13.979   8.730  16.854 -0.1903 -0.0275  0.2358
 3309DOPG   C1B61569  12.821   9.611  16.954  0.1003  0.0260  0.1327
 3309DOPG   D2B61570  12.887   9.086  16.873  0.2163  0.2079  0.1009
 3309DOPG   C3B61571  13.000   8.788  17.133  0.2605  0.1830 -0.0464
 3309DOPG   C4B61572  12.784   8.439  17.497  0.0486 -0.0646  0.0965
 3310DOPG   GL061573  11.362  11.775  16.470 -0.1288  0.1887  0.0384
 3310DOPG   PO461574  11.204  12.178  16.192 -0.1446 -0.4779 -0.1959
 3310DOPG   GL161575  11.245  11.901  15.825 -0.4307 -0.1713  0.2378
 3310DOPG   GL261576  11.507  11.778  15.698 -0.2736 -0.0976  0.0100
 3310DOPG   C1A61577  11.057  11.863  15.403  0.0527  0.2035  0.2135
 3310DOPG   D2A61578  10.845  12.159  15.099  0.3328 -0.2255 -0.1117
 3310DOPG   C3A61579  10.829  12.387  14.758  0.1728 -0.3213 -0.1620
 3310DOPG   C4A61580  10.869  12.506  14.297 -0.0334  0.0649  0.0033
 3310DOPG   C1B61581  11.542  11.805  15.110 -0.1266 -0.3507  0.3079
 3310DOPG   D2B61582  11.267  11.660  14.719 -0.3261 -0.4755 -0.2233
 3310DOPG   C3B61583  11.552  11.830  14.390 -0.3016 -0.0643  0.0281
 3310DOPG   C4B61584  11.624  11.553  14.028 -0.2653  0.0343 -0.0240
 3311DOPG   GL061585  17.069  19.460  17.990 -0.0061 -0.0217  0.0206
 3311DOPG   PO461586  17.403  19.586  17.813  0.3691  0.3879 -0.1757
 3311DOPG   GL161587  17.359  19.160  17.743  0.0893 -0.0253  0.1495
 3311DOPG   GL261588  17.601  19.106  17.561 -0.0526  0.2372  0.0344
 3311DOPG   C1A61589  17.498  18.659  17.717  0.2014  0.1793  0.1961
 3311DOPG   D2A61590  17.853  18.320  17.612  0.0604  0.2662 -0.0948
 3311DOPG   C3A61591  17.637  18.025  17.561  0.1809 -0.0363 -0.3559
 3311DOPG   C4A61592  17.356  17.805  17.522 -0.2820  0.2061  0.0487
 3311DOPG   C1B61593  17.526  19.158  17.112  0.4576 -0.0411 -0.1383
 3311DOPG   D2B61594  17.730  18.969  16.715 -0.2690 -0.3395 -0.0275
 3311DOPG   C3B61595  17.587  18.918  16.344 -0.2282  0.0140 -0.2681
 3311DOPG   C4B61596  17.751  18.506  16.261 -0.2379 -0.0009 -0.2716
 3312DOPG   GL061597  10.268  12.625  16.066 -0.1854 -0.1524 -0.0143
 3312DOPG   PO461598  10.135  12.799  16.485  0.1589 -0.0321 -0.0353
 3312DOPG   GL161599  10.234  13.130  16.125 -0.0188  0.1603 -0.2740
 3312DOPG   GL261600  10.073  13.295  16.057 -0.2173  0.1137  0.4617
 3312DOPG   C1A61601  10.389  13.053  15.740  0.1248  0.0283 -0.0718
 3312DOPG   D2A61602  10.352  13.078  15.292 -0.1165 -0.2376 -0.2361
 3312DOPG   C3A61603  10.652  13.252  15.000  0.1376  0.3095  0.1732
 3312DOPG   C4A61604  10.762  13.628  15.029  0.1216  0.1170  0.1187
 3312DOPG   C1B61605  10.417  13.546  15.975 -0.4250  0.0729  0.1189
 3312DOPG   D2B61606  10.598  13.753  16.159 -0.1600  0.0703 -0.2597
 3312DOPG   C3B61607  10.961  13.591  16.384  0.1791 -0.0108 -0.1734
 3312DOPG   C4B61608  11.065  13.583  16.764 -0.3675  0.0096 -0.0979
 3313DOPG   GL061609  16.605  16.349  15.403  0.0384 -0.0174  0.2969
 3313DOPG   PO461610  16.303  16.559  15.471 -0.2862 -0.2657 -0.0017
 3313DOPG   GL161611  16.181  16.775  15.752 -0.0851  0.0286 -0.0282
 3313DOPG   GL261612  16.414  17.063  15.714 -0.0758  0.1755 -0.3389
 3313DOPG   C1A61613  16.068  17.046  16.157  0.0159 -0.2363  0.3493
 3313DOPG   D2A61614  16.019  17.308  16.485 -0.0293  0.0645 -0.2399
 3313DOPG   C3A61615  15.934  17.023  16.894 -0.2614 -0.2458 -0.4242
 3313DOPG   C4A61616  16.261  17.001  17.249  0.2656  0.3600  0.1300
 3313DOPG   C1B61617  16.525  16.950  16.159 -0.2849  0.0967  0.0960
 3313DOPG   D2B61618  16.246  16.745  16.474  0.1568 -0.4440 -0.4644
 3313DOPG   C3B61619  16.258  16.578  16.920 -0.1121 -0.0202 -0.0960
 3313DOPG   C4B61620  16.412  16.307  17.124  0.3165  0.0364  0.0852
 3314DOPG   GL061621  17.912  15.766  14.797 -0.0697 -0.3399 -0.0067
 3314DOPG   PO461622  18.230  15.942  14.518 -0.0098  0.1727 -0.1802
 3314DOPG   GL161623  18.234  15.521  14.293 -0.1697 -0.1437  0.1241
 3314DOPG   GL261624  18.594  15.555  14.323 -0.1049  0.0055  0.0032
 3314DOPG   C1A61625  18.055  15.395  13.876  0.2841 -0.1921  0.0389
 3314DOPG   D2A61626  17.932  15.217  13.467  0.2136 -0.0608 -0.1536
 3314DOPG   C3A61627  17.488  15.126  13.313  0.1552 -0.0786  0.0664
 3314DOPG   C4A61628  17.147  15.372  13.097 -0.1465  0.1916  0.2242
 3314DOPG   C1B61629  18.970  15.356  14.304  0.2565 -0.2280 -0.1919
 3314DOPG   D2B61630  19.456  15.208  14.275 -0.0184 -0.4385 -0.0020
 3314DOPG   C3B61631  19.533  14.895  13.959 -0.1907  0.3295  0.3033
 3314DOPG   C4B61632  19.419  14.507  13.917 -0.2235 -0.2289 -0.0615
 3315DOPG   GL061633   9.947  14.552  18.145 -0.0058  0.0841  0.2485
 3315DOPG   PO461634  10.082  14.972  18.068 -0.2397 -0.0755  0.4040
 3315DOPG   GL161635  10.462  14.735  17.846 -0.2690 -0.2531 -0.0560
 3315DOPG   GL261636  10.334  14.479  17.848 -0.1187  0.2159 -0.1065
 3315DOPG   C1A61637  10.663  14.534  17.518  0.0236 -0.3255  0.2454
 3315DOPG   D2A61638  10.885  14.614  17.080  0.1071  0.0959  0.0262
 3315DOPG   C3A61639  10.998  14.365  16.819 -0.3352  0.2256 -0.5316
 3315DOPG   C4A61640  10.855  14.119  16.513  0.0411  0.0507 -0.1728
 3315DOPG   C1B61641  10.728  14.202  17.937 -0.5649  0.2025  0.0964
 3315DOPG   D2B61642  10.856  14.036  18.199 -0.1372  0.1648 -0.3494
 3315DOPG   C3B61643  11.247  13.961  18.390  0.1047  0.0543  0.1392
 3315DOPG   C4B61644  11.418  13.558  18.262 -0.0434  0.4565  0.0325
 3316DOPG   GL061645  17.540  21.420  17.762 -0.2053 -0.0097 -0.3258
 3316DOPG   PO461646  17.762  21.167  17.570  0.1381  0.2899  0.0413
 3316DOPG   GL161647  17.937  21.433  17.411 -0.0621  0.0733 -0.0119
 3316DOPG   GL261648  17.688  21.498  17.154 -0.0306  0.1699 -0.1931
 3316DOPG   C1A61649  18.268  21.603  17.067 -0.0834  0.2110  0.1183
 3316DOPG   D2A61650  18.422  21.997  16.871  0.0441  0.0398  0.0266
 3316DOPG   C3A61651  18.655  22.295  17.153  0.0446  0.1741  0.1090
 3316DOPG   C4A61652  18.994  22.178  17.486 -0.2571  0.1033 -0.1056
 3316DOPG   C1B61653  17.850  21.522  16.699 -0.1594  0.0098  0.3146
 3316DOPG   D2B61654  18.106  21.342  16.325 -0.1512  0.1981 -0.0863
 3316DOPG   C3B61655  17.931  21.346  15.968  0.1528 -0.2802  0.1306
 3316DOPG   C4B61656  17.641  21.543  15.629 -0.0437 -0.4673 -0.0730
 3317DOPG   GL061657  13.590  20.620  16.044  0.0811 -0.3113 -0.2134
 3317DOPG   PO461658  13.940  20.708  15.758 -0.2175  0.0638 -0.2270
 3317DOPG   GL161659  14.269  21.055  15.640  0.1135  0.1372 -0.1195
 3317DOPG   GL261660  14.343  21.324  15.800 -0.3467 -0.5638 -0.1311
 3317DOPG   C1A61661  14.565  21.213  15.257 -0.4486  0.3708 -0.2608
 3317DOPG   D2A61662  14.617  21.645  15.196 -0.0283  0.0908  0.3815
 3317DOPG   C3A61663  15.044  21.894  15.105 -0.2214 -0.0641 -0.1394
 3317DOPG   C4A61664  15.401  22.103  14.877 -0.0612 -0.1368 -0.4370
 3317DOPG   C1B61665  14.292  21.786  15.698  0.0020  0.1646  0.0277
 3317DOPG   D2B61666  14.512  22.234  15.792 -0.0953  0.1146  0.0575
 3317DOPG   C3B61667  14.293  22.648  15.633 -0.2061  0.2855 -0.3255
 3317DOPG   C4B61668  14.408  23.031  15.546 -0.2414 -0.1827  0.0989
 3318DOPG   GL061669  14.428  10.661  17.944 -0.0725  0.0837 -0.0088
 3318DOPG   PO461670  14.173  10.528  17.613 -0.2164 -0.2942  0.0588
 3318DOPG   GL161671  14.260  10.220  17.290 -0.2801 -0.1759  0.2335
 3318DOPG   GL261672  14.092   9.946  17.463 -0.0663 -0.3063 -0.1443
 3318DOPG   C1A61673  14.652  10.077  17.152  0.2108 -0.1918 -0.2099
 3318DOPG   D2A61674  14.988   9.938  16.938 -0.0276  0.0539  0.2058
 3318DOPG   C3A61675  15.246   9.739  17.147  0.0260 -0.1282  0.0679
 3318DOPG   C4A61676  15.477   9.425  17.126  0.1482  0.3346 -0.1524
 3318DOPG   C1B61677  14.231   9.737  17.137 -0.1493  0.1201 -0.2004
 3318DOPG   D2B61678  14.533   9.550  16.919  0.0153 -0.0105  0.1412
 3318DOPG   C3B61679  14.923   9.259  17.021  0.0075 -0.1462 -0.2218
 3318DOPG   C4B61680  15.118   9.216  17.422 -0.2342 -0.0034  0.0233
 3319DOPG   GL061681  10.335  11.679  16.691  0.1098  0.1211  0.2651
 3319DOPG   PO461682  10.260  11.607  16.194  0.1014  0.1131 -0.3434
 3319DOPG   GL161683  10.512  11.599  15.787 -0.1215 -0.2867 -0.3060
 3319DOPG   GL261684  10.787  11.595  15.748 -0.1244  0.1882 -0.0959
 3319DOPG   C1A61685  10.501  11.733  15.385  0.1702 -0.0786  0.1496
 3319DOPG   D2A61686  10.739  11.658  15.056 -0.0570  0.3096 -0.1578
 3319DOPG   C3A61687  10.749  11.871  14.732 -0.1030 -0.2379 -0.0097
 3319DOPG   C4A61688  11.030  12.063  14.346  0.0227 -0.0150  0.0388
 3319DOPG   C1B61689  10.728  11.281  15.398  0.2001  0.0445 -0.2950
 3319DOPG   D2B61690  10.414  11.036  15.159 -0.0658 -0.2752 -0.1538
 3319DOPG   C3B61691   9.859  11.136  15.188 -0.0460 -0.5537 -0.1655
 3319DOPG   C4B61692   9.561  10.940  15.577 -0.2457 -0.0600 -0.0017
 3320DOPG   GL061693  17.258  17.041  15.052  0.2109  0.2237 -0.0147
 3320DOPG   PO461694  17.140  17.410  15.260  0.2086  0.1426 -0.0010
 3320DOPG   GL161695  16.947  17.399  15.653 -0.1186  0.3144 -0.2347
 3320DOPG   GL261696  16.893  17.652  15.719 -0.0966 -0.1025 -0.2431
 3320DOPG   C1A61697  16.993  17.232  16.066  0.0181  0.0253 -0.1466
 3320DOPG   D2A61698  16.985  16.951  16.384  0.0389 -0.0746  0.1154
 3320DOPG   C3A61699  16.889  17.152  16.751  0.4539 -0.1644 -0.0739
 3320DOPG   C4A61700  16.748  17.252  17.153 -0.0490  0.6247  0.2583
 3320DOPG   C1B61701  17.358  17.637  15.981 -0.1667 -0.1962  0.2351
 3320DOPG   D2B61702  17.581  17.688  16.406  0.1847 -0.0212  0.3989
 3320DOPG   C3B61703  17.422  17.820  16.750  0.0992  0.0901 -0.1743
 3320DOPG   C4B61704  17.280  18.128  17.009  0.2386  0.3421 -0.4059
 3321DOPG   GL061705  13.698  16.499  14.123  0.2506 -0.0791  0.2852
 3321DOPG   PO461706  13.307  16.688  14.034  0.1184 -0.1866 -0.1802
 3321DOPG   GL161707  12.861  16.644  13.957 -0.0917 -0.1608  0.2475
 3321DOPG   GL261708  12.610  16.810  14.155 -0.1466  0.0839 -0.0569
 3321DOPG   C1A61709  12.875  16.574  13.525  0.1367 -0.3216 -0.0259
 3321DOPG   D2A61710  12.500  16.561  13.182  0.2431  0.0862  0.0751
 3321DOPG   C3A61711  12.432  16.335  12.815 -0.0226  0.2715  0.1440
 3321DOPG   C4A61712  12.182  16.035  12.642 -0.0494  0.0140 -0.1718
 3321DOPG   C1B61713  12.533  16.978  13.638 -0.4194 -0.2282  0.2290
 3321DOPG   D2B61714  12.591  17.169  13.283 -0.3318  0.1148  0.3781
 3321DOPG   C3B61715  12.260  17.335  13.086  0.3502 -0.2442  0.3141
 3321DOPG   C4B61716  11.746  17.225  12.904  0.1564 -0.0189  0.1299
 3322DOPG   GL061717  15.889  20.812  16.665 -0.0874  0.1879  0.0966
 3322DOPG   PO461718  15.637  20.953  16.904 -0.2950 -0.2838  0.3266
 3322DOPG   GL161719  15.519  21.187  16.542  0.1295  0.0377  0.1377
 3322DOPG   GL261720  15.253  21.381  16.530 -0.0243  0.4031 -0.0332
 3322DOPG   C1A61721  15.632  21.573  16.273 -0.1664 -0.0373 -0.0069
 3322DOPG   D2A61722  15.656  22.023  16.275 -0.0069 -0.1608 -0.0817
 3322DOPG   C3A61723  15.913  22.100  15.807  0.1667 -0.0696 -0.1065
 3322DOPG   C4A61724  16.210  22.486  15.818  0.0982  0.1187  0.0582
 3322DOPG   C1B61725  15.182  21.773  16.570 -0.2302 -0.1703  0.1436
 3322DOPG   D2B61726  15.168  22.195  16.478  0.1906 -0.0510 -0.3845
 3322DOPG   C3B61727  15.500  22.404  16.772 -0.2778  0.2826 -0.1026
 3322DOPG   C4B61728  15.714  22.718  17.038  0.4920 -0.0856 -0.2003
 3323DOPG   GL061729  16.815  16.358  14.239  0.0484  0.0850 -0.0674
 3323DOPG   PO461730  16.488  16.416  14.552 -0.0399  0.1305 -0.1989
 3323DOPG   GL161731  16.288  16.479  14.156 -0.0207  0.1691 -0.0208
 3323DOPG   GL261732  15.883  16.505  14.255  0.2979  0.1156  0.0928
 3323DOPG   C1A61733  16.324  16.407  13.763 -0.0789 -0.1558  0.1103
 3323DOPG   D2A61734  16.307  16.064  13.470  0.2871  0.3305 -0.0229
 3323DOPG   C3A61735  16.124  15.864  13.164  0.3844 -0.0229  0.0292
 3323DOPG   C4A61736  15.844  15.805  12.895  0.2477 -0.1537  0.0468
 3323DOPG   C1B61737  15.869  16.596  13.781 -0.2667  0.0199  0.1523
 3323DOPG   D2B61738  16.037  16.716  13.231 -0.2831  0.0395 -0.4066
 3323DOPG   C3B61739  16.256  17.021  13.178 -0.1554 -0.1282 -0.0132
 3323DOPG   C4B61740  16.432  17.369  13.276 -0.0517 -0.2828  0.2242
 3324DOPG   GL061741  16.404  18.765  14.366 -0.4426  0.0045 -0.0859
 3324DOPG   PO461742  16.779  18.565  14.634 -0.0942 -0.0228  0.0943
 3324DOPG   GL161743  16.758  18.937  14.630  0.2622  0.3061 -0.1700
 3324DOPG   GL261744  16.462  19.120  14.713  0.1201 -0.0454  0.1696
 3324DOPG   C1A61745  16.692  19.188  14.264  0.3021 -0.2907  0.0486
 3324DOPG   D2A61746  16.854  19.335  13.921 -0.0479 -0.1661  0.1396
 3324DOPG   C3A61747  16.743  19.063  13.546  0.2743 -0.0788  0.1123
 3324DOPG   C4A61748  16.678  18.700  13.520 -0.0575  0.2635  0.1217
 3324DOPG   C1B61749  16.723  19.090  15.033  0.1172  0.2558  0.1860
 3324DOPG   D2B61750  17.019  18.852  15.219 -0.1076  0.3247  0.0963
 3324DOPG   C3B61751  17.041  18.854  15.661  0.1596  0.1959 -0.1958
 3324DOPG   C4B61752  17.273  18.619  16.007  0.2039  0.3772 -0.0870
 3325DOPG   GL061753   6.781  20.153  17.201 -0.2725 -0.0173 -0.0319
 3325DOPG   PO461754   6.973  20.377  16.851 -0.1091  0.0521  0.0847
 3325DOPG   GL161755   6.734  20.208  16.463 -0.0118  0.2119 -0.0090
 3325DOPG   GL261756   6.627  19.905  16.413 -0.1288 -0.4437 -0.1301
 3325DOPG   C1A61757   6.901  20.222  16.113  0.0960 -0.2822  0.0641
 3325DOPG   D2A61758   7.059  20.003  15.767  0.1024 -0.2806  0.0494
 3325DOPG   C3A61759   7.005  19.783  15.464  0.0310  0.1644  0.0531
 3325DOPG   C4A61760   7.059  19.395  15.158  0.0506  0.3287 -0.0358
 3325DOPG   C1B61761   6.717  19.760  16.028  0.0611  0.1008  0.0944
 3325DOPG   D2B61762   6.443  19.514  15.679  0.0524  0.0577  0.0255
 3325DOPG   C3B61763   6.029  19.558  15.717  0.1037 -0.2403  0.1523
 3325DOPG   C4B61764   5.685  19.663  15.930  0.0632  0.2635  0.0886
 3326DOPG   GL061765  13.642  19.574  15.579  0.1019 -0.1952 -0.0550
 3326DOPG   PO461766  13.828  19.872  15.353 -0.1922 -0.0682 -0.2097
 3326DOPG   GL161767  13.932  20.110  15.057 -0.0657 -0.1118  0.0238
 3326DOPG   GL261768  13.955  20.114  14.713 -0.0971  0.1493 -0.3288
 3326DOPG   C1A61769  13.945  20.650  14.897 -0.1110  0.2090  0.1188
 3326DOPG   D2A61770  14.123  21.033  15.138  0.3206 -0.0572  0.0834
 3326DOPG   C3A61771  14.144  21.378  14.819 -0.0571 -0.0721 -0.0254
 3326DOPG   C4A61772  14.015  21.856  14.583 -0.3516 -0.0180 -0.1638
 3326DOPG   C1B61773  13.780  20.307  14.438 -0.0927 -0.3113  0.1988
 3326DOPG   D2B61774  13.680  20.707  14.351 -0.2283  0.0947  0.1519
 3326DOPG   C3B61775  13.243  20.846  14.462 -0.0145  0.0665 -0.3293
 3326DOPG   C4B61776  12.943  21.073  14.547 -0.0939  0.5031 -0.0899
 3327DOPG   GL061777  10.769  11.493  16.610  0.0634  0.0338  0.0976
 3327DOPG   PO461778  10.800  11.800  16.221  0.0772 -0.0534  0.1993
 3327DOPG   GL161779  10.714  12.069  15.871 -0.2459  0.1222  0.2552
 3327DOPG   GL261780  10.692  12.336  16.055  0.0377  0.0147 -0.5003
 3327DOPG   C1A61781  10.505  12.301  15.560  0.1305 -0.3150 -0.2084
 3327DOPG   D2A61782  10.328  12.297  15.170  0.3128 -0.1642  0.2523
 3327DOPG   C3A61783  10.265  11.955  14.841 -0.0025 -0.1456 -0.1055
 3327DOPG   C4A61784  10.250  11.689  14.571 -0.1701  0.2752  0.2489
 3327DOPG   C1B61785  10.768  12.787  15.942 -0.0786  0.1019 -0.1357
 3327DOPG   D2B61786  10.854  13.012  15.615 -0.2365  0.0830  0.0829
 3327DOPG   C3B61787  10.674  13.456  15.543 -0.1285  0.2627  0.0815
 3327DOPG   C4B61788  10.633  13.868  15.465 -0.0612  0.0309  0.1965
 3328DOPG   GL061789  11.829  21.407  16.174  0.0878  0.1254  0.0375
 3328DOPG   PO461790  11.714  21.169  15.905  0.0373 -0.3135 -0.1198
 3328DOPG   GL161791  11.606  21.399  15.507  0.0326  0.1129 -0.3742
 3328DOPG   GL261792  11.278  21.332  15.594  0.0905 -0.2174  0.1377
 3328DOPG   C1A61793  11.581  21.435  15.109  0.0014  0.0960  0.1148
 3328DOPG   D2A61794  11.420  21.207  14.733  0.1773  0.0337  0.1213
 3328DOPG   C3A61795  11.610  21.053  14.431  0.0451  0.1036 -0.0291
 3328DOPG   C4A61796  11.981  21.175  14.222 -0.0752 -0.2490 -0.1163
 3328DOPG   C1B61797  11.126  21.137  15.224 -0.2587 -0.0655 -0.3045
 3328DOPG   D2B61798  11.229  20.695  14.952  0.0957 -0.0427 -0.0725
 3328DOPG   C3B61799  11.403  20.656  14.560 -0.2182 -0.2201 -0.0551
 3328DOPG   C4B61800  11.535  20.297  14.381 -0.1322  0.2120  0.2058
 3329DOPG   GL061801  17.382  14.023  16.058 -0.1623 -0.2819 -0.1907
 3329DOPG   PO461802  17.240  14.379  16.311 -0.0487 -0.0770  0.2487
 3329DOPG   GL161803  17.466  14.743  16.203  0.5024 -0.3686  0.1202
 3329DOPG   GL261804  17.834  14.795  16.239  0.1289 -0.0066  0.1056
 3329DOPG   C1A61805  17.394  15.152  16.424  0.0558  0.0409  0.4062
 3329DOPG   D2A61806  17.480  15.427  16.707 -0.0603 -0.0683 -0.0000
 3329DOPG   C3A61807  17.130  15.658  16.908  0.1575 -0.1142 -0.4064
 3329DOPG   C4A61808  16.891  16.017  16.935  0.3807  0.3530  0.0746
 3329DOPG   C1B61809  17.965  15.250  16.348 -0.0088 -0.0050 -0.1867
 3329DOPG   D2B61810  17.801  15.660  16.383 -0.0357 -0.0575  0.1661
 3329DOPG   C3B61811  17.484  15.973  16.705 -0.2491 -0.0905  0.0445
 3329DOPG   C4B61812  17.401  16.067  17.134  0.2210  0.0068  0.0338
 3330DOPG   GL061813  17.709  14.589  15.757  0.1038  0.2766 -0.1426
 3330DOPG   PO461814  18.035  14.354  15.792  0.0012  0.0369 -0.1688
 3330DOPG   GL161815  18.475  14.265  15.720  0.0343 -0.1266  0.5939
 3330DOPG   GL261816  18.320  14.028  15.483  0.0461 -0.2073 -0.0465
 3330DOPG   C1A61817  18.837  14.046  15.447  0.0043 -0.2449  0.1532
 3330DOPG   D2A61818  19.031  13.713  15.285 -0.1329 -0.0705  0.0057
 3330DOPG   C3A61819  19.392  13.452  15.062 -0.0378 -0.0300 -0.0211
 3330DOPG   C4A61820  19.388  13.180  14.837 -0.2187  0.2931  0.1199
 3330DOPG   C1B61821  18.561  13.612  15.363  0.2375  0.1167  0.0754
 3330DOPG   D2B61822  18.520  13.288  15.198  0.0822 -0.2295 -0.2103
 3330DOPG   C3B61823  18.624  13.363  14.808 -0.0919  0.1313 -0.3303
 3330DOPG   C4B61824  18.362  13.546  14.473 -0.3063 -0.0077 -0.2746
 3331DOPG   GL061825  18.984  20.263  16.335  0.2350  0.0345  0.0529
 3331DOPG   PO461826  18.898  20.729  16.344 -0.3676 -0.1178  0.2661
 3331DOPG   GL161827  19.020  20.713  15.912 -0.2521  0.0126  0.3694
 3331DOPG   GL261828  19.367  20.749  16.041  0.1638  0.2021 -0.1036
 3331DOPG   C1A61829  18.950  20.815  15.584 -0.1247 -0.1287  0.0924
 3331DOPG   D2A61830  18.971  20.865  15.119 -0.0720  0.2549 -0.5095
 3331DOPG   C3A61831  19.222  20.889  14.626 -0.1426 -0.1208  0.0024
 3331DOPG   C4A61832  19.310  20.731  14.205  0.0839 -0.2095  0.1062
 3331DOPG   C1B61833  19.261  21.175  15.821 -0.0876  0.1953  0.2770
 3331DOPG   D2B61834  19.131  21.602  15.999  0.3723  0.0331  0.0724
 3331DOPG   C3B61835  18.644  21.776  15.844  0.1726  0.1215 -0.2899
 3331DOPG   C4B61836  18.280  21.681  15.942 -0.0176  0.1545 -0.3954
 3332DOPG   GL061837  11.898  10.433  18.217 -0.0589  0.1130  0.0654
 3332DOPG   PO461838  11.772  10.524  17.798 -0.1802 -0.1497 -0.1280
 3332DOPG   GL161839  11.516  10.258  17.971  0.2287  0.0176 -0.4251
 3332DOPG   GL261840  11.339  10.227  17.635 -0.0646  0.1264 -0.0904
 3332DOPG   C1A61841  11.107   9.962  18.201  0.1095  0.3099 -0.2499
 3332DOPG   D2A61842  11.203   9.596  18.140 -0.1778 -0.2393 -0.4147
 3332DOPG   C3A61843  10.903   9.344  18.357 -0.0285  0.0003  0.2749
 3332DOPG   C4A61844  10.544   9.112  18.184 -0.1114  0.0278 -0.0209
 3332DOPG   C1B61845  11.501   9.845  17.631  0.3007 -0.0336 -0.0854
 3332DOPG   D2B61846  11.435   9.490  17.644 -0.2438 -0.0458 -0.1181
 3332DOPG   C3B61847  11.468   9.100  17.973  0.1801  0.1938  0.1150
 3332DOPG   C4B61848  11.337   8.589  18.027 -0.1521 -0.0509 -0.2028
 3333DOPG   GL061849  12.840  15.325  14.474 -0.1007  0.0637  0.1056
 3333DOPG   PO461850  13.152  15.211  14.416 -0.1676 -0.1135 -0.2590
 3333DOPG   GL161851  13.301  15.237  14.038 -0.4014  0.0915  0.2094
 3333DOPG   GL261852  13.120  15.240  13.863  0.0880 -0.0055  0.1016
 3333DOPG   C1A61853  13.592  15.014  13.667  0.1176  0.0969 -0.1183
 3333DOPG   D2A61854  13.784  14.670  13.566 -0.1923 -0.0397  0.1336
 3333DOPG   C3A61855  13.760  14.333  13.326 -0.0085 -0.0818  0.3686
 3333DOPG   C4A61856  13.657  13.982  13.117 -0.2756 -0.1046 -0.0620
 3333DOPG   C1B61857  12.895  15.264  13.524 -0.0591  0.1061  0.1670
 3333DOPG   D2B61858  12.575  15.076  13.132 -0.0271 -0.1797  0.0317
 3333DOPG   C3B61859  12.288  14.900  13.146  0.2875  0.1733 -0.0916
 3333DOPG   C4B61860  11.968  14.776  12.945  0.0031  0.0350 -0.2090
 3334DOPG   GL061861  17.313  12.845  17.616  0.2814  0.3630 -0.2055
 3334DOPG   PO461862  17.402  12.579  17.223  0.1085  0.0486  0.1008
 3334DOPG   GL161863  17.581  12.206  17.165 -0.0214 -0.2178  0.0674
 3334DOPG   GL261864  17.891  12.186  17.196  0.3291  0.3528 -0.0536
 3334DOPG   C1A61865  17.823  11.768  16.956  0.4249 -0.0802  0.0683
 3334DOPG   D2A61866  17.787  11.420  16.751 -0.2537  0.1260 -0.0637
 3334DOPG   C3A61867  17.381  11.280  16.692  0.0145 -0.1495 -0.0770
 3334DOPG   C4A61868  17.314  11.014  16.320  0.0767 -0.0814  0.0331
 3334DOPG   C1B61869  18.078  11.910  17.464 -0.0995 -0.1114  0.1235
 3334DOPG   D2B61870  18.531  11.846  17.400 -0.0885  0.1821  0.0911
 3334DOPG   C3B61871  18.600  11.370  17.405  0.0527  0.1938  0.0367
 3334DOPG   C4B61872  18.611  11.061  17.730 -0.0976 -0.0500  0.0544
 3335DOPG   GL061873  11.935  16.973  15.414 -0.3490  0.0352  0.0521
 3335DOPG   PO461874  11.662  16.630  15.717 -0.1560 -0.0595  0.0419
 3335DOPG   GL161875  11.381  16.881  15.369 -0.2622 -0.1195 -0.2989
 3335DOPG   GL261876  11.203  16.739  15.138  0.0422 -0.0526  0.1508
 3335DOPG   C1A61877  11.187  17.190  15.314  0.0164  0.0458  0.0163
 3335DOPG   D2A61878  10.839  17.457  15.346 -0.1954  0.0549 -0.4716
 3335DOPG   C3A61879  10.710  17.653  14.993 -0.0659 -0.2044  0.1169
 3335DOPG   C4A61880  10.472  17.794  14.624 -0.0234 -0.0121 -0.3638
 3335DOPG   C1B61881  10.743  16.786  15.059  0.0635  0.0740  0.1414
 3335DOPG   D2B61882  10.365  16.913  15.133  0.1993 -0.0121  0.1636
 3335DOPG   C3B61883  10.327  17.278  15.338 -0.0816 -0.1681  0.1029
 3335DOPG   C4B61884  10.104  17.660  15.075 -0.0216 -0.1053 -0.0968
 3336DOPG   GL061885  13.924  19.394  15.105  0.2934  0.1177 -0.0551
 3336DOPG   PO461886  13.913  19.478  14.694 -0.1980 -0.2957 -0.0537
 3336DOPG   GL161887  13.749  19.829  14.374 -0.0615 -0.2449  0.0988
 3336DOPG   GL261888  13.572  19.814  14.083  0.1783 -0.0511 -0.1083
 3336DOPG   C1A61889  13.700  20.277  13.965  0.1123  0.2665 -0.0049
 3336DOPG   D2A61890  13.952  20.451  13.692  0.1445 -0.0654  0.1276
 3336DOPG   C3A61891  14.200  20.801  13.605  0.1144 -0.1494 -0.0308
 3336DOPG   C4A61892  14.668  20.912  13.552 -0.0972 -0.0948  0.0765
 3336DOPG   C1B61893  13.781  19.854  13.588  0.1417  0.2740  0.3796
 3336DOPG   D2B61894  14.106  19.935  13.403 -0.1442  0.0004  0.0301
 3336DOPG   C3B61895  14.191  19.848  12.908  0.1073 -0.0000  0.0194
 3336DOPG   C4B61896  14.143  20.097  12.572 -0.0598 -0.1625 -0.2563
 3337DOPG   GL061897   8.871  19.739  17.296  0.0869 -0.0437  0.0233
 3337DOPG   PO461898   9.055  19.850  16.914 -0.4020 -0.0500 -0.2396
 3337DOPG   GL161899   9.337  19.699  16.528  0.2117  0.2062 -0.3203
 3337DOPG   GL261900   9.016  19.413  16.500 -0.1862  0.0383  0.1032
 3337DOPG   C1A61901   9.416  19.564  16.201 -0.1789 -0.2444 -0.1320
 3337DOPG   D2A61902   9.405  19.516  15.741  0.0833  0.3052  0.1502
 3337DOPG   C3A61903   9.710  19.635  15.514  0.1736  0.2112  0.0941
 3337DOPG   C4A61904  10.042  19.485  15.202  0.3118 -0.0903 -0.1163
 3337DOPG   C1B61905   8.903  19.674  16.100 -0.3801  0.0768 -0.1356
 3337DOPG   D2B61906   8.470  19.673  15.866  0.2173 -0.0753  0.0006
 3337DOPG   C3B61907   8.465  19.728  15.439  0.0424  0.3143  0.2442
 3337DOPG   C4B61908   8.364  19.437  15.103 -0.0420 -0.2586  0.0354
 3338DOPG   GL061909  13.423  19.368  15.172  0.0984  0.1155  0.1268
 3338DOPG   PO461910  13.608  19.050  15.356  0.0691 -0.1149  0.2958
 3338DOPG   GL161911  13.579  18.957  15.688  0.1319 -0.3170  0.1195
 3338DOPG   GL261912  13.445  19.298  15.912 -0.3056  0.1577  0.1315
 3338DOPG   C1A61913  13.284  18.833  15.913 -0.1964 -0.1357 -0.2058
 3338DOPG   D2A61914  13.067  18.864  16.361  0.1437 -0.2691  0.1280
 3338DOPG   C3A61915  12.581  18.758  16.554 -0.2871 -0.1587  0.0715
 3338DOPG   C4A61916  12.134  18.828  16.674 -0.1488 -0.1619  0.0781
 3338DOPG   C1B61917  13.151  19.286  16.271 -0.0224 -0.0173  0.1144
 3338DOPG   D2B61918  13.079  19.569  16.709 -0.0620  0.1389  0.2591
 3338DOPG   C3B61919  12.811  19.485  17.062 -0.4263  0.2766  0.1283
 3338DOPG   C4B61920  12.480  19.352  17.322  0.1954 -0.1853 -0.2412
 3339DOPG   GL061921  12.999  14.853  14.741  0.1815  0.0382  0.1833
 3339DOPG   PO461922  13.403  14.664  14.958  0.2194 -0.1912  0.2290
 3339DOPG   GL161923  13.942  14.528  14.960 -0.2754  0.2405  0.2457
 3339DOPG   GL261924  14.128  14.868  14.874 -0.0622  0.1761 -0.0063
 3339DOPG   C1A61925  14.244  14.207  14.716 -0.3262 -0.2512 -0.3651
 3339DOPG   D2A61926  14.656  14.269  14.546 -0.1952 -0.3419 -0.0090
 3339DOPG   C3A61927  14.812  14.265  14.135  0.0865  0.1744  0.0595
 3339DOPG   C4A61928  15.205  14.329  13.876 -0.0951  0.2158 -0.0685
 3339DOPG   C1B61929  14.522  15.015  15.092  0.2241 -0.3168 -0.0108
 3339DOPG   D2B61930  14.664  15.435  15.021 -0.2530  0.1024  0.0149
 3339DOPG   C3B61931  14.757  15.684  15.329 -0.0523 -0.0265 -0.2509
 3339DOPG   C4B61932  14.383  15.810  15.677  0.0019  0.3871  0.0723
 3340DOPG   GL061933  13.944  18.021  14.580 -0.1027  0.1357  0.0449
 3340DOPG   PO461934  14.040  18.118  14.991  0.0155 -0.0021  0.1835
 3340DOPG   GL161935  14.055  18.073  15.381 -0.1692  0.2390 -0.2535
 3340DOPG   GL261936  14.058  18.355  15.558  0.0889  0.0360  0.1540
 3340DOPG   C1A61937  13.731  17.976  15.774 -0.0918  0.2479  0.1502
 3340DOPG   D2A61938  13.412  17.723  15.941 -0.0726 -0.0141 -0.0151
 3340DOPG   C3A61939  13.394  17.625  16.408  0.1390 -0.4566  0.3631
 3340DOPG   C4A61940  13.170  17.655  16.814  0.1635 -0.1094  0.1715
 3340DOPG   C1B61941  14.115  18.821  15.964 -0.2545  0.1049  0.0220
 3340DOPG   D2B61942  13.721  18.963  16.188  0.0450 -0.1882 -0.3250
 3340DOPG   C3B61943  13.527  18.573  16.335 -0.0889 -0.1143  0.0267
 3340DOPG   C4B61944  13.485  18.121  16.365  0.3514  0.1335 -0.2565
 3341DOPG   GL061945  21.006  20.074  16.900 -0.2610 -0.1604 -0.4954
 3341DOPG   PO461946  21.064  20.490  16.798 -0.4278 -0.0182  0.0375
 3341DOPG   GL161947  20.930  20.821  16.564 -0.0377 -0.0109 -0.0499
 3341DOPG   GL261948  20.852  20.597  16.348 -0.0180  0.0270 -0.0472
 3341DOPG   C1A61949  21.140  21.076  16.318 -0.2043  0.1137  0.0648
 3341DOPG   D2A61950  21.441  21.083  16.004  0.0141 -0.1383 -0.4511
 3341DOPG   C3A61951  21.833  20.858  16.156 -0.1853  0.4216  0.0055
 3341DOPG   C4A61952  22.273  20.989  16.074 -0.0108  0.0686  0.1701
 3341DOPG   C1B61953  21.090  20.748  15.939  0.0229 -0.0565 -0.0337
 3341DOPG   D2B61954  20.852  20.921  15.622  0.0496 -0.0962 -0.1624
 3341DOPG   C3B61955  21.098  20.849  15.243  0.1769  0.2069  0.5129
 3341DOPG   C4B61956  21.290  20.895  14.875  0.1786  0.4647  0.1602
 3342DOPG   GL061957  13.214  12.751  15.096  0.0561  0.1079  0.2445
 3342DOPG   PO461958  13.399  13.156  15.095 -0.0515 -0.0255  0.1099
 3342DOPG   GL161959  13.448  13.152  14.646  0.1214  0.2503 -0.0641
 3342DOPG   GL261960  13.152  13.038  14.694 -0.1875  0.0178  0.0635
 3342DOPG   C1A61961  13.529  12.788  14.287  0.0413 -0.1259 -0.1408
 3342DOPG   D2A61962  13.837  12.690  14.094  0.3103 -0.1088 -0.1869
 3342DOPG   C3A61963  13.920  12.575  13.648  0.1585 -0.0212 -0.0521
 3342DOPG   C4A61964  14.200  12.197  13.600 -0.0477  0.1283  0.2302
 3342DOPG   C1B61965  13.253  13.164  14.152 -0.1576  0.0665  0.1253
 3342DOPG   D2B61966  13.198  13.148  13.740 -0.4531 -0.1757 -0.3162
 3342DOPG   C3B61967  13.315  12.777  13.619 -0.3692  0.0340 -0.1282
 3342DOPG   C4B61968  13.178  12.454  13.277 -0.2640 -0.0152 -0.0565
 3343DOPG   GL061969   9.264  21.536  16.261 -0.0727  0.0106 -0.1831
 3343DOPG   PO461970   9.688  21.725  16.257 -0.2123 -0.1139 -0.1132
 3343DOPG   GL161971  10.064  22.133  16.086  0.1888  0.0932  0.2049
 3343DOPG   GL261972  10.003  22.164  16.469 -0.0641  0.2198  0.1206
 3343DOPG   C1A61973  10.102  22.308  15.738 -0.1952  0.1212 -0.0496
 3343DOPG   D2A61974  10.215  22.548  15.291 -0.1032  0.1342 -0.1273
 3343DOPG   C3A61975  10.594  22.555  15.197 -0.1352  0.0543 -0.4110
 3343DOPG   C4A61976  11.145  22.585  15.313  0.0087  0.1168  0.1326
 3343DOPG   C1B61977   9.979  22.597  16.624 -0.1634  0.0572  0.0462
 3343DOPG   D2B61978  10.216  22.902  16.802  0.0296  0.1903 -0.0567
 3343DOPG   C3B61979  10.547  22.681  17.100  0.0679  0.1385  0.1400
 3343DOPG   C4B61980  10.873  22.510  17.220 -0.1681 -0.1572 -0.0777
 3344DOPG   GL061981   8.960  18.461  16.635  0.1643  0.1585  0.0211
 3344DOPG   PO461982   9.277  18.659  16.803 -0.4293  0.1720 -0.1376
 3344DOPG   GL161983   9.656  18.320  16.580  0.1412  0.1890  0.0360
 3344DOPG   GL261984   9.708  17.958  16.751 -0.1202 -0.0527  0.2153
 3344DOPG   C1A61985   9.761  18.249  16.153 -0.3256  0.1755  0.0911
 3344DOPG   D2A61986  10.036  18.177  15.787  0.3708  0.0047  0.0639
 3344DOPG   C3A61987  10.115  17.765  15.613  0.2215 -0.0019  0.1872
 3344DOPG   C4A61988  10.116  17.337  15.783 -0.0703 -0.0464 -0.1698
 3344DOPG   C1B61989   9.988  17.924  16.477 -0.0710 -0.1449 -0.1658
 3344DOPG   D2B61990  10.214  18.084  16.238 -0.0586  0.1202 -0.2791
 3344DOPG   C3B61991  10.417  17.821  15.977 -0.1781  0.2456 -0.1223
 3344DOPG   C4B61992  10.613  17.542  15.798 -0.0018  0.0966 -0.0885
 3345DOPG   GL061993  14.292  13.318  15.347 -0.1665  0.1393  0.0021
 3345DOPG   PO461994  14.303  13.017  15.632 -0.0411  0.0043 -0.1895
 3345DOPG   GL161995  14.319  12.784  15.206  0.2540  0.1970 -0.0093
 3345DOPG   GL261996  14.195  12.632  14.866  0.1972  0.2526  0.1084
 3345DOPG   C1A61997  14.663  12.464  15.043 -0.0492 -0.0233 -0.2630
 3345DOPG   D2A61998  14.933  12.227  14.640 -0.0195 -0.0001  0.2242
 3345DOPG   C3A61999  14.840  12.413  14.161  0.0359 -0.1283  0.0338
 3345DOPG   C4A62000  14.961  12.663  13.750  0.1319 -0.0430  0.0847
 3345DOPG   C1B62001  14.403  12.404  14.591  0.1833 -0.0859  0.1046
 3345DOPG   D2B62002  14.242  12.370  14.138  0.0288 -0.1374  0.2720
 3345DOPG   C3B62003  14.407  12.675  13.776 -0.0760 -0.3777 -0.0629
 3345DOPG   C4B62004  14.187  13.053  13.802 -0.0450 -0.0977  0.1681
 3346DOPG   GL062005  12.353  21.279  16.407  0.0436 -0.1681  0.1242
 3346DOPG   PO462006  12.329  21.056  16.075  0.2002  0.0357 -0.1509
 3346DOPG   GL162007  12.183  21.287  15.744 -0.0211 -0.2021  0.1776
 3346DOPG   GL262008  12.048  21.050  15.546 -0.2202  0.1185 -0.1048
 3346DOPG   C1A62009  12.114  21.642  15.477 -0.0853 -0.1967  0.2918
 3346DOPG   D2A62010  11.940  21.965  15.160 -0.1770 -0.0839 -0.0818
 3346DOPG   C3A62011  12.031  22.345  14.957  0.2259 -0.0548  0.1427
 3346DOPG   C4A62012  11.931  22.705  14.612 -0.1093  0.0603 -0.1445
 3346DOPG   C1B62013  12.122  21.292  15.092 -0.1530  0.2472  0.1800
 3346DOPG   D2B62014  11.859  21.406  14.662 -0.1486  0.0860 -0.0529
 3346DOPG   C3B62015  11.572  21.811  14.729  0.0828  0.0103 -0.2376
 3346DOPG   C4B62016  11.444  22.071  14.981  0.0243  0.0376 -0.3437
 3347DOPG   GL062017  10.540  18.635  18.193 -0.0529  0.0271  0.1867
 3347DOPG   PO462018  10.737  18.276  17.993 -0.3950  0.0558 -0.1564
 3347DOPG   GL162019  10.849  17.874  17.929  0.1363  0.3580 -0.3487
 3347DOPG   GL262020  10.655  17.684  17.628 -0.2004 -0.2107  0.0660
 3347DOPG   C1A62021  11.179  17.563  18.077 -0.0415 -0.0936  0.1651
 3347DOPG   D2A62022  11.172  17.318  18.340  0.1627 -0.3566 -0.1523
 3347DOPG   C3A62023  11.168  17.540  18.703  0.0692  0.3050 -0.1858
 3347DOPG   C4A62024  11.548  17.861  18.925 -0.1164 -0.0370  0.0059
 3347DOPG   C1B62025  11.012  17.701  17.510  0.3192 -0.1880  0.1097
 3347DOPG   D2B62026  11.244  17.982  17.158 -0.1277 -0.0292 -0.1661
 3347DOPG   C3B62027  11.456  17.981  16.782 -0.3391 -0.1221 -0.0232
 3347DOPG   C4B62028  11.537  17.666  16.599 -0.1744 -0.0333 -0.2639
 3348DOPG   GL062029  12.757  11.289  17.012  0.0499  0.0592  0.2535
 3348DOPG   PO462030  12.812  10.854  17.095 -0.0525  0.1270 -0.0012
 3348DOPG   GL162031  12.751  10.587  16.712 -0.0746 -0.1295  0.5539
 3348DOPG   GL262032  12.970  10.416  16.572 -0.2964  0.0694  0.1198
 3348DOPG   C1A62033  12.561  10.416  16.316 -0.2008 -0.0143 -0.2317
 3348DOPG   D2A62034  12.628  10.114  15.967 -0.4835  0.2352 -0.1158
 3348DOPG   C3A62035  12.304  10.164  15.653  0.1053 -0.0545  0.1494
 3348DOPG   C4A62036  11.849  10.053  15.493 -0.3515 -0.2102  0.1256
 3348DOPG   C1B62037  12.828   9.992  16.547  0.0956 -0.1040  0.0763
 3348DOPG   D2B62038  12.580   9.787  16.333  0.4466 -0.0699  0.2794
 3348DOPG   C3B62039  12.932   9.640  16.042  0.2978 -0.2020 -0.1905
 3348DOPG   C4B62040  13.038   9.283  16.269  0.2728  0.0020  0.2835
 3349DOPG   GL062041  13.178  20.549  15.120 -0.1143  0.2590 -0.2224
 3349DOPG   PO462042  13.477  20.280  15.031 -0.0608  0.1420  0.2171
 3349DOPG   GL162043  13.246  20.321  14.681 -0.1103 -0.3571  0.0087
 3349DOPG   GL262044  13.327  20.024  14.533 -0.1766 -0.4320 -0.0975
 3349DOPG   C1A62045  12.859  20.575  14.652  0.1559  0.1506 -0.2797
 3349DOPG   D2A62046  12.485  20.765  14.479 -0.3988 -0.1171  0.1492
 3349DOPG   C3A62047  12.477  21.165  14.409 -0.1745  0.1118 -0.3249
 3349DOPG   C4A62048  12.292  21.532  14.306  0.0586  0.2708  0.2638
 3349DOPG   C1B62049  13.233  20.319  14.161 -0.0565 -0.3575 -0.2965
 3349DOPG   D2B62050  12.979  20.567  14.044  0.0314  0.0539  0.3824
 3349DOPG   C3B62051  12.897  20.996  14.030 -0.0957 -0.0428 -0.0094
 3349DOPG   C4B62052  12.839  21.422  14.185  0.0763 -0.0237  0.2623
 3350DOPG   GL062053  19.086  14.715  17.879 -0.1081 -0.2776 -0.0516
 3350DOPG   PO462054  19.226  14.368  17.818  0.2009 -0.2397 -0.2474
 3350DOPG   GL162055  19.565  14.303  17.596 -0.0427  0.0717  0.2280
 3350DOPG   GL262056  19.535  13.993  17.625 -0.2113 -0.0193 -0.0586
 3350DOPG   C1A62057  19.961  14.198  17.725 -0.1874 -0.5228 -0.2717
 3350DOPG   D2A62058  20.441  14.239  17.801  0.0443  0.2736  0.2747
 3350DOPG   C3A62059  20.654  13.901  17.647 -0.1667  0.1093 -0.1028
 3350DOPG   C4A62060  20.743  13.526  17.927 -0.0890  0.0938  0.2486
 3350DOPG   C1B62061  19.850  14.111  17.254 -0.1879  0.0348 -0.1482
 3350DOPG   D2B62062  20.299  14.006  17.089 -0.0933  0.1941  0.1542
 3350DOPG   C3B62063  20.287  13.809  16.630  0.0417 -0.4754 -0.0712
 3350DOPG   C4B62064  19.907  13.513  16.426  0.2755  0.0276  0.2052
 3351DOPG   GL062065  22.601  18.185  16.531 -0.2535  0.1329 -0.3643
 3351DOPG   PO462066  23.020  18.345  16.615 -0.1053 -0.1415  0.3302
 3351DOPG   GL162067  23.195  17.880  16.454  0.0575 -0.0589  0.1823
 3351DOPG   GL262068  23.422  17.619  16.639  0.1539  0.2164 -0.1868
 3351DOPG   C1A62069  23.428  17.822  16.081  0.0126  0.1436  0.1307
 3351DOPG   D2A62070  23.189  17.727  15.738  0.2741 -0.0176 -0.1331
 3351DOPG   C3A62071  23.210  18.010  15.347 -0.0197  0.0209 -0.2746
 3351DOPG   C4A62072  23.245  18.053  14.891  0.2726  0.0863 -0.1105
 3351DOPG   C1B62073  23.804  17.495  16.384 -0.2272 -0.3867 -0.1103
 3351DOPG   D2B62074  23.930  17.216  16.119 -0.0236 -0.1084 -0.2043
 3351DOPG   C3B62075  23.643  17.020  15.820 -0.1067 -0.0988  0.3371
 3351DOPG   C4B62076  23.413  16.811  15.465 -0.0783  0.0736 -0.0548
 3352DOPG   GL062077   9.163  20.203  16.583 -0.0247 -0.3646  0.0147
 3352DOPG   PO462078   9.557  20.323  16.643 -0.0740 -0.1272  0.0661
 3352DOPG   GL162079   9.509  20.087  16.257  0.0736  0.1909 -0.2809
 3352DOPG   GL262080   9.207  20.096  16.119 -0.0488  0.2881  0.1538
 3352DOPG   C1A62081   9.837  19.801  15.993 -0.1598 -0.2766  0.2076
 3352DOPG   D2A62082  10.152  19.554  15.719  0.1019 -0.0998  0.1609
 3352DOPG   C3A62083  10.151  19.923  15.455 -0.1357  0.1072  0.1102
 3352DOPG   C4A62084  10.409  20.318  15.407 -0.0400 -0.2292  0.0122
 3352DOPG   C1B62085   9.403  20.029  15.760  0.1336 -0.1192 -0.2745
 3352DOPG   D2B62086   9.686  20.228  15.450  0.0339  0.0383  0.1197
 3352DOPG   C3B62087   9.789  20.002  15.094 -0.1468 -0.2409  0.1451
 3352DOPG   C4B62088   9.826  19.688  14.720  0.3177 -0.0549 -0.1044
 3353DOPG   GL062089  12.099  11.813  16.161 -0.0785 -0.1414 -0.1178
 3353DOPG   PO462090  11.979  11.738  15.731  0.0491  0.0052 -0.4221
 3353DOPG   GL162091  12.054  11.411  15.474 -0.0075 -0.1036 -0.0607
 3353DOPG   GL262092  12.234  11.610  15.255 -0.4881  0.7340 -0.0731
 3353DOPG   C1A62093  12.204  10.982  15.254 -0.0133 -0.2054 -0.3084
 3353DOPG   D2A62094  12.338  10.841  14.877 -0.0795  0.0276  0.4557
 3353DOPG   C3A62095  12.294  10.514  14.528 -0.1945  0.0218  0.5178
 3353DOPG   C4A62096  12.229  10.569  14.091 -0.0599  0.2923  0.1232
 3353DOPG   C1B62097  11.993  11.848  14.910 -0.0319  0.1457 -0.0410
 3353DOPG   D2B62098  11.724  12.160  14.769 -0.1421  0.1299  0.1776
 3353DOPG   C3B62099  11.306  12.176  14.913 -0.0727  0.2057  0.0843
 3353DOPG   C4B62100  11.186  12.487  15.090  0.4418  0.0624  0.2816
 3354DOPG   GL062101  12.483  15.015  14.578 -0.2903 -0.0779 -0.0913
 3354DOPG   PO462102  12.102  15.056  14.316  0.2696  0.0854  0.0812
 3354DOPG   GL162103  11.871  15.202  14.117  0.1453  0.1570  0.0990
 3354DOPG   GL262104  11.843  15.526  14.330 -0.0382 -0.1953 -0.0000
 3354DOPG   C1A62105  11.563  15.435  13.859 -0.2100 -0.1065  0.1794
 3354DOPG   D2A62106  11.021  15.527  13.691  0.1268 -0.2605 -0.3551
 3354DOPG   C3A62107  10.709  15.393  13.937 -0.2160 -0.2595  0.0468
 3354DOPG   C4A62108  10.197  15.423  14.013 -0.2021 -0.2499  0.0272
 3354DOPG   C1B62109  11.496  15.436  14.366  0.3312  0.3018 -0.2879
 3354DOPG   D2B62110  11.301  15.392  14.763  0.0301 -0.1484  0.0224
 3354DOPG   C3B62111  10.858  15.175  14.976  0.0279 -0.0489 -0.1083
 3354DOPG   C4B62112  10.471  14.827  15.149 -0.0406  0.1813 -0.2463
 3355DOPG   GL062113  17.085  12.251  17.402 -0.0616 -0.0547  0.3765
 3355DOPG   PO462114  17.176  12.243  16.840  0.1272  0.1231 -0.2185
 3355DOPG   GL162115  17.394  12.234  16.345 -0.0208 -0.0038  0.0595
 3355DOPG   GL262116  17.615  12.502  16.319 -0.4124 -0.4027 -0.0734
 3355DOPG   C1A62117  17.501  12.140  15.921  0.0988  0.1530 -0.1893
 3355DOPG   D2A62118  17.510  11.841  15.705  0.2026  0.1771 -0.1704
 3355DOPG   C3A62119  17.876  11.556  15.597  0.2330  0.1436  0.1609
 3355DOPG   C4A62120  18.077  11.248  15.786  0.0816  0.0898  0.0250
 3355DOPG   C1B62121  17.949  12.268  16.159  0.0432 -0.2993 -0.1795
 3355DOPG   D2B62122  17.893  11.855  15.996 -0.0606  0.0674 -0.1166
 3355DOPG   C3B62123  18.226  11.577  16.148 -0.2185 -0.1675  0.1624
 3355DOPG   C4B62124  18.325  11.420  16.562 -0.0554 -0.1389  0.1948
 3356DOPG   GL062125   9.793  18.715  17.300  0.2076 -0.0523  0.0774
 3356DOPG   PO462126   9.869  18.347  17.040 -0.3048 -0.2191  0.2665
 3356DOPG   GL162127  10.164  18.307  16.834 -0.0891 -0.0510 -0.0961
 3356DOPG   GL262128  10.410  18.469  17.003  0.0335  0.1519  0.1581
 3356DOPG   C1A62129  10.274  18.505  16.525 -0.1056  0.1212 -0.1377
 3356DOPG   D2A62130  10.487  18.532  16.151  0.1743  0.0858 -0.3360
 3356DOPG   C3A62131  10.711  18.251  15.827  0.3023  0.0835 -0.2355
 3356DOPG   C4A62132  10.976  17.841  15.898  0.0662  0.0492 -0.2518
 3356DOPG   C1B62133  10.836  18.407  17.186 -0.0850 -0.0544 -0.0425
 3356DOPG   D2B62134  11.071  18.204  17.620 -0.2490 -0.0031 -0.3552
 3356DOPG   C3B62135  11.467  17.884  17.656  0.1255 -0.0514  0.1485
 3356DOPG   C4B62136  11.833  17.582  17.753 -0.1355 -0.1234  0.2075
 3357DOPG   GL062137  22.575  19.643  16.708 -0.1541 -0.1017  0.0280
 3357DOPG   PO462138  22.626  19.924  16.349 -0.0338 -0.1025 -0.1464
 3357DOPG   GL162139  22.340  20.273  16.247 -0.2036  0.2736  0.3374
 3357DOPG   GL262140  22.193  20.625  16.423 -0.0228 -0.0445 -0.2745
 3357DOPG   C1A62141  22.153  20.406  15.932  0.1671 -0.1170  0.1972
 3357DOPG   D2A62142  22.073  20.661  15.547 -0.0778  0.2037  0.2477
 3357DOPG   C3A62143  22.407  20.940  15.612  0.2193  0.1108 -0.4802
 3357DOPG   C4A62144  22.772  21.241  15.753 -0.1431  0.0416  0.2294
 3357DOPG   C1B62145  22.005  21.060  16.567  0.4913 -0.0827 -0.1808
 3357DOPG   D2B62146  21.946  21.564  16.547  0.3404  0.0267  0.0450
 3357DOPG   C3B62147  22.027  21.927  16.165 -0.1292  0.0847  0.0274
 3357DOPG   C4B62148  21.853  22.245  15.853  0.0594 -0.1335  0.0376
 3358DOPG   GL062149  13.554  19.786  14.931  0.0218 -0.1446  0.1516
 3358DOPG   PO462150  13.149  19.580  14.756 -0.1271  0.0830 -0.0323
 3358DOPG   GL162151  12.913  19.743  14.457  0.1287  0.2366 -0.0282
 3358DOPG   GL262152  12.779  19.912  14.568 -0.0983  0.0954  0.1735
 3358DOPG   C1A62153  12.959  19.899  14.080  0.2780 -0.0136 -0.2771
 3358DOPG   D2A62154  12.620  20.061  13.894  0.1108 -0.0936  0.0284
 3358DOPG   C3A62155  12.175  19.945  13.893 -0.0637  0.0588 -0.0395
 3358DOPG   C4A62156  11.836  19.913  13.733  0.0385 -0.0855 -0.1265
 3358DOPG   C1B62157  12.726  20.244  14.310 -0.2004  0.2013 -0.0361
 3358DOPG   D2B62158  12.464  20.580  14.016  0.0233  0.1672 -0.2487
 3358DOPG   C3B62159  12.491  20.746  13.557  0.0729 -0.0035  0.0539
 3358DOPG   C4B62160  12.337  20.716  13.133 -0.1164 -0.0384 -0.1928
 3359DOPG   GL062161  18.920  17.677  15.160  0.1392  0.1618 -0.0320
 3359DOPG   PO462162  18.767  17.476  15.495 -0.0677  0.0098 -0.0449
 3359DOPG   GL162163  18.706  17.392  16.011 -0.0430  0.0645  0.1972
 3359DOPG   GL262164  18.600  17.091  15.844 -0.1161  0.3285 -0.1240
 3359DOPG   C1A62165  18.616  17.178  16.347 -0.0766  0.0658  0.0546
 3359DOPG   D2A62166  18.447  17.025  16.719 -0.0935  0.1960  0.3802
 3359DOPG   C3A62167  18.544  17.076  17.127 -0.0517 -0.3091 -0.0101
 3359DOPG   C4A62168  18.529  16.967  17.623 -0.1815 -0.1869  0.2088
 3359DOPG   C1B62169  18.355  16.654  16.095  0.0569 -0.0249  0.2485
 3359DOPG   D2B62170  18.625  16.300  15.999 -0.1865 -0.3072  0.0943
 3359DOPG   C3B62171  18.809  16.163  16.279 -0.0587 -0.3227  0.0018
 3359DOPG   C4B62172  18.905  16.233  16.679  0.1209  0.1216  0.0301
 3360DOPG   GL062173  19.726  17.258  14.771 -0.1148  0.2215  0.1707
 3360DOPG   PO462174  19.646  17.017  14.453 -0.1810  0.0330 -0.1052
 3360DOPG   GL162175  20.000  16.864  14.403 -0.2604  0.1413  0.3690
 3360DOPG   GL262176  20.366  16.977  14.554 -0.1599  0.0125  0.0629
 3360DOPG   C1A62177  20.356  16.578  14.314 -0.3316 -0.1949  0.0253
 3360DOPG   D2A62178  20.569  16.161  14.222  0.1756 -0.0982 -0.0909
 3360DOPG   C3A62179  20.502  15.770  14.396 -0.0320  0.1495 -0.0486
 3360DOPG   C4A62180  20.771  15.383  14.460  0.2058  0.4097 -0.2682
 3360DOPG   C1B62181  20.598  16.586  14.728 -0.0778 -0.2371  0.1457
 3360DOPG   D2B62182  20.830  16.431  14.564  0.1340 -0.0419  0.0130
 3360DOPG   C3B62183  21.265  16.301  14.720  0.1771  0.0360  0.0736
 3360DOPG   C4B62184  21.598  16.207  14.959  0.3106  0.0928 -0.0184
 3361DOPG   GL062185  14.706  10.840  16.532  0.2642  0.1879 -0.1919
 3361DOPG   PO462186  14.249  10.835  16.421 -0.0777  0.1218 -0.1670
 3361DOPG   GL162187  13.974  10.450  16.266  0.1607  0.0701  0.1706
 3361DOPG   GL262188  13.926  10.192  16.493  0.1302 -0.3165  0.1590
 3361DOPG   C1A62189  14.041  10.182  15.936  0.1659  0.1681  0.1057
 3361DOPG   D2A62190  14.006   9.964  15.532 -0.1370  0.2792  0.0887
 3361DOPG   C3A62191  13.740   9.581  15.480 -0.2463  0.0962 -0.1777
 3361DOPG   C4A62192  13.807   9.113  15.671  0.1443 -0.1149  0.0167
 3361DOPG   C1B62193  13.918   9.857  16.307  0.0178  0.0047  0.2607
 3361DOPG   D2B62194  13.801   9.474  16.106 -0.0495 -0.0640 -0.2088
 3361DOPG   C3B62195  13.487   9.120  16.035 -0.1740 -0.0751 -0.1195
 3361DOPG   C4B62196  13.099   8.982  15.940  0.1710  0.2415  0.1591
 3362DOPG   GL062197  24.644  19.595  17.521 -0.0948  0.0257 -0.1753
 3362DOPG   PO462198  24.312  19.528  17.194 -0.2091 -0.1046  0.2276
 3362DOPG   GL162199  24.589  19.811  17.003 -0.1138  0.2800 -0.0245
 3362DOPG   GL262200  24.509  20.069  17.001 -0.0847  0.0262  0.0218
 3362DOPG   C1A62201  25.011  19.727  16.809  0.2038  0.1919  0.2130
 3362DOPG   D2A62202  25.419  19.607  16.706 -0.1432 -0.1728  0.2610
 3362DOPG   C3A62203  25.642  19.871  16.512  0.1786 -0.1371 -0.0323
 3362DOPG   C4A62204  26.055  20.005  16.479  0.5245 -0.1416 -0.1203
 3362DOPG   C1B62205  24.531  20.082  16.543  0.2444  0.0381 -0.1099
 3362DOPG   D2B62206  24.771  20.321  16.201  0.3370 -0.0323  0.0446
 3362DOPG   C3B62207  24.744  20.702  15.893  0.1096  0.1956 -0.2807
 3362DOPG   C4B62208  25.056  20.991  15.663  0.3191 -0.2485  0.0983
 3363DOPG   GL062209  17.542  14.127  15.578 -0.2096  0.0924  0.2524
 3363DOPG   PO462210  17.250  14.302  15.255  0.2538 -0.0833  0.0339
 3363DOPG   GL162211  17.579  14.237  14.950  0.3495 -0.0497 -0.1021
 3363DOPG   GL262212  17.579  14.477  14.670  0.1203  0.1496 -0.2435
 3363DOPG   C1A62213  17.728  14.045  14.614  0.1854  0.0156  0.0223
 3363DOPG   D2A62214  17.523  13.773  14.375 -0.1797 -0.3219  0.0283
 3363DOPG   C3A62215  17.571  13.970  13.981 -0.2189 -0.0578  0.0945
 3363DOPG   C4A62216  17.775  14.276  13.739  0.0512  0.3932  0.1049
 3363DOPG   C1B62217  17.331  14.306  14.479  0.0448  0.0672  0.2705
 3363DOPG   D2B62218  17.200  14.375  13.991  0.1753  0.3507  0.0455
 3363DOPG   C3B62219  16.759  14.345  13.815 -0.1784  0.0147 -0.2455
 3363DOPG   C4B62220  16.350  14.527  13.868 -0.1033 -0.0250 -0.1907
 3364DOPG   GL062221   9.272  12.350  16.757  0.1973  0.0858 -0.1906
 3364DOPG   PO462222   8.893  12.570  16.514  0.0664  0.0080 -0.0019
 3364DOPG   GL162223   8.944  12.368  16.154 -0.1073 -0.2981 -0.1125
 3364DOPG   GL262224   8.661  12.318  16.134  0.1063 -0.0740 -0.1086
 3364DOPG   C1A62225   9.184  12.556  15.734  0.0654  0.0748  0.0362
 3364DOPG   D2A62226   9.302  12.734  15.288  0.1614  0.5525 -0.0836
 3364DOPG   C3A62227   9.479  12.488  14.879 -0.1504 -0.2790  0.0974
 3364DOPG   C4A62228   9.520  12.524  14.451 -0.0823  0.0027  0.2177
 3364DOPG   C1B62229   8.426  12.414  15.702 -0.5337  0.3135  0.5312
 3364DOPG   D2B62230   8.143  12.803  15.494 -0.1481  0.0512 -0.1402
 3364DOPG   C3B62231   8.472  13.053  15.309  0.0672 -0.0001 -0.0948
 3364DOPG   C4B62232   8.598  13.029  14.892  0.1411  0.0260  0.1102
 3365DOPG   GL062233  12.703  17.022  15.727  0.2409  0.1738 -0.1381
 3365DOPG   PO462234  12.213  16.821  15.840 -0.0885 -0.0718  0.0684
 3365DOPG   GL162235  11.915  17.072  15.969  0.1620 -0.1597  0.2282
 3365DOPG   GL262236  11.610  17.178  15.786 -0.3048  0.2019 -0.2849
 3365DOPG   C1A62237  11.691  17.414  16.226 -0.1552  0.3456 -0.0151
 3365DOPG   D2A62238  11.238  17.423  16.236 -0.0322  0.0111  0.2006
 3365DOPG   C3A62239  10.995  17.180  15.860  0.1038 -0.0971 -0.1148
 3365DOPG   C4A62240  10.757  16.937  15.571  0.1985  0.0141 -0.3910
 3365DOPG   C1B62241  11.320  17.576  15.662  0.1036  0.2319 -0.0291
 3365DOPG   D2B62242  11.241  17.765  15.277  0.2157  0.0155 -0.1328
 3365DOPG   C3B62243  10.841  17.949  15.341 -0.0895  0.0335 -0.0403
 3365DOPG   C4B62244  10.468  18.150  15.384  0.1496  0.0931  0.1125
 3366DOPG   GL062245  13.319  21.123  16.029 -0.2841  0.4399  0.1494
 3366DOPG   PO462246  13.123  21.473  15.794 -0.0454 -0.0247 -0.0928
 3366DOPG   GL162247  13.120  21.826  15.846 -0.0484 -0.2506 -0.2388
 3366DOPG   GL262248  13.116  21.947  16.257 -0.1506 -0.2004 -0.0145
 3366DOPG   C1A62249  13.142  22.279  15.610 -0.1976  0.2011 -0.0267
 3366DOPG   D2A62250  13.388  22.577  15.311  0.0952  0.0334 -0.0761
 3366DOPG   C3A62251  13.341  22.566  15.003 -0.0651  0.1246  0.2534
 3366DOPG   C4A62252  13.048  22.676  14.788 -0.3124 -0.0052 -0.2933
 3366DOPG   C1B62253  13.499  22.148  15.989 -0.0539  0.0006  0.1426
 3366DOPG   D2B62254  13.980  22.149  15.869  0.0610 -0.1388  0.2186
 3366DOPG   C3B62255  14.116  22.215  15.485  0.2078  0.0654 -0.0064
 3366DOPG   C4B62256  13.889  22.555  15.276 -0.2585  0.1087  0.1319
 3367DOPG   GL062257  23.422  19.582  16.305  0.0074  0.1781 -0.3264
 3367DOPG   PO462258  23.299  19.959  16.261  0.2673  0.3195  0.2568
 3367DOPG   GL162259  23.464  19.896  15.864 -0.0419  0.2602  0.2185
 3367DOPG   GL262260  23.234  19.790  15.721  0.0681 -0.1093  0.1585
 3367DOPG   C1A62261  23.692  19.891  15.440 -0.0484 -0.1744 -0.1350
 3367DOPG   D2A62262  24.029  19.963  15.149 -0.0143  0.1073  0.1234
 3367DOPG   C3A62263  24.284  19.638  15.052  0.0780  0.2496 -0.1186
 3367DOPG   C4A62264  24.330  19.279  14.951 -0.3805  0.2526 -0.2799
 3367DOPG   C1B62265  22.837  20.001  15.795  0.2540 -0.0214  0.0142
 3367DOPG   D2B62266  22.641  20.378  15.903  0.1144 -0.1746  0.2297
 3367DOPG   C3B62267  22.754  20.815  16.085 -0.1634 -0.2137  0.0859
 3367DOPG   C4B62268  22.911  21.254  16.246  0.3671 -0.4368  0.2262
 3368DOPG   GL062269  16.932  14.708  15.266 -0.4248  0.0133 -0.3273
 3368DOPG   PO462270  16.553  14.757  15.026 -0.2594 -0.0304 -0.4276
 3368DOPG   GL162271  16.408  14.774  14.673 -0.0431 -0.2413  0.1882
 3368DOPG   GL262272  16.369  14.414  14.724  0.0416  0.1621 -0.2702
 3368DOPG   C1A62273  16.100  14.691  14.290  0.1530  0.1290 -0.1006
 3368DOPG   D2A62274  15.886  14.839  13.895 -0.1624 -0.2653  0.0731
 3368DOPG   C3A62275  15.797  14.469  13.546  0.1469 -0.2731 -0.0058
 3368DOPG   C4A62276  15.708  14.183  13.195  0.1139 -0.0209 -0.2455
 3368DOPG   C1B62277  15.903  14.345  14.665 -0.2403 -0.1126  0.2884
 3368DOPG   D2B62278  15.690  14.259  14.205 -0.1323  0.3861  0.3412
 3368DOPG   C3B62279  15.942  14.203  13.892 -0.0265  0.0787 -0.2440
 3368DOPG   C4B62280  16.333  14.241  14.219 -0.0763  0.1429  0.1650
 3369DOPG   GL062281   6.361  23.695  15.476 -0.2694 -0.0517  0.1450
 3369DOPG   PO462282   6.166  23.669  15.891 -0.1062  0.0406 -0.0556
 3369DOPG   GL162283   6.650  23.393  15.971 -0.2191 -0.0671 -0.0589
 3369DOPG   GL262284   7.005  23.494  15.755  0.3033  0.2410 -0.0597
 3369DOPG   C1A62285   6.931  23.063  16.093 -0.1296 -0.4325 -0.0954
 3369DOPG   D2A62286   7.312  22.838  16.275  0.1467 -0.1318 -0.0572
 3369DOPG   C3A62287   7.736  22.773  16.307  0.0615  0.2384  0.1915
 3369DOPG   C4A62288   8.188  22.847  16.260 -0.3391  0.1379  0.1115
 3369DOPG   C1B62289   7.436  23.222  15.915 -0.1573 -0.0572  0.0203
 3369DOPG   D2B62290   7.842  23.077  15.906  0.4572  0.2829  0.1297
 3369DOPG   C3B62291   8.111  23.068  15.600 -0.0191  0.1612  0.0150
 3369DOPG   C4B62292   8.417  22.863  15.320  0.1000 -0.2123 -0.0653
 3370DOPG   GL062293  22.171  18.025  17.222  0.1580  0.0814  0.1286
 3370DOPG   PO462294  22.352  17.836  16.813 -0.2065 -0.2491 -0.3442
 3370DOPG   GL162295  22.680  17.686  16.433  0.0455 -0.0277 -0.1608
 3370DOPG   GL262296  22.469  17.485  16.280  0.0304 -0.1068 -0.2182
 3370DOPG   C1A62297  22.776  17.956  16.040 -0.2296 -0.3545 -0.1518
 3370DOPG   D2A62298  23.086  18.189  15.845 -0.1374  0.1164  0.1911
 3370DOPG   C3A62299  23.072  18.484  15.486 -0.0275  0.2060 -0.1337
 3370DOPG   C4A62300  23.028  18.932  15.482 -0.3675 -0.0068 -0.2890
 3370DOPG   C1B62301  22.712  17.494  15.925 -0.0229 -0.0129 -0.0979
 3370DOPG   D2B62302  22.957  17.271  15.497  0.1186 -0.1125 -0.2327
 3370DOPG   C3B62303  23.034  17.558  15.177  0.0364 -0.1265 -0.3913
 3370DOPG   C4B62304  22.802  17.810  14.772  0.4122 -0.0157 -0.1511
 3371DOPG   GL062305  16.776  13.639  15.934 -0.0533 -0.0005 -0.0551
 3371DOPG   PO462306  16.653  13.736  16.337  0.1269  0.0944 -0.0041
 3371DOPG   GL162307  16.296  13.906  16.531 -0.0257  0.1722  0.0401
 3371DOPG   GL262308  16.111  14.277  16.471  0.2303  0.3764 -0.2265
 3371DOPG   C1A62309  16.041  13.803  16.916  0.2203 -0.2055  0.2903
 3371DOPG   D2A62310  15.880  13.607  17.263 -0.0688  0.3576 -0.2216
 3371DOPG   C3A62311  15.562  13.800  17.462 -0.0806  0.0614 -0.1349
 3371DOPG   C4A62312  15.247  14.077  17.581  0.1963  0.3855  0.1730
 3371DOPG   C1B62313  16.248  14.687  16.619  0.1236 -0.0848  0.0522
 3371DOPG   D2B62314  16.201  14.807  17.068  0.1117  0.1972  0.3113
 3371DOPG   C3B62315  16.156  15.279  17.303  0.1281 -0.0644 -0.2666
 3371DOPG   C4B62316  15.877  15.584  17.538 -0.2966 -0.3427 -0.2210
 3372DOPG   GL062317  19.283  20.617  17.571 -0.0929 -0.2801 -0.1439
 3372DOPG   PO462318  19.667  20.810  17.717  0.0913  0.0289  0.1962
 3372DOPG   GL162319  19.561  21.128  17.494  0.3113 -0.2099 -0.2884
 3372DOPG   GL262320  19.279  21.208  17.413  0.1811 -0.1328 -0.1051
 3372DOPG   C1A62321  19.853  21.455  17.354  0.1705 -0.0031  0.1313
 3372DOPG   D2A62322  20.011  21.784  17.336  0.0564 -0.1109 -0.1980
 3372DOPG   C3A62323  20.387  21.913  17.082  0.3223 -0.1416 -0.2906
 3372DOPG   C4A62324  20.299  21.750  16.667 -0.2237  0.1264  0.0766
 3372DOPG   C1B62325  19.351  21.419  17.828  0.0761  0.1535  0.0518
 3372DOPG   D2B62326  19.743  21.730  17.832 -0.0183  0.1329 -0.0564
 3372DOPG   C3B62327  20.023  21.889  18.164  0.2906  0.3179  0.0838
 3372DOPG   C4B62328  20.330  22.374  18.195  0.2537 -0.2947  0.3619
 3373DOPG   GL062329  18.837  18.858  15.536  0.3277 -0.3424  0.1604
 3373DOPG   PO462330  18.756  19.189  15.170  0.2149  0.0564  0.0071
 3373DOPG   GL162331  18.943  19.319  14.847 -0.0533 -0.2094  0.0331
 3373DOPG   GL262332  18.837  19.077  14.666  0.1312 -0.1445  0.2358
 3373DOPG   C1A62333  19.070  19.737  14.739 -0.2378  0.0639 -0.0156
 3373DOPG   D2A62334  19.544  19.935  14.670 -0.1427 -0.0395  0.1438
 3373DOPG   C3A62335  19.708  20.189  14.242 -0.0828  0.1745  0.1170
 3373DOPG   C4A62336  19.558  20.053  13.876 -0.2389  0.3037 -0.0223
 3373DOPG   C1B62337  19.038  19.416  14.352  0.1642  0.1971 -0.1499
 3373DOPG   D2B62338  18.791  19.657  13.963 -0.0127 -0.2919 -0.1002
 3373DOPG   C3B62339  18.590  19.708  13.549 -0.1202  0.2060 -0.1436
 3373DOPG   C4B62340  18.459  19.461  13.117  0.2493 -0.0944  0.2371
 3374DOPG   GL062341  13.392  14.346  15.953 -0.0138  0.1532  0.0290
 3374DOPG   PO462342  13.608  14.823  15.843  0.2460  0.2124  0.1793
 3374DOPG   GL162343  13.424  14.870  16.167  0.2623  0.1231  0.0889
 3374DOPG   GL262344  13.137  14.903  16.122  0.0243 -0.0096 -0.1059
 3374DOPG   C1A62345  13.297  14.925  16.661  0.1053 -0.1431 -0.0694
 3374DOPG   D2A62346  13.195  15.251  17.017  0.1714  0.2235  0.4603
 3374DOPG   C3A62347  13.510  15.484  17.294 -0.3219 -0.1150  0.3429
 3374DOPG   C4A62348  13.767  15.755  17.225  0.0058  0.0623  0.0303
 3374DOPG   C1B62349  13.161  15.343  16.245 -0.1431  0.0360 -0.0512
 3374DOPG   D2B62350  13.037  15.625  16.496 -0.3482  0.0506 -0.0353
 3374DOPG   C3B62351  13.274  15.774  16.789 -0.4592 -0.0105  0.1750
 3374DOPG   C4B62352  13.652  16.035  16.748 -0.0503 -0.1784  0.0667
 3375DOPG   GL062353  11.566  20.261  16.467  0.3577  0.0535 -0.1777
 3375DOPG   PO462354  11.771  20.533  16.620 -0.2041 -0.1947  0.1330
 3375DOPG   GL162355  11.923  20.504  16.242  0.0678  0.0141 -0.2101
 3375DOPG   GL262356  11.951  20.706  15.944  0.0163 -0.3124  0.1948
 3375DOPG   C1A62357  12.300  20.297  16.054 -0.2286  0.1628  0.0429
 3375DOPG   D2A62358  12.261  20.072  15.689  0.1849  0.1727 -0.2709
 3375DOPG   C3A62359  11.849  19.968  15.480  0.2768 -0.1715 -0.2250
 3375DOPG   C4A62360  11.419  19.803  15.587 -0.4593  0.0703 -0.0844
 3375DOPG   C1B62361  11.958  20.512  15.443 -0.1177 -0.0996  0.1269
 3375DOPG   D2B62362  12.035  20.246  15.137 -0.3089  0.1217  0.2570
 3375DOPG   C3B62363  12.185  20.496  14.795 -0.2773 -0.1077 -0.4496
 3375DOPG   C4B62364  12.201  20.252  14.331  0.3153  0.3261  0.0871
 3376DOPG   GL062365  16.251  20.075  17.597 -0.0201  0.0302  0.0789
 3376DOPG   PO462366  16.126  20.136  17.208  0.1261 -0.1442 -0.1175
 3376DOPG   GL162367  16.286  19.921  16.929 -0.0500 -0.2360  0.1862
 3376DOPG   GL262368  15.944  19.699  16.883  0.4940  0.1513  0.1599
 3376DOPG   C1A62369  16.337  19.427  16.778 -0.0928 -0.0318  0.0398
 3376DOPG   D2A62370  16.600  19.136  16.515 -0.3152  0.0320 -0.2694
 3376DOPG   C3A62371  16.745  18.827  16.628  0.0629  0.1477 -0.0070
 3376DOPG   C4A62372  16.827  18.463  16.921  0.1896  0.3650 -0.1097
 3376DOPG   C1B62373  15.586  19.551  17.141 -0.2622  0.1925  0.3488
 3376DOPG   D2B62374  15.203  19.371  17.280  0.0036 -0.4917 -0.1177
 3376DOPG   C3B62375  15.285  19.002  17.440 -0.1167  0.2438 -0.3162
 3376DOPG   C4B62376  15.715  18.835  17.454  0.3568  0.0631  0.1587
 3377DOPG   GL062377  13.900  21.171  16.022  0.0264 -0.1205 -0.0137
 3377DOPG   PO462378  13.694  21.409  16.269 -0.0552  0.0145  0.1347
 3377DOPG   GL162379  13.613  21.553  15.890 -0.3233 -0.1220  0.1367
 3377DOPG   GL262380  13.919  21.531  15.672  0.3772  0.0712 -0.5364
 3377DOPG   C1A62381  13.606  21.913  15.589  0.1244 -0.2445 -0.1648
 3377DOPG   D2A62382  13.567  22.116  15.289  0.1072  0.1069 -0.3759
 3377DOPG   C3A62383  13.208  22.073  15.189  0.0807  0.0116 -0.1702
 3377DOPG   C4A62384  12.840  21.956  15.397  0.2115  0.1457 -0.3562
 3377DOPG   C1B62385  14.083  21.650  15.236  0.0055  0.1762  0.2375
 3377DOPG   D2B62386  13.684  21.737  14.921  0.1054 -0.0715 -0.0074
 3377DOPG   C3B62387  13.322  21.395  14.747  0.1228 -0.2822  0.0298
 3377DOPG   C4B62388  13.151  21.093  15.034 -0.1839  0.0539 -0.0743
 3378DOPG   GL062389  14.542  17.158  14.241  0.1757 -0.1109  0.1257
 3378DOPG   PO462390  14.239  17.227  14.085  0.1350 -0.0214  0.1459
 3378DOPG   GL162391  14.537  17.209  13.769 -0.0163 -0.0733 -0.0281
 3378DOPG   GL262392  14.918  17.014  13.800  0.1955  0.1154 -0.0962
 3378DOPG   C1A62393  14.846  17.373  13.391  0.2198  0.1277  0.0587
 3378DOPG   D2A62394  15.270  17.410  13.172 -0.0341 -0.0796 -0.2121
 3378DOPG   C3A62395  15.419  17.735  12.934 -0.1353 -0.0929 -0.0270
 3378DOPG   C4A62396  15.533  18.229  12.983  0.3517 -0.0053  0.3488
 3378DOPG   C1B62397  15.305  17.088  13.594 -0.1033  0.1575  0.0978
 3378DOPG   D2B62398  15.727  17.061  13.429 -0.0078  0.0384 -0.1461
 3378DOPG   C3B62399  15.719  16.972  12.978 -0.3128  0.1275 -0.1983
 3378DOPG   C4B62400  15.972  16.713  12.675 -0.0226 -0.0209 -0.1301
 3379DOPG   GL062401  16.462  15.933  15.695  0.2225  0.0987 -0.1930
 3379DOPG   PO462402  16.223  15.625  15.534 -0.0746 -0.0114  0.1422
 3379DOPG   GL162403  15.859  15.730  15.715  0.0539 -0.1593 -0.0042
 3379DOPG   GL262404  15.664  15.745  15.376 -0.4733  0.0459 -0.0853
 3379DOPG   C1A62405  15.435  15.757  15.777 -0.0014 -0.0036 -0.2442
 3379DOPG   D2A62406  15.069  15.884  16.143  0.0271 -0.0015  0.1062
 3379DOPG   C3A62407  15.050  16.356  16.205  0.3512 -0.0700 -0.0204
 3379DOPG   C4A62408  15.171  16.735  16.118 -0.1117  0.0084 -0.1564
 3379DOPG   C1B62409  15.724  15.533  14.965  0.2022  0.1651  0.0405
 3379DOPG   D2B62410  15.879  15.406  14.551 -0.1503  0.1454  0.0527
 3379DOPG   C3B62411  15.696  14.993  14.371  0.1505 -0.0252 -0.2262
 3379DOPG   C4B62412  15.467  14.736  14.072  0.0666  0.2203  0.0335
 3380DOPG   GL062413  20.452  18.827  16.041 -0.2254 -0.0865 -0.1346
 3380DOPG   PO462414  20.437  19.271  16.293 -0.2876 -0.1314 -0.0238
 3380DOPG   GL162415  20.653  19.273  15.916 -0.3608 -0.1487 -0.3563
 3380DOPG   GL262416  20.587  19.214  15.634 -0.1371  0.0812 -0.0617
 3380DOPG   C1A62417  20.952  19.537  15.603 -0.2059  0.0622 -0.4497
 3380DOPG   D2A62418  21.192  19.309  15.338  0.1498  0.0978  0.0031
 3380DOPG   C3A62419  21.054  19.185  14.913  0.0727  0.0704  0.2238
 3380DOPG   C4A62420  21.059  19.336  14.626  0.2817 -0.1299 -0.0688
 3380DOPG   C1B62421  20.823  18.863  15.623 -0.2152  0.3036  0.2315
 3380DOPG   D2B62422  21.108  18.839  15.358 -0.1953  0.2123 -0.2975
 3380DOPG   C3B62423  21.170  18.495  15.170  0.0456 -0.0281  0.1178
 3380DOPG   C4B62424  21.169  17.948  15.185 -0.0699 -0.0477  0.2971
 3381DOPG   GL062425  18.354  18.036  14.537  0.1434  0.1611 -0.1521
 3381DOPG   PO462426  17.988  18.221  14.369  0.0120 -0.0622  0.1756
 3381DOPG   GL162427  17.925  18.542  14.068  0.2876 -0.1938 -0.2742
 3381DOPG   GL262428  17.967  18.773  14.391  0.2614  0.1069  0.2278
 3381DOPG   C1A62429  18.021  18.906  13.748 -0.2938  0.0249 -0.2827
 3381DOPG   D2A62430  17.843  19.200  13.513 -0.2078  0.3022 -0.1518
 3381DOPG   C3A62431  18.059  19.196  13.164 -0.0713 -0.0003  0.1338
 3381DOPG   C4A62432  18.260  19.108  12.800  0.4517 -0.0305  0.2531
 3381DOPG   C1B62433  18.076  19.148  14.171 -0.1528 -0.3516  0.0093
 3381DOPG   D2B62434  17.828  19.479  13.978 -0.0398 -0.0091 -0.0335
 3381DOPG   C3B62435  17.919  19.923  13.956 -0.0955  0.0924 -0.0678
 3381DOPG   C4B62436  18.035  20.213  14.119 -0.0920  0.0195  0.1949
 3382DOPG   GL062437  13.580  17.596  15.188  0.0757 -0.0474  0.3270
 3382DOPG   PO462438  13.831  17.253  15.107  0.1370 -0.1164  0.1015
 3382DOPG   GL162439  13.883  17.020  15.420  0.1572  0.3269  0.4309
 3382DOPG   GL262440  13.570  17.074  15.584  0.0114  0.1567  0.0934
 3382DOPG   C1A62441  14.046  16.836  15.847 -0.0317  0.0076  0.2262
 3382DOPG   D2A62442  14.164  16.747  16.238 -0.1140 -0.3053  0.1456
 3382DOPG   C3A62443  14.281  16.393  16.357  0.1234  0.1403 -0.0136
 3382DOPG   C4A62444  14.544  16.116  16.093  0.1324  0.0314  0.0169
 3382DOPG   C1B62445  13.618  17.253  16.019  0.0727  0.1691  0.0516
 3382DOPG   D2B62446  13.946  17.204  16.276 -0.2052 -0.0863 -0.0553
 3382DOPG   C3B62447  13.966  17.077  16.676 -0.1274  0.0347  0.1863
 3382DOPG   C4B62448  13.810  16.995  17.016  0.1087  0.0747  0.0877
 3383DOPG   GL062449   6.407  21.880  16.709 -0.1633  0.1215 -0.0577
 3383DOPG   PO462450   6.690  21.889  16.779 -0.1169  0.2223  0.0516
 3383DOPG   GL162451   6.998  21.924  16.407 -0.0643  0.1079 -0.0801
 3383DOPG   GL262452   6.998  22.232  16.385  0.0172 -0.3877 -0.0602
 3383DOPG   C1A62453   6.943  21.851  16.047  0.1116 -0.0450  0.0992
 3383DOPG   D2A62454   6.852  21.985  15.522 -0.0865  0.2122  0.0100
 3383DOPG   C3A62455   7.195  22.239  15.441 -0.2086 -0.2287  0.2966
 3383DOPG   C4A62456   7.661  22.414  15.565 -0.5640  0.1614  0.1378
 3383DOPG   C1B62457   7.396  22.329  16.472  0.1819 -0.0836 -0.2143
 3383DOPG   D2B62458   7.847  22.461  16.724  0.0994 -0.0637  0.2160
 3383DOPG   C3B62459   8.225  22.441  16.565  0.3421 -0.1383  0.2806
 3383DOPG   C4B62460   8.576  22.556  16.260 -0.0779 -0.1233  0.0711
 3384DOPG   GL062461  12.025  11.049  16.166  0.2804  0.0201 -0.1462
 3384DOPG   PO462462  11.997  10.599  16.044 -0.2769  0.1465 -0.0315
 3384DOPG   GL162463  11.830  10.535  15.677 -0.0201 -0.1387 -0.2058
 3384DOPG   GL262464  11.762  10.825  15.498  0.1048 -0.0237  0.1277
 3384DOPG   C1A62465  11.502  10.393  15.379 -0.1858 -0.2657  0.0315
 3384DOPG   D2A62466  11.375  10.167  15.001  0.0429 -0.1412 -0.1870
 3384DOPG   C3A62467  11.669   9.918  15.028  0.0435  0.2754  0.0813
 3384DOPG   C4A62468  11.783   9.474  15.202  0.0130 -0.0550 -0.1287
 3384DOPG   C1B62469  11.942  10.550  15.174 -0.1206 -0.0439  0.0844
 3384DOPG   D2B62470  11.781  10.431  14.772 -0.0292 -0.0075  0.0933
 3384DOPG   C3B62471  11.455  10.689  14.706 -0.1453 -0.1376 -0.0566
 3384DOPG   C4B62472  11.050  10.519  14.742 -0.0161  0.0357  0.4552
 3385DOPG   GL062473  20.043  16.914  14.950  0.0341  0.1722 -0.1189
 3385DOPG   PO462474  19.744  17.143  15.284  0.0822  0.1890 -0.0030
 3385DOPG   GL162475  19.840  16.715  15.448  0.1177 -0.1028 -0.1147
 3385DOPG   GL262476  19.553  16.717  15.559  0.0590 -0.0393  0.0308
 3385DOPG   C1A62477  20.193  16.427  15.627  0.1167 -0.3336 -0.1813
 3385DOPG   D2A62478  20.316  16.013  15.602 -0.0556 -0.1090 -0.0964
 3385DOPG   C3A62479  19.887  15.747  15.797  0.2025  0.2084 -0.1849
 3385DOPG   C4A62480  19.769  15.320  15.654  0.0157  0.0985 -0.0921
 3385DOPG   C1B62481  19.725  16.455  15.936 -0.1979  0.3975  0.0845
 3385DOPG   D2B62482  19.765  16.054  16.181 -0.0998 -0.4065  0.0215
 3385DOPG   C3B62483  20.057  15.837  16.542 -0.3471 -0.0067 -0.3189
 3385DOPG   C4B62484  20.292  15.443  16.642  0.1122  0.0031  0.2011
 3386DOPG   GL062485   8.748  14.424  17.055  0.1213 -0.0423  0.2197
 3386DOPG   PO462486   8.678  14.554  16.602  0.0357 -0.1246  0.0097
 3386DOPG   GL162487   8.926  14.906  16.427 -0.2210  0.1643 -0.0590
 3386DOPG   GL262488   9.216  14.654  16.360  0.1930 -0.1508  0.2525
 3386DOPG   C1A62489   8.935  15.209  15.985  0.0870 -0.0034 -0.0899
 3386DOPG   D2A62490   8.794  15.438  15.679 -0.0679 -0.0240  0.1116
 3386DOPG   C3A62491   8.919  15.473  15.281  0.0830 -0.3248 -0.1744
 3386DOPG   C4A62492   9.276  15.261  15.158  0.2282  0.0582  0.0871
 3386DOPG   C1B62493   9.378  15.067  16.314 -0.1446  0.1169  0.2041
 3386DOPG   D2B62494   9.027  15.418  16.499  0.0553 -0.1527  0.0972
 3386DOPG   C3B62495   8.662  15.637  16.127  0.0326  0.1150 -0.1863
 3386DOPG   C4B62496   8.377  15.907  15.901  0.0227  0.0143  0.0339
 3387DOPG   GL062497  19.608  18.450  15.407  0.0082 -0.2292 -0.1329
 3387DOPG   PO462498  19.497  18.714  14.956 -0.3805  0.1250  0.1778
 3387DOPG   GL162499  19.540  19.023  14.829 -0.0006 -0.0051 -0.0302
 3387DOPG   GL262500  19.701  18.867  14.511 -0.0206  0.3992 -0.2873
 3387DOPG   C1A62501  19.517  19.408  14.563  0.1505  0.1286  0.1232
 3387DOPG   D2A62502  19.769  19.678  14.210  0.1458  0.2265  0.1174
 3387DOPG   C3A62503  20.134  19.517  13.859  0.2381  0.0048 -0.0985
 3387DOPG   C4A62504  20.570  19.578  13.605 -0.2315 -0.1127 -0.0574
 3387DOPG   C1B62505  19.714  18.545  14.168  0.5023  0.1811  0.4143
 3387DOPG   D2B62506  19.404  18.411  13.838  0.0991  0.0081 -0.0090
 3387DOPG   C3B62507  19.339  18.799  13.540 -0.3708 -0.1393  0.1755
 3387DOPG   C4B62508  19.733  18.851  13.331 -0.1332  0.3047  0.1537
 3388DOPG   GL062509  10.915  15.501  18.943 -0.1075 -0.1165 -0.1444
 3388DOPG   PO462510  11.249  15.500  18.661 -0.0425 -0.2286  0.1378
 3388DOPG   GL162511  11.582  15.395  18.402  0.0141 -0.3709 -0.1866
 3388DOPG   GL262512  11.427  15.507  18.110 -0.0442 -0.0393  0.0832
 3388DOPG   C1A62513  11.895  15.559  18.226  0.1339  0.1881 -0.0100
 3388DOPG   D2A62514  12.310  15.476  18.247  0.1327 -0.3867  0.0682
 3388DOPG   C3A62515  12.512  15.477  17.844 -0.1724  0.0118 -0.0718
 3388DOPG   C4A62516  12.966  15.584  17.841 -0.3602  0.3210 -0.0550
 3388DOPG   C1B62517  11.437  15.571  17.743 -0.0977 -0.1280 -0.1440
 3388DOPG   D2B62518  11.469  15.869  17.438 -0.2181  0.0435 -0.2463
 3388DOPG   C3B62519  11.117  16.059  17.192  0.0968  0.2532 -0.0239
 3388DOPG   C4B62520  10.831  16.338  17.032 -0.1802  0.0991  0.2913
 3389DOPG   GL062521  10.052  10.975  17.107 -0.0090  0.0038  0.1152
 3389DOPG   PO462522   9.694  10.964  16.970  0.1137  0.0215 -0.1963
 3389DOPG   GL162523   9.791  10.580  17.203  0.0557 -0.2984 -0.0693
 3389DOPG   GL262524  10.013  10.283  17.065  0.0147  0.1494  0.1466
 3389DOPG   C1A62525   9.582  10.262  17.363  0.1176 -0.3670  0.0555
 3389DOPG   D2A62526   9.463   9.846  17.291 -0.0695 -0.2428 -0.0355
 3389DOPG   C3A62527   9.101   9.579  17.297 -0.4006  0.2909 -0.0064
 3389DOPG   C4A62528   8.846   9.296  16.937 -0.0627 -0.0890 -0.1073
 3389DOPG   C1B62529  10.114   9.906  16.904 -0.0715  0.1880  0.0473
 3389DOPG   D2B62530   9.810   9.632  16.606 -0.0412  0.1031  0.1152
 3389DOPG   C3B62531  10.072   9.234  16.376  0.1140  0.1988  0.3155
 3389DOPG   C4B62532  10.517   9.003  16.286  0.3090 -0.0692 -0.1843
 3390DOPG   GL062533  18.935  19.574  15.447  0.2423 -0.0237  0.2351
 3390DOPG   PO462534  19.057  19.279  15.779  0.0094  0.1541 -0.0371
 3390DOPG   GL162535  18.661  19.366  15.881  0.2113 -0.2700 -0.0748
 3390DOPG   GL262536  18.467  19.217  15.607  0.2608  0.0711 -0.0585
 3390DOPG   C1A62537  18.327  19.609  15.788 -0.2666 -0.1195 -0.1219
 3390DOPG   D2A62538  18.191  20.032  15.680  0.3249 -0.0040  0.2378
 3390DOPG   C3A62539  18.038  20.196  15.285 -0.0325  0.0147 -0.0550
 3390DOPG   C4A62540  17.951  20.241  14.970 -0.0046  0.0583  0.0038
 3390DOPG   C1B62541  18.096  19.196  15.841  0.0495  0.2801 -0.3319
 3390DOPG   D2B62542  17.766  19.012  15.596  0.0836  0.2927  0.2229
 3390DOPG   C3B62543  17.440  19.073  15.846  0.3184 -0.2871 -0.0270
 3390DOPG   C4B62544  17.075  19.047  16.178  0.1949 -0.0635 -0.2953
 3391DOPG   GL062545  17.136  13.264  16.018  0.1152  0.2574 -0.0694
 3391DOPG   PO462546  17.433  13.544  15.969  0.2143 -0.0873  0.0851
 3391DOPG   GL162547  17.589  13.510  15.481 -0.0713 -0.0395 -0.1678
 3391DOPG   GL262548  17.853  13.751  15.310 -0.0242 -0.0667  0.1875
 3391DOPG   C1A62549  17.600  13.225  15.276 -0.1029  0.0123  0.0206
 3391DOPG   D2A62550  17.644  12.811  15.325  0.1018  0.0821 -0.0529
 3391DOPG   C3A62551  17.634  12.466  15.133  0.0924  0.0253  0.1932
 3391DOPG   C4A62552  18.000  12.597  14.941 -0.0887  0.0684 -0.2021
 3391DOPG   C1B62553  18.092  13.493  15.162  0.0954  0.1748 -0.0181
 3391DOPG   D2B62554  18.216  13.127  14.882 -0.1487  0.0309  0.0094
 3391DOPG   C3B62555  18.477  12.806  14.931 -0.1392 -0.0835  0.0748
 3391DOPG   C4B62556  18.377  12.522  14.589  0.0231  0.1113  0.2545
 3392DOPG   GL062557  12.281  10.811  16.528 -0.1087 -0.0127 -0.1009
 3392DOPG   PO462558  12.614  11.081  16.584 -0.2942 -0.0524  0.3168
 3392DOPG   GL162559  12.546  10.932  16.117  0.0125 -0.1388 -0.1057
 3392DOPG   GL262560  12.781  10.851  16.024 -0.0055 -0.4810 -0.0238
 3392DOPG   C1A62561  12.433  10.741  15.666  0.2647  0.0538  0.3312
 3392DOPG   D2A62562  12.648  10.554  15.271  0.0930 -0.1234  0.0033
 3392DOPG   C3A62563  12.741  10.374  14.822  0.2826  0.1014 -0.1141
 3392DOPG   C4A62564  12.496  10.047  14.631 -0.0153 -0.2612 -0.2903
 3392DOPG   C1B62565  13.024  10.466  15.974 -0.2208  0.2188  0.0356
 3392DOPG   D2B62566  13.122  10.086  16.104 -0.0153  0.0175 -0.1852
 3392DOPG   C3B62567  13.466   9.773  15.940  0.0296  0.1986  0.1060
 3392DOPG   C4B62568  13.312   9.454  15.724 -0.2238 -0.1256 -0.1549
 3393DOPG   GL062569  10.565  15.194  18.702  0.0590 -0.2454  0.0225
 3393DOPG   PO462570  10.668  14.957  18.300 -0.0806  0.0082 -0.1989
 3393DOPG   GL162571  10.964  15.023  18.043 -0.0262 -0.1014  0.2360
 3393DOPG   GL262572  11.223  15.085  18.187  0.2690  0.0407 -0.0675
 3393DOPG   C1A62573  11.076  14.830  17.551  0.2430  0.1475  0.0771
 3393DOPG   D2A62574  11.126  14.347  17.440  0.0147 -0.2268  0.2622
 3393DOPG   C3A62575  11.501  14.086  17.625  0.0381  0.0200  0.1124
 3393DOPG   C4A62576  11.591  14.002  17.952  0.1089  0.1087  0.0722
 3393DOPG   C1B62577  11.464  15.016  17.907 -0.0817 -0.0460 -0.2466
 3393DOPG   D2B62578  11.796  15.072  17.639  0.0869 -0.0401  0.2260
 3393DOPG   C3B62579  11.873  15.375  17.763  0.0647 -0.1511  0.2725
 3393DOPG   C4B62580  12.116  15.782  17.682 -0.2792  0.0309  0.0707
 3394DOPG   GL062581  17.004  21.247  18.036 -0.0570  0.2133 -0.0151
 3394DOPG   PO462582  16.961  21.134  17.549 -0.1850  0.2382 -0.2100
 3394DOPG   GL162583  17.311  21.258  17.285  0.0554 -0.2935 -0.0307
 3394DOPG   GL262584  17.475  21.092  17.073  0.0618  0.2694 -0.1054
 3394DOPG   C1A62585  17.164  21.758  17.082 -0.1150 -0.0873 -0.1184
 3394DOPG   D2A62586  17.276  22.145  17.042  0.2276  0.3108 -0.0844
 3394DOPG   C3A62587  17.631  22.333  17.178 -0.0076  0.2702 -0.1413
 3394DOPG   C4A62588  17.810  22.737  17.298  0.1796  0.0165  0.0721
 3394DOPG   C1B62589  17.333  21.472  16.687 -0.3035  0.2626  0.2697
 3394DOPG   D2B62590  17.493  21.917  16.677  0.0998 -0.1824 -0.0345
 3394DOPG   C3B62591  17.686  21.813  16.256 -0.1357 -0.1870  0.0856
 3394DOPG   C4B62592  17.813  21.964  15.806  0.2939  0.0946  0.2001
 3395DOPG   GL062593   6.118  22.577  16.387  0.1060 -0.0837 -0.2727
 3395DOPG   PO462594   6.363  22.777  16.687 -0.2317  0.0214 -0.0143
 3395DOPG   GL162595   6.780  22.899  16.911 -0.1225  0.2601  0.0164
 3395DOPG   GL262596   7.086  22.614  16.806 -0.1274 -0.0250 -0.1809
 3395DOPG   C1A62597   7.099  23.167  16.829 -0.2014  0.0296  0.2060
 3395DOPG   D2A62598   7.229  23.289  16.433 -0.2824  0.0234 -0.0069
 3395DOPG   C3A62599   7.322  23.672  16.249 -0.1574 -0.2306 -0.3866
 3395DOPG   C4A62600   7.549  24.171  16.189  0.1108 -0.0607 -0.0808
 3395DOPG   C1B62601   7.500  22.822  16.792 -0.1539  0.2306  0.2342
 3395DOPG   D2B62602   7.944  23.023  16.688 -0.0102 -0.0237 -0.0857
 3395DOPG   C3B62603   8.222  22.849  16.944 -0.0192 -0.1929  0.1469
 3395DOPG   C4B62604   8.542  22.881  16.708  0.1182  0.0592 -0.1603
 3396DOPG   GL062605  16.171  12.236  16.184  0.0173 -0.4438 -0.2294
 3396DOPG   PO462606  16.128  11.870  16.366  0.0291  0.2278  0.4013
 3396DOPG   GL162607  16.173  11.815  15.937 -0.0427 -0.0014  0.1763
 3396DOPG   GL262608  15.890  11.630  15.864  0.0635  0.2278  0.2234
 3396DOPG   C1A62609  16.179  11.852  15.497  0.5475  0.0870 -0.0123
 3396DOPG   D2A62610  16.179  11.587  15.133  0.0029 -0.0369  0.5095
 3396DOPG   C3A62611  16.259  11.625  14.647 -0.3489  0.1747 -0.0028
 3396DOPG   C4A62612  15.983  11.573  14.319  0.1258  0.0819 -0.0895
 3396DOPG   C1B62613  15.833  11.381  15.481  0.0004  0.2456  0.1498
 3396DOPG   D2B62614  15.818  11.121  15.052 -0.0537  0.3270  0.2374
 3396DOPG   C3B62615  15.549  10.845  15.098  0.0757 -0.1358  0.0663
 3396DOPG   C4B62616  15.195  10.610  14.950 -0.0498  0.0199  0.1287
 3397DOPG   GL062617  13.104  14.029  15.457  0.0042  0.2691 -0.1367
 3397DOPG   PO462618  13.024  14.058  15.897  0.2341  0.2892  0.0712
 3397DOPG   GL162619  13.045  14.229  16.313 -0.0723  0.0418  0.0130
 3397DOPG   GL262620  13.298  14.160  16.463  0.1395  0.1607 -0.1795
 3397DOPG   C1A62621  12.900  14.018  16.690 -0.1412 -0.2753 -0.5371
 3397DOPG   D2A62622  12.693  14.025  17.147 -0.0779  0.0408 -0.1561
 3397DOPG   C3A62623  12.194  14.066  17.119  0.0384 -0.0249 -0.1636
 3397DOPG   C4A62624  11.859  13.914  17.254  0.0333  0.1750  0.0999
 3397DOPG   C1B62625  13.442  14.482  16.545  0.2173  0.0321  0.0852
 3397DOPG   D2B62626  13.747  14.580  16.733 -0.0443 -0.2133 -0.0272
 3397DOPG   C3B62627  13.671  15.045  16.979  0.0646  0.3686  0.0858
 3397DOPG   C4B62628  13.827  15.453  16.779  0.3490  0.2375  0.2350
 3398DOPG   GL062629   9.307  19.029  17.311 -0.0172  0.2199  0.3333
 3398DOPG   PO462630   9.704  19.210  17.361 -0.0290  0.1265  0.0163
 3398DOPG   GL162631   9.720  19.217  16.976  0.0891 -0.0602  0.0953
 3398DOPG   GL262632   9.438  19.146  16.768 -0.3079 -0.0267  0.1554
 3398DOPG   C1A62633   9.808  19.386  16.514  0.1904 -0.0397  0.1580
 3398DOPG   D2A62634   9.852  19.301  16.031  0.2552 -0.0539 -0.3437
 3398DOPG   C3A62635   9.877  19.153  15.736 -0.4661  0.0120  0.2586
 3398DOPG   C4A62636   9.844  18.976  15.538 -0.0699 -0.0170 -0.1423
 3398DOPG   C1B62637   9.347  18.993  16.319  0.0713 -0.3295 -0.0831
 3398DOPG   D2B62638   9.395  19.020  15.938 -0.4753  0.0855 -0.1572
 3398DOPG   C3B62639   9.365  19.060  15.533 -0.0649 -0.5210  0.1139
 3398DOPG   C4B62640   9.582  19.275  15.219 -0.0685 -0.0141  0.1272
 3399DOPG   GL062641   8.074  20.692  16.680  0.1707 -0.1506 -0.2473
 3399DOPG   PO462642   8.079  20.981  16.476  0.3627  0.1980  0.0751
 3399DOPG   GL162643   7.985  21.006  16.013 -0.0475  0.1097 -0.0902
 3399DOPG   GL262644   8.172  21.303  16.049 -0.0788 -0.0604  0.0059
 3399DOPG   C1A62645   7.924  21.144  15.590 -0.3178  0.0626  0.0979
 3399DOPG   D2A62646   7.942  21.437  15.251  0.0680 -0.0337  0.1450
 3399DOPG   C3A62647   7.505  21.480  15.058  0.2085  0.1171 -0.1230
 3399DOPG   C4A62648   7.071  21.535  14.760 -0.0830 -0.0158  0.2108
 3399DOPG   C1B62649   8.381  21.526  15.702  0.2385  0.0503 -0.0121
 3399DOPG   D2B62650   8.815  21.498  15.479 -0.0344  0.1537 -0.1330
 3399DOPG   C3B62651   8.891  21.800  15.066  0.0452  0.2322  0.0531
 3399DOPG   C4B62652   9.268  22.051  15.042  0.2071  0.0562 -0.1200
 3400DOPG   GL062653   9.952  14.044  16.971 -0.0760 -0.0167  0.1877
 3400DOPG   PO462654   9.532  14.172  16.892  0.4300  0.0182  0.0552
 3400DOPG   GL162655   9.612  14.482  16.662 -0.0218  0.1449  0.2052
 3400DOPG   GL262656   9.842  14.220  16.506  0.4441  0.1044 -0.0357
 3400DOPG   C1A62657   9.797  14.777  16.287 -0.0813 -0.0985  0.1758
 3400DOPG   D2A62658   9.911  14.788  15.909  0.3477 -0.1865  0.2039
 3400DOPG   C3A62659  10.149  14.529  15.590  0.3135  0.3755 -0.0037
 3400DOPG   C4A62660  10.502  14.400  15.483  0.1526 -0.2838 -0.0746
 3400DOPG   C1B62661  10.071  14.388  16.164  0.4606 -0.0063  0.0734
 3400DOPG   D2B62662  10.262  14.737  16.222 -0.1100  0.0432 -0.2661
 3400DOPG   C3B62663  10.436  14.805  15.882  0.1164  0.2254  0.4996
 3400DOPG   C4B62664  10.473  15.223  15.609  0.1283  0.0778  0.0528
 3401DOPG   GL062665  18.305  14.426  17.354 -0.0689  0.0071  0.0584
 3401DOPG   PO462666  18.373  14.350  16.942  0.0749  0.3780  0.2845
 3401DOPG   GL162667  18.844  14.310  16.828  0.3284 -0.2735 -0.2438
 3401DOPG   GL262668  19.004  14.050  16.825  0.1647 -0.2427 -0.1119
 3401DOPG   C1A62669  19.121  14.432  16.557 -0.4088  0.1131 -0.0585
 3401DOPG   D2A62670  19.512  14.150  16.386  0.1180  0.1699  0.2359
 3401DOPG   C3A62671  19.651  14.192  15.957 -0.2903  0.1286 -0.2571
 3401DOPG   C4A62672  19.821  14.125  15.605 -0.1793 -0.0276 -0.1755
 3401DOPG   C1B62673  19.191  13.612  16.678 -0.1822 -0.0908 -0.0943
 3401DOPG   D2B62674  19.483  13.321  16.474 -0.0796 -0.2402 -0.2096
 3401DOPG   C3B62675  19.668  13.041  16.595  0.0711  0.0494 -0.2586
 3401DOPG   C4B62676  19.693  12.586  16.603  0.1026 -0.1691 -0.2489
 3402DOPG   GL062677  13.611  16.035  14.414 -0.4197 -0.0750 -0.1643
 3402DOPG   PO462678  13.928  15.816  14.194 -0.2735 -0.1237 -0.0699
 3402DOPG   GL162679  13.940  15.777  13.735  0.1200 -0.0432  0.3925
 3402DOPG   GL262680  13.954  15.466  13.502  0.1476 -0.1299  0.0821
 3402DOPG   C1A62681  14.122  15.883  13.314 -0.2094  0.4549 -0.3476
 3402DOPG   D2A62682  14.466  15.869  13.088 -0.5087  0.3319  0.0689
 3402DOPG   C3A62683  14.605  15.482  12.909 -0.3876  0.2913  0.1285
 3402DOPG   C4A62684  14.650  15.057  12.585  0.1195  0.2845  0.1314
 3402DOPG   C1B62685  14.275  15.374  13.283  0.3785 -0.1447  0.0494
 3402DOPG   D2B62686  14.636  15.131  13.321  0.1688  0.0017 -0.3624
 3402DOPG   C3B62687  14.711  14.829  13.057  0.1996  0.2031 -0.0706
 3402DOPG   C4B62688  14.669  14.400  12.942 -0.1136  0.0363  0.0718
 3403DOPG   GL062689  13.085  17.744  14.229  0.2820  0.0105  0.1455
 3403DOPG   PO462690  13.130  17.721  13.883  0.1041  0.1064 -0.1528
 3403DOPG   GL162691  12.635  17.854  13.948 -0.2389  0.0344  0.1422
 3403DOPG   GL262692  12.630  18.082  14.150  0.0734  0.0584  0.0776
 3403DOPG   C1A62693  12.326  18.086  13.743 -0.0995  0.4684 -0.0398
 3403DOPG   D2A62694  11.992  18.053  13.473  0.0057  0.0071  0.1106
 3403DOPG   C3A62695  11.962  18.120  13.085 -0.0767  0.1354  0.4457
 3403DOPG   C4A62696  11.985  18.111  12.584  0.1723 -0.0067 -0.0039
 3403DOPG   C1B62697  12.748  18.301  13.744 -0.0095 -0.1615 -0.0195
 3403DOPG   D2B62698  12.655  18.696  13.459 -0.0559  0.0522  0.0902
 3403DOPG   C3B62699  12.619  19.048  13.802  0.2997 -0.1228 -0.1764
 3403DOPG   C4B62700  12.791  19.507  13.645  0.0889 -0.2658 -0.4353
 3404DOPG   GL062701  22.810  16.767  17.558 -0.0300  0.1498 -0.1274
 3404DOPG   PO462702  22.669  16.524  17.169 -0.1118  0.3131  0.2867
 3404DOPG   GL162703  22.665  16.293  16.799  0.0601  0.1635  0.0651
 3404DOPG   GL262704  22.984  16.281  16.873 -0.0480  0.0449  0.0125
 3404DOPG   C1A62705  22.851  16.079  16.351  0.1977  0.0761  0.0404
 3404DOPG   D2A62706  22.852  15.881  16.004 -0.0892  0.0927  0.1243
 3404DOPG   C3A62707  22.970  16.091  15.575  0.2235  0.1246 -0.1077
 3404DOPG   C4A62708  23.203  16.039  15.214  0.0287  0.3387  0.1844
 3404DOPG   C1B62709  23.442  16.437  16.807 -0.0519 -0.1165 -0.2359
 3404DOPG   D2B62710  23.862  16.455  16.635  0.1190  0.1330 -0.2240
 3404DOPG   C3B62711  23.946  16.228  16.257  0.1553  0.1829  0.1375
 3404DOPG   C4B62712  23.915  15.915  16.010 -0.0574  0.2952 -0.0709
 3405DOPG   GL062713  18.914  17.000  14.296 -0.1229  0.1437 -0.0179
 3405DOPG   PO462714  18.855  17.403  14.259 -0.1169 -0.0009  0.3042
 3405DOPG   GL162715  18.972  17.386  13.953  0.4987  0.0814 -0.1331
 3405DOPG   GL262716  19.151  17.631  13.857  0.3010 -0.2391  0.1310
 3405DOPG   C1A62717  19.226  16.946  13.853  0.3597  0.2096  0.3023
 3405DOPG   D2A62718  19.216  16.563  13.617  0.1118 -0.0899  0.1321
 3405DOPG   C3A62719  19.562  16.657  13.279  0.0982  0.3082  0.0110
 3405DOPG   C4A62720  19.717  16.727  12.873 -0.1135  0.0584 -0.1680
 3405DOPG   C1B62721  19.399  17.471  13.499 -0.1731 -0.0079  0.1173
 3405DOPG   D2B62722  19.691  17.160  13.255  0.0522  0.2467 -0.1246
 3405DOPG   C3B62723  20.040  17.196  13.088  0.3147  0.1050  0.0229
 3405DOPG   C4B62724  20.337  17.519  13.073 -0.2862  0.1868  0.2132
 3406DOPG   GL062725  15.856  12.633  15.884  0.4127 -0.2243 -0.0687
 3406DOPG   PO462726  15.616  12.726  15.492  0.3484 -0.0959 -0.1860
 3406DOPG   GL162727  15.604  12.378  15.315  0.2085  0.0723 -0.3124
 3406DOPG   GL262728  15.306  12.197  15.385  0.1269 -0.0972  0.3117
 3406DOPG   C1A62729  15.524  12.252  14.830  0.4233 -0.0675 -0.0426
 3406DOPG   D2A62730  15.411  12.183  14.466  0.1283 -0.1178  0.3770
 3406DOPG   C3A62731  15.589  12.480  14.056 -0.0858 -0.1093  0.1416
 3406DOPG   C4A62732  16.060  12.535  14.117  0.2086  0.2295 -0.0331
 3406DOPG   C1B62733  15.252  11.889  15.028  0.1211 -0.1979  0.3280
 3406DOPG   D2B62734  14.975  11.786  14.720 -0.1437  0.0427  0.1789
 3406DOPG   C3B62735  14.994  11.819  14.257 -0.1245  0.0581  0.2621
 3406DOPG   C4B62736  15.244  12.182  14.010  0.0603 -0.2440 -0.0576
 3407DOPG   GL062737  12.265  16.262  14.708  0.1535  0.2428  0.1702
 3407DOPG   PO462738  12.233  16.504  14.404 -0.1698  0.1308 -0.2484
 3407DOPG   GL162739  12.130  16.532  13.993  0.0574  0.2542 -0.0355
 3407DOPG   GL262740  11.727  16.507  13.961  0.1279 -0.1819 -0.0862
 3407DOPG   C1A62741  12.100  16.551  13.593 -0.0928  0.2343 -0.3807
 3407DOPG   D2A62742  12.075  16.844  13.271 -0.2935  0.2375 -0.0130
 3407DOPG   C3A62743  12.045  16.671  12.922  0.0492 -0.4708  0.3179
 3407DOPG   C4A62744  11.873  16.451  12.501 -0.2022 -0.0670 -0.1716
 3407DOPG   C1B62745  11.381  16.480  13.766  0.1670 -0.0848  0.1535
 3407DOPG   D2B62746  11.174  16.770  13.478 -0.2348  0.0651  0.2095
 3407DOPG   C3B62747  10.818  16.904  13.724 -0.3106  0.0651 -0.1333
 3407DOPG   C4B62748  10.411  16.716  13.696 -0.4276  0.1173  0.3105
 3408DOPG   GL062749   8.768  25.353  15.655 -0.2920 -0.2618  0.1477
 3408DOPG   PO462750   9.151  25.323  15.469 -0.2527 -0.1626  0.1550
 3408DOPG   GL162751   9.130  24.918  15.594  0.0382  0.1572  0.0401
 3408DOPG   GL262752   9.366  24.753  15.441 -0.1863 -0.0013  0.0832
 3408DOPG   C1A62753   9.108  24.596  15.942  0.0592 -0.0460 -0.3534
 3408DOPG   D2A62754   9.246  24.147  15.951  0.0545 -0.0095  0.0256
 3408DOPG   C3A62755   9.367  23.759  15.864 -0.2004  0.3955  0.0875
 3408DOPG   C4A62756   9.619  23.532  16.083  0.2641 -0.1193 -0.1006
 3408DOPG   C1B62757   9.377  24.522  15.076 -0.1792  0.3690  0.0017
 3408DOPG   D2B62758   9.556  24.200  14.890 -0.0463 -0.2014  0.0134
 3408DOPG   C3B62759   9.909  23.965  15.113  0.0981 -0.0155 -0.1046
 3408DOPG   C4B62760  10.019  23.526  14.993 -0.1793  0.0037 -0.5078
 3409DOPG   GL062761  22.666  18.824  17.273  0.0148 -0.2337 -0.1995
 3409DOPG   PO462762  22.785  18.678  16.883  0.1081 -0.0998 -0.1562
 3409DOPG   GL162763  22.772  18.734  16.335 -0.0190  0.0130  0.0904
 3409DOPG   GL262764  22.443  18.885  16.095 -0.2377 -0.0201 -0.0125
 3409DOPG   C1A62765  22.592  18.398  16.091 -0.1777 -0.1638 -0.1463
 3409DOPG   D2A62766  22.553  18.253  15.706 -0.0318 -0.0335 -0.3648
 3409DOPG   C3A62767  22.167  18.153  15.577 -0.2015 -0.1920  0.0614
 3409DOPG   C4A62768  22.056  17.915  15.224  0.0928 -0.0015 -0.0256
 3409DOPG   C1B62769  22.614  18.750  15.683  0.1703 -0.0053 -0.0211
 3409DOPG   D2B62770  22.665  18.700  15.254  0.1910  0.0001  0.2464
 3409DOPG   C3B62771  22.380  18.411  15.121 -0.4787 -0.1136 -0.0363
 3409DOPG   C4B62772  21.977  18.443  14.902  0.3581  0.1276  0.0006
 3410DOPG   GL062773  17.802  14.289  16.216 -0.4587 -0.0821 -0.0043
 3410DOPG   PO462774  17.606  14.333  16.604  0.1136 -0.0178  0.3312
 3410DOPG   GL162775  17.480  14.706  16.718  0.2604  0.0504 -0.0545
 3410DOPG   GL262776  17.735  14.915  16.683  0.0307  0.2798  0.1223
 3410DOPG   C1A62777  17.108  15.074  16.922  0.2211 -0.2968  0.2547
 3410DOPG   D2A62778  16.981  15.348  17.312  0.5121 -0.0273  0.1157
 3410DOPG   C3A62779  16.624  15.379  17.480 -0.1382 -0.1160  0.2986
 3410DOPG   C4A62780  16.363  15.505  17.751 -0.2847  0.3593 -0.0231
 3410DOPG   C1B62781  17.639  15.146  17.115 -0.2068  0.0125  0.0230
 3410DOPG   D2B62782  17.510  15.247  17.443  0.1089  0.1565  0.1370
 3410DOPG   C3B62783  17.397  15.624  17.337 -0.1067 -0.0224  0.1081
 3410DOPG   C4B62784  17.019  15.827  17.487  0.1297 -0.1964  0.0125
 3411DOPG   GL062785  16.111  14.438  15.169  0.0264  0.0214  0.0428
 3411DOPG   PO462786  15.731  14.283  15.280  0.1957  0.1207  0.5521
 3411DOPG   GL162787  15.522  13.934  15.090 -0.0540 -0.3146 -0.0652
 3411DOPG   GL262788  15.543  13.542  15.072 -0.1120  0.1672 -0.2071
 3411DOPG   C1A62789  15.631  13.777  14.658  0.2351 -0.0120  0.1922
 3411DOPG   D2A62790  15.514  13.465  14.416 -0.2719 -0.1159  0.2458
 3411DOPG   C3A62791  15.428  13.546  13.929 -0.2108  0.4570  0.2291
 3411DOPG   C4A62792  15.554  13.962  13.628  0.1721 -0.2330  0.6718
 3411DOPG   C1B62793  15.819  13.303  14.792 -0.1717  0.1154 -0.1347
 3411DOPG   D2B62794  15.830  13.051  14.518 -0.1195 -0.1242 -0.0187
 3411DOPG   C3B62795  15.654  13.065  14.158 -0.0943 -0.0954 -0.1655
 3411DOPG   C4B62796  15.156  13.123  14.181  0.2635  0.2876 -0.2875
 3412DOPG   GL062797  11.666  10.806  16.579  0.0298 -0.0530 -0.1986
 3412DOPG   PO462798  11.837  10.638  16.913  0.1360 -0.2550  0.0089
 3412DOPG   GL162799  11.961  10.174  17.092 -0.3098 -0.4238  0.0652
 3412DOPG   GL262800  11.858  10.161  17.450 -0.0544 -0.1318  0.2657
 3412DOPG   C1A62801  11.913   9.787  16.844  0.2392  0.0930 -0.1480
 3412DOPG   D2A62802  12.009   9.588  16.370 -0.2374  0.0861  0.1418
 3412DOPG   C3A62803  11.839   9.630  15.964  0.4886 -0.1899  0.2585
 3412DOPG   C4A62804  12.186   9.701  15.539  0.1112  0.0806 -0.1165
 3412DOPG   C1B62805  11.995   9.809  17.397  0.1760  0.0188  0.1087
 3412DOPG   D2B62806  11.808   9.401  17.152  0.3374  0.1054  0.2022
 3412DOPG   C3B62807  11.944   9.294  16.703 -0.4386 -0.1455  0.0769
 3412DOPG   C4B62808  11.907   8.897  16.652 -0.0251 -0.2166 -0.2334
 3413DOPG   GL062809  17.019  15.736  15.789 -0.0757  0.0185 -0.2416
 3413DOPG   PO462810  17.405  15.941  15.606  0.0544 -0.3616  0.0607
 3413DOPG   GL162811  17.591  16.102  16.020  0.0844  0.0731  0.0018
 3413DOPG   GL262812  17.331  16.157  16.186  0.1948  0.0493  0.1853
 3413DOPG   C1A62813  17.825  16.156  16.319 -0.0954 -0.0302  0.1304
 3413DOPG   D2A62814  17.823  16.262  16.803 -0.1406  0.1128 -0.1007
 3413DOPG   C3A62815  17.898  15.964  17.306  0.0049 -0.0085 -0.0802
 3413DOPG   C4A62816  18.266  15.853  17.534 -0.1121 -0.1012  0.1658
 3413DOPG   C1B62817  17.134  16.300  16.532 -0.1718 -0.3063 -0.0085
 3413DOPG   D2B62818  17.201  16.454  16.912 -0.2308 -0.1080 -0.2274
 3413DOPG   C3B62819  17.186  16.915  17.085 -0.2129 -0.1020  0.0018
 3413DOPG   C4B62820  17.444  17.224  17.044  0.0824  0.4059 -0.0148
 3414DOPG   GL062821  14.804  17.079  15.218  0.0083 -0.0539 -0.2350
 3414DOPG   PO462822  14.862  17.526  15.445 -0.1225 -0.2134  0.2045
 3414DOPG   GL162823  14.888  17.701  15.931 -0.1089  0.0137  0.0716
 3414DOPG   GL262824  14.978  17.946  15.953 -0.0850 -0.0430 -0.0885
 3414DOPG   C1A62825  14.705  17.586  16.287  0.0713  0.1677 -0.1958
 3414DOPG   D2A62826  14.705  17.530  16.792 -0.0445 -0.1688  0.3491
 3414DOPG   C3A62827  14.982  17.376  16.799 -0.0404  0.0816  0.0020
 3414DOPG   C4A62828  15.478  17.221  16.826 -0.1913  0.1751 -0.0209
 3414DOPG   C1B62829  15.014  17.930  16.386  0.1951 -0.2484  0.2292
 3414DOPG   D2B62830  15.192  17.778  16.695 -0.3274 -0.1802 -0.4174
 3414DOPG   C3B62831  14.866  17.810  17.084  0.0519 -0.0848 -0.0355
 3414DOPG   C4B62832  14.494  17.639  17.261 -0.0927 -0.0702  0.2301
 3415DOPG   GL062833   8.901  16.100  17.122  0.0349  0.0097  0.1453
 3415DOPG   PO462834   8.964  16.508  17.186 -0.0233 -0.3161 -0.2357
 3415DOPG   GL162835   8.833  16.521  16.813  0.0397  0.0925 -0.0482
 3415DOPG   GL262836   9.044  16.250  16.692 -0.1906  0.2467  0.1311
 3415DOPG   C1A62837   8.557  16.520  16.425  0.1075  0.2783 -0.0397
 3415DOPG   D2A62838   8.610  16.536  15.955 -0.0548  0.2136  0.2817
 3415DOPG   C3A62839   8.243  16.708  15.657  0.1108  0.2962 -0.0880
 3415DOPG   C4A62840   8.046  17.083  15.736 -0.1199 -0.5875  0.3436
 3415DOPG   C1B62841   9.472  16.385  16.483 -0.2302 -0.2517  0.0488
 3415DOPG   D2B62842   9.652  16.250  16.080 -0.0879  0.1679  0.2252
 3415DOPG   C3B62843   9.986  16.173  16.123  0.3171 -0.2144  0.1695
 3415DOPG   C4B62844  10.401  16.112  16.189 -0.0540 -0.1696  0.0255
 3416DOPG   GL062845  13.209  17.226  15.202 -0.0503  0.0360 -0.0821
 3416DOPG   PO462846  13.183  17.497  15.588  0.2867 -0.1985  0.0470
 3416DOPG   GL162847  12.973  17.921  15.681  0.1669  0.2897 -0.0731
 3416DOPG   GL262848  12.787  18.081  15.506  0.0417 -0.2497  0.5308
 3416DOPG   C1A62849  12.726  17.990  16.056 -0.0942  0.2964 -0.1341
 3416DOPG   D2A62850  12.409  17.904  16.409  0.1207 -0.3962  0.3629
 3416DOPG   C3A62851  11.995  17.799  16.340 -0.0628  0.0561 -0.1139
 3416DOPG   C4A62852  11.821  17.745  15.871 -0.0773  0.1830 -0.0995
 3416DOPG   C1B62853  12.756  18.428  15.842 -0.0191 -0.0897  0.1910
 3416DOPG   D2B62854  12.453  18.628  15.993 -0.3684 -0.4372 -0.0577
 3416DOPG   C3B62855  12.084  18.713  15.812  0.0553  0.1450  0.2949
 3416DOPG   C4B62856  11.768  18.542  15.573 -0.3408 -0.2310  0.0720
 3417DOPG   GL062857  17.599  15.135  15.906 -0.2833 -0.0544  0.1621
 3417DOPG   PO462858  17.498  15.471  15.820  0.0843 -0.0527  0.0923
 3417DOPG   GL162859  17.940  15.497  15.931  0.0212  0.0455 -0.2607
 3417DOPG   GL262860  18.130  15.505  15.569 -0.4466  0.3447  0.0494
 3417DOPG   C1A62861  18.225  15.147  15.967  0.0507  0.0474 -0.0389
 3417DOPG   D2A62862  18.527  14.831  15.715  0.1649 -0.0559 -0.0231
 3417DOPG   C3A62863  19.038  14.916  15.704 -0.0147  0.0496  0.1816
 3417DOPG   C4A62864  19.142  15.294  15.932  0.3115 -0.0133  0.0622
 3417DOPG   C1B62865  18.622  15.354  15.828 -0.0941 -0.0731  0.1318
 3417DOPG   D2B62866  18.646  15.301  16.183  0.1738 -0.2466 -0.0355
 3417DOPG   C3B62867  18.455  15.250  16.532 -0.1773  0.0219 -0.0696
 3417DOPG   C4B62868  18.194  14.915  16.542 -0.0105  0.0815  0.1099
 3418DOPG   GL062869  15.995  13.430  16.660 -0.2020  0.0272  0.1263
 3418DOPG   PO462870  15.608  13.201  16.753  0.1976  0.2344 -0.1949
 3418DOPG   GL162871  15.510  13.661  16.765 -0.0757 -0.0199 -0.1999
 3418DOPG   GL262872  15.195  13.579  16.637  0.0836  0.2544 -0.3455
 3418DOPG   C1A62873  15.605  14.041  17.035  0.0206 -0.0335 -0.2110
 3418DOPG   D2A62874  15.597  14.454  17.175  0.3287 -0.2873 -0.1594
 3418DOPG   C3A62875  15.321  14.569  17.511  0.0771 -0.1342 -0.2097
 3418DOPG   C4A62876  15.286  15.001  17.810  0.2616 -0.1773 -0.2549
 3418DOPG   C1B62877  14.971  13.899  16.448  0.1975 -0.2319 -0.0153
 3418DOPG   D2B62878  14.541  14.072  16.554  0.1653  0.0943 -0.1604
 3418DOPG   C3B62879  14.308  14.111  17.072 -0.0378 -0.2094  0.0214
 3418DOPG   C4B62880  14.125  14.195  17.481  0.1128  0.1538  0.0202
 3419DOPG   GL062881  13.708  17.130  14.297  0.0109  0.3628  0.2187
 3419DOPG   PO462882  13.939  16.854  14.273 -0.1643 -0.1769 -0.2234
 3419DOPG   GL162883  13.992  16.838  13.889  0.0140 -0.0308  0.1264
 3419DOPG   GL262884  14.128  16.956  13.640 -0.0472  0.0901  0.1954
 3419DOPG   C1A62885  13.709  16.928  13.456 -0.0901  0.2339  0.1186
 3419DOPG   D2A62886  13.685  17.159  13.096  0.2980  0.1342 -0.3128
 3419DOPG   C3A62887  13.452  16.957  12.686 -0.3510  0.3359  0.3786
 3419DOPG   C4A62888  12.953  16.901  12.522 -0.0222 -0.2110  0.1735
 3419DOPG   C1B62889  14.107  17.395  13.382 -0.3581 -0.1237  0.3501
 3419DOPG   D2B62890  13.600  17.501  13.451 -0.1361 -0.0762 -0.3546
 3419DOPG   C3B62891  13.419  17.701  13.167 -0.1894 -0.2920  0.1220
 3419DOPG   C4B62892  13.129  17.656  12.752  0.2590 -0.2360 -0.7308
 3420DOPG   GL062893   5.094  20.163  15.359  0.2729 -0.3555 -0.3571
 3420DOPG   PO462894   4.642  19.800  15.404 -0.0122 -0.1078  0.0778
 3420DOPG   GL162895   4.736  19.450  15.149 -0.0459  0.0219  0.1091
 3420DOPG   GL262896   5.054  19.485  15.311  0.0002 -0.1887  0.0148
 3420DOPG   C1A62897   4.779  19.058  15.105 -0.0241  0.1714 -0.1746
 3420DOPG   D2A62898   4.771  18.718  15.451 -0.1639 -0.1043 -0.1560
 3420DOPG   C3A62899   4.873  18.687  15.811 -0.1485  0.2612  0.2417
 3420DOPG   C4A62900   4.762  18.584  16.193  0.0904  0.2577  0.1163
 3420DOPG   C1B62901   5.504  19.466  15.489  0.3560 -0.0605 -0.1253
 3420DOPG   D2B62902   5.770  19.107  15.541 -0.0929 -0.2199 -0.0096
 3420DOPG   C3B62903   6.009  18.849  15.169  0.0261 -0.3892 -0.2729
 3420DOPG   C4B62904   6.261  18.943  14.812  0.0716  0.3987  0.2138
 3421DOPG   GL062905  12.314  13.169  14.810  0.3765 -0.1460  0.0796
 3421DOPG   PO462906  12.620  12.911  14.673  0.0140  0.0699 -0.1792
 3421DOPG   GL162907  12.833  12.991  14.284 -0.0501 -0.1133  0.1048
 3421DOPG   GL262908  12.995  12.729  14.117 -0.1644 -0.1819  0.1024
 3421DOPG   C1A62909  12.684  13.113  13.987 -0.0940  0.4023  0.3423
 3421DOPG   D2A62910  12.369  13.188  13.683 -0.3975 -0.1297  0.1502
 3421DOPG   C3A62911  12.076  12.729  13.640 -0.0687 -0.0785 -0.2111
 3421DOPG   C4A62912  11.846  12.329  13.741 -0.2664  0.0215  0.0888
 3421DOPG   C1B62913  12.885  12.520  13.765 -0.0041  0.0258 -0.1186
 3421DOPG   D2B62914  12.741  12.702  13.468  0.0171  0.0146  0.0278
 3421DOPG   C3B62915  12.818  12.807  13.177  0.0136 -0.0966  0.1943
 3421DOPG   C4B62916  12.538  12.939  12.815 -0.1214  0.1552 -0.2032
 3422DOPG   GL062917  18.119  20.389  17.360 -0.2343  0.0155 -0.1099
 3422DOPG   PO462918  18.362  20.221  17.092 -0.3405  0.1594 -0.2129
 3422DOPG   GL162919  18.097  19.891  17.168  0.1827 -0.2498  0.2276
 3422DOPG   GL262920  17.938  19.829  16.881 -0.0132 -0.2125 -0.2038
 3422DOPG   C1A62921  17.980  19.417  17.222 -0.2117  0.0271  0.4551
 3422DOPG   D2A62922  18.029  19.006  17.181  0.3815  0.2845 -0.1518
 3422DOPG   C3A62923  17.783  18.704  17.290 -0.1546  0.0770  0.3533
 3422DOPG   C4A62924  17.353  18.661  17.063 -0.0000  0.1298 -0.1739
 3422DOPG   C1B62925  17.745  19.516  16.694  0.1113  0.0568 -0.3970
 3422DOPG   D2B62926  17.302  19.527  16.797  0.1784 -0.1125  0.2317
 3422DOPG   C3B62927  17.187  19.065  16.650  0.0997 -0.0324 -0.1819
 3422DOPG   C4B62928  17.241  18.676  16.550  0.1228 -0.1603  0.0753
 3423DOPG   GL062929  18.561  16.832  14.984  0.2805 -0.1513 -0.1695
 3423DOPG   PO462930  18.752  16.815  14.730 -0.1123 -0.1897  0.0780
 3423DOPG   GL162931  18.833  16.454  14.536  0.1513 -0.3304  0.1637
 3423DOPG   GL262932  18.549  16.263  14.213  0.0472  0.0059 -0.1452
 3423DOPG   C1A62933  19.135  16.563  14.126 -0.2196 -0.1419 -0.0146
 3423DOPG   D2A62934  19.553  16.562  14.096  0.0415 -0.1589 -0.1011
 3423DOPG   C3A62935  19.774  16.748  13.779  0.3399 -0.1522 -0.0944
 3423DOPG   C4A62936  20.124  16.825  13.399  0.1481  0.0119  0.0374
 3423DOPG   C1B62937  18.901  16.076  14.075 -0.3606 -0.1781  0.5551
 3423DOPG   D2B62938  19.270  15.906  13.830  0.0227  0.0778  0.1359
 3423DOPG   C3B62939  19.296  15.692  14.134 -0.2759  0.1817  0.0123
 3423DOPG   C4B62940  19.473  15.621  14.562 -0.3048 -0.2888 -0.1627
 3424DOPG   GL062941  14.939  16.745  14.897  0.0959 -0.0265  0.0010
 3424DOPG   PO462942  15.153  16.731  15.435  0.1178 -0.0545 -0.0380
 3424DOPG   GL162943  15.159  17.066  15.624  0.2860  0.1021 -0.0384
 3424DOPG   GL262944  14.866  17.071  15.740 -0.0869 -0.0713  0.0321
 3424DOPG   C1A62945  15.237  17.303  15.993 -0.3510  0.3836  0.0298
 3424DOPG   D2A62946  15.323  17.366  16.411 -0.0414  0.0695  0.3058
 3424DOPG   C3A62947  15.667  17.623  16.638  0.2057  0.1170  0.1201
 3424DOPG   C4A62948  16.044  17.589  16.932  0.0066  0.1289  0.0148
 3424DOPG   C1B62949  14.904  17.112  16.271 -0.1265  0.0080 -0.1585
 3424DOPG   D2B62950  15.142  16.941  16.550  0.0630 -0.0962 -0.1624
 3424DOPG   C3B62951  15.066  16.573  16.724  0.1021  0.2175 -0.2017
 3424DOPG   C4B62952  15.290  16.277  16.949 -0.2649  0.1663  0.0897
 3425DOPG   GL062953  14.071  20.119  17.042 -0.3890 -0.0271 -0.4605
 3425DOPG   PO462954  13.890  20.257  16.654  0.1321  0.3393 -0.0878
 3425DOPG   GL162955  13.886  19.793  16.500  0.1074 -0.1632 -0.1033
 3425DOPG   GL262956  13.602  19.655  16.437  0.0710  0.0385 -0.0133
 3425DOPG   C1A62957  14.026  19.296  16.441 -0.5024 -0.1864  0.1724
 3425DOPG   D2A62958  14.184  18.889  16.540  0.0695  0.0210 -0.1275
 3425DOPG   C3A62959  13.873  18.778  16.919 -0.0927 -0.0695 -0.1076
 3425DOPG   C4A62960  13.816  19.105  17.128  0.0087  0.3741  0.1245
 3425DOPG   C1B62961  13.546  19.313  16.604 -0.0709 -0.3190 -0.1154
 3425DOPG   D2B62962  13.446  18.960  16.614 -0.2322  0.1740 -0.1304
 3425DOPG   C3B62963  12.996  18.968  16.867  0.0565  0.1268 -0.5461
 3425DOPG   C4B62964  12.622  19.095  16.879 -0.0047  0.0172 -0.0500
 3426DOPG   GL062965  12.418  13.626  15.115 -0.0129  0.2705  0.3177
 3426DOPG   PO462966  12.209  13.685  14.773  0.2164 -0.3831 -0.0466
 3426DOPG   GL162967  12.228  13.637  14.402 -0.1942  0.5092 -0.0608
 3426DOPG   GL262968  12.383  13.348  14.335  0.0145  0.0076 -0.0115
 3426DOPG   C1A62969  12.139  13.652  13.930 -0.0197 -0.0768 -0.2407
 3426DOPG   D2A62970  12.209  13.613  13.454  0.0366 -0.1590 -0.2233
 3426DOPG   C3A62971  12.225  13.157  13.164  0.3235  0.0453  0.2247
 3426DOPG   C4A62972  12.287  12.653  13.170 -0.0424  0.0329  0.0756
 3426DOPG   C1B62973  12.105  13.112  14.157  0.0795  0.1768  0.2615
 3426DOPG   D2B62974  11.844  13.183  13.713 -0.1148 -0.3588 -0.0994
 3426DOPG   C3B62975  11.538  13.391  13.705 -0.1952  0.0868 -0.2111
 3426DOPG   C4B62976  11.117  13.612  13.802  0.1723  0.0011 -0.1487
 3427DOPG   GL062977  15.429  11.508  15.973 -0.0076 -0.1053 -0.0263
 3427DOPG   PO462978  15.066  11.492  16.123  0.0742  0.1015 -0.1481
 3427DOPG   GL162979  15.045  11.048  16.173  0.2381  0.0387  0.2830
 3427DOPG   GL262980  14.974  11.039  15.855  0.0357  0.4800  0.3256
 3427DOPG   C1A62981  14.984  10.615  16.111  0.1850 -0.2919  0.1259
 3427DOPG   D2A62982  14.536  10.351  16.107 -0.1512 -0.1991 -0.0912
 3427DOPG   C3A62983  14.398   9.919  16.190 -0.1547 -0.2280  0.1301
 3427DOPG   C4A62984  14.165   9.647  15.829  0.0352 -0.0157  0.0327
 3427DOPG   C1B62985  15.007  10.656  15.598 -0.0216 -0.1560  0.1660
 3427DOPG   D2B62986  15.317  10.353  15.403  0.0613  0.4702  0.1970
 3427DOPG   C3B62987  15.766  10.080  15.474  0.0756  0.4944  0.1109
 3427DOPG   C4B62988  16.027   9.938  15.827  0.1547 -0.1758  0.2337
 3428DOPG   GL062989   7.930  20.225  16.653 -0.0641 -0.1911 -0.2015
 3428DOPG   PO462990   8.215  19.906  16.541  0.0937  0.1670 -0.0388
 3428DOPG   GL162991   7.990  20.139  16.184 -0.1871  0.2062  0.4538
 3428DOPG   GL262992   7.664  20.232  16.182 -0.2152 -0.0315  0.2165
 3428DOPG   C1A62993   8.120  20.077  15.764 -0.0873 -0.2303 -0.4551
 3428DOPG   D2A62994   8.366  20.246  15.342  0.2590 -0.0947 -0.1302
 3428DOPG   C3A62995   8.802  20.073  15.275 -0.3511  0.0005  0.0404
 3428DOPG   C4A62996   9.229  19.909  15.268 -0.0244 -0.0646  0.2277
 3428DOPG   C1B62997   7.576  20.030  15.717  0.0690 -0.0907 -0.0823
 3428DOPG   D2B62998   7.540  19.862  15.280  0.1591 -0.0137 -0.0930
 3428DOPG   C3B62999   7.217  20.041  15.089 -0.0969 -0.1174 -0.2631
 3428DOPG   C4B63000   7.204  20.414  14.897 -0.3759 -0.3255  0.1543
 3429DOPG   GL063001  17.472  12.893  18.108 -0.1365 -0.2129  0.1643
 3429DOPG   PO463002  17.770  12.821  17.923 -0.0169  0.1026 -0.0360
 3429DOPG   GL163003  18.033  12.736  17.607 -0.0298  0.0916 -0.2893
 3429DOPG   GL263004  17.864  12.746  17.371 -0.0852 -0.3238 -0.0136
 3429DOPG   C1A63005  18.257  12.413  17.616  0.2776  0.0758 -0.3493
 3429DOPG   D2A63006  18.461  12.217  17.920 -0.0513 -0.2443 -0.0036
 3429DOPG   C3A63007  18.629  11.842  17.910  0.3328  0.5319 -0.5438
 3429DOPG   C4A63008  18.339  11.527  17.775 -0.4101 -0.2812 -0.0145
 3429DOPG   C1B63009  18.205  12.571  17.180  0.3232  0.0809 -0.1442
 3429DOPG   D2B63010  18.330  12.318  16.895 -0.1342 -0.1919  0.1571
 3429DOPG   C3B63011  18.276  11.863  16.996  0.2276 -0.4488 -0.1220
 3429DOPG   C4B63012  18.212  11.489  17.193  0.2239  0.0124  0.2035
 3430DOPG   GL063013  23.329  20.331  17.527 -0.3444  0.1832  0.1229
 3430DOPG   PO463014  22.906  20.177  17.681  0.2002  0.1454  0.2050
 3430DOPG   GL163015  23.010  20.677  17.654 -0.0723 -0.2866 -0.0733
 3430DOPG   GL263016  22.890  20.839  17.863  0.2294 -0.0083  0.1425
 3430DOPG   C1A63017  23.046  21.047  17.422  0.1407  0.2365  0.1600
 3430DOPG   D2A63018  23.429  21.090  17.108 -0.0591 -0.3926  0.0567
 3430DOPG   C3A63019  23.491  20.927  16.739  0.1587  0.1085  0.2781
 3430DOPG   C4A63020  23.899  20.872  16.477 -0.1578  0.0645 -0.1338
 3430DOPG   C1B63021  22.976  21.201  17.987  0.0898 -0.0321 -0.1805
 3430DOPG   D2B63022  23.274  21.426  18.253  0.0041  0.0278  0.1424
 3430DOPG   C3B63023  23.155  21.478  18.678 -0.2617 -0.2095 -0.1405
 3430DOPG   C4B63024  22.929  21.603  19.026 -0.0840  0.1676 -0.2237
 3431DOPG   GL063025  11.304  21.290  16.192 -0.0643 -0.0256  0.0636
 3431DOPG   PO463026  11.451  21.700  15.947  0.0355 -0.0252  0.0006
 3431DOPG   GL163027  11.340  21.828  15.384  0.0807 -0.0826  0.2477
 3431DOPG   GL263028  11.083  21.622  15.217 -0.1781 -0.0182  0.1683
 3431DOPG   C1A63029  10.910  22.156  15.336 -0.2422 -0.0155  0.0086
 3431DOPG   D2A63030  10.539  22.127  15.530 -0.0594 -0.0146  0.0932
 3431DOPG   C3A63031  10.542  22.543  15.731  0.0735  0.0553  0.0625
 3431DOPG   C4A63032  10.481  23.013  15.889 -0.0911 -0.1881 -0.3970
 3431DOPG   C1B63033  11.166  21.578  14.912  0.1736 -0.0382 -0.1859
 3431DOPG   D2B63034  10.895  21.546  14.601 -0.2665  0.1762  0.2351
 3431DOPG   C3B63035  10.604  21.839  14.385  0.0046  0.2007 -0.0030
 3431DOPG   C4B63036  10.397  22.170  14.179  0.1199  0.1378 -0.0742
 3432DOPG   GL063037  18.053  14.080  16.601  0.3086 -0.1074  0.1719
 3432DOPG   PO463038  18.453  14.268  16.464  0.1670  0.2956  0.1541
 3432DOPG   GL163039  18.796  14.209  16.233 -0.1737 -0.0893 -0.0617
 3432DOPG   GL263040  19.025  13.934  16.238  0.0421 -0.0540 -0.1160
 3432DOPG   C1A63041  18.988  14.321  15.871 -0.4281 -0.2680  0.3449
 3432DOPG   D2A63042  19.370  14.532  15.645 -0.1519 -0.2285  0.1436
 3432DOPG   C3A63043  19.340  14.221  15.270  0.1816  0.1132  0.0103
 3432DOPG   C4A63044  19.425  14.017  14.884  0.2609  0.1127 -0.2493
 3432DOPG   C1B63045  19.390  13.696  16.190  0.2315  0.1974 -0.3245
 3432DOPG   D2B63046  19.730  13.654  15.931 -0.0530  0.0670 -0.1000
 3432DOPG   C3B63047  20.074  13.398  16.006 -0.3914  0.1424 -0.0104
 3432DOPG   C4B63048  20.402  13.292  15.827 -0.1624  0.2418  0.2817
 3433DOPG   GL063049  18.252  14.633  18.223  0.2692  0.1092  0.1893
 3433DOPG   PO463050  18.414  14.783  17.848  0.0635 -0.0896 -0.4082
 3433DOPG   GL163051  18.733  14.840  17.449 -0.1315 -0.1019  0.0651
 3433DOPG   GL263052  18.678  14.657  17.125  0.1583 -0.0074 -0.2584
 3433DOPG   C1A63053  18.859  15.165  17.071 -0.1445  0.1207 -0.0308
 3433DOPG   D2A63054  18.978  15.298  16.637  0.1193  0.0289  0.1391
 3433DOPG   C3A63055  19.197  15.607  16.314 -0.0493  0.1296 -0.1011
 3433DOPG   C4A63056  19.328  16.016  16.414  0.1147  0.1142  0.1174
 3433DOPG   C1B63057  18.738  14.863  16.674  0.1931 -0.0654  0.0544
 3433DOPG   D2B63058  18.804  14.784  16.258  0.0943  0.2540 -0.0119
 3433DOPG   C3B63059  19.300  14.675  16.086  0.1019 -0.1876 -0.1241
 3433DOPG   C4B63060  19.738  14.935  15.932 -0.1998 -0.3469 -0.0685
 3434DOPG   GL063061  18.774  13.979  17.785 -0.0766  0.1780 -0.0397
 3434DOPG   PO463062  18.753  14.357  17.549 -0.0201  0.0074  0.0530
 3434DOPG   GL163063  19.075  14.160  17.324 -0.0876  0.3633  0.4830
 3434DOPG   GL263064  19.165  14.421  17.307 -0.2329 -0.0344 -0.1010
 3434DOPG   C1A63065  19.426  13.929  17.161  0.0038  0.1890 -0.2890
 3434DOPG   D2A63066  19.684  13.849  16.757  0.2403  0.0965 -0.1333
 3434DOPG   C3A63067  19.971  13.555  16.934  0.0017  0.2904  0.2461
 3434DOPG   C4A63068  20.251  13.274  16.797  0.1782 -0.0220  0.2395
 3434DOPG   C1B63069  19.507  14.449  16.961  0.1396 -0.1975  0.2100
 3434DOPG   D2B63070  19.890  14.302  16.750 -0.0634 -0.2443  0.0383
 3434DOPG   C3B63071  19.965  13.988  16.320 -0.1443  0.1831 -0.1451
 3434DOPG   C4B63072  20.197  14.045  15.882  0.1269  0.0099  0.0552
 3435DOPG   GL063073  11.163  11.440  15.988  0.0153 -0.0641  0.3019
 3435DOPG   PO463074  10.738  11.282  16.179 -0.0076  0.0257  0.1132
 3435DOPG   GL163075  10.417  11.072  15.854  0.1682 -0.0477 -0.1474
 3435DOPG   GL263076  10.133  11.062  16.008 -0.2184  0.2786  0.1256
 3435DOPG   C1A63077  10.149  11.315  15.516  0.2148 -0.0068  0.0013
 3435DOPG   D2A63078  10.162  11.495  15.063 -0.1710 -0.1112  0.0466
 3435DOPG   C3A63079   9.754  11.710  14.850 -0.3276 -0.3684  0.0912
 3435DOPG   C4A63080   9.540  11.852  14.487 -0.1156 -0.1561 -0.1279
 3435DOPG   C1B63081  10.160  10.801  15.533 -0.2546 -0.0713  0.3426
 3435DOPG   D2B63082  10.371  10.567  15.143  0.2845  0.1980 -0.1125
 3435DOPG   C3B63083  10.586  10.607  14.801  0.1920 -0.0204  0.2506
 3435DOPG   C4B63084  10.468  10.766  14.438 -0.2594  0.0528  0.3565
 3436DOPG   GL063085  10.668  20.928  16.735  0.0236 -0.0065 -0.2255
 3436DOPG   PO463086  10.504  20.637  16.434 -0.0264  0.2910 -0.0951
 3436DOPG   GL163087  10.237  20.473  16.162 -0.1566 -0.0297 -0.1368
 3436DOPG   GL263088   9.875  20.535  16.241  0.0396 -0.0241 -0.2950
 3436DOPG   C1A63089  10.143  20.246  15.839  0.3171  0.1083  0.1254
 3436DOPG   D2A63090  10.006  20.560  15.519 -0.1096 -0.3147  0.0117
 3436DOPG   C3A63091  10.126  20.424  15.015  0.0269 -0.1893 -0.0138
 3436DOPG   C4A63092  10.405  20.393  14.789  0.1720 -0.1162 -0.1747
 3436DOPG   C1B63093   9.705  20.438  15.947  0.1856  0.0474  0.3792
 3436DOPG   D2B63094   9.326  20.568  15.617 -0.0575  0.2499  0.1628
 3436DOPG   C3B63095   9.664  20.703  15.209  0.0332 -0.1168  0.1111
 3436DOPG   C4B63096   9.673  20.824  14.762  0.0629  0.2261  0.0576
 3437DOPG   GL063097  16.113  16.257  14.824  0.1285 -0.0336 -0.1174
 3437DOPG   PO463098  15.706  16.219  14.938 -0.1945  0.3072  0.1465
 3437DOPG   GL163099  15.827  15.914  14.609 -0.0857  0.0379 -0.0138
 3437DOPG   GL263100  16.028  16.019  14.372 -0.2362  0.2828  0.4945
 3437DOPG   C1A63101  15.703  15.766  14.092 -0.0123  0.3756  0.3197
 3437DOPG   D2A63102  15.454  15.713  13.785 -0.1846 -0.0083 -0.1058
 3437DOPG   C3A63103  15.253  15.397  13.597 -0.0648  0.3035  0.0727
 3437DOPG   C4A63104  15.076  14.868  13.571  0.0521 -0.0180 -0.0861
 3437DOPG   C1B63105  16.054  16.005  13.908 -0.1141 -0.1770  0.1015
 3437DOPG   D2B63106  16.078  15.661  13.637  0.1795  0.0088  0.3572
 3437DOPG   C3B63107  15.768  15.460  13.491 -0.0683  0.4077 -0.1678
 3437DOPG   C4B63108  15.629  15.297  13.023 -0.2068  0.2487 -0.1454
 3438DOPG   GL063109  21.964  20.353  17.874  0.1242 -0.0341  0.1351
 3438DOPG   PO463110  21.857  19.928  18.031  0.0086 -0.0104  0.1841
 3438DOPG   GL163111  21.566  20.261  18.241 -0.0051 -0.1774 -0.0951
 3438DOPG   GL263112  21.519  20.538  18.123 -0.0799  0.1455 -0.1789
 3438DOPG   C1A63113  21.401  20.359  18.668 -0.2585 -0.1016  0.0697
 3438DOPG   D2A63114  21.344  20.721  19.001  0.0086 -0.0960  0.3018
 3438DOPG   C3A63115  21.737  21.122  18.909 -0.4653  0.0913 -0.3639
 3438DOPG   C4A63116  22.034  21.482  18.876  0.0656  0.3341  0.2252
 3438DOPG   C1B63117  21.444  20.873  18.446 -0.0168 -0.0533  0.0274
 3438DOPG   D2B63118  21.233  21.135  18.730  0.1678 -0.1226  0.2058
 3438DOPG   C3B63119  21.273  21.140  19.169  0.0906  0.2952 -0.0724
 3438DOPG   C4B63120  20.981  21.261  19.332  0.1526 -0.3382  0.0682
 3439DOPG   GL063121  13.780  15.310  15.078 -0.0167  0.0328 -0.0941
 3439DOPG   PO463122  14.162  15.399  14.815  0.1632 -0.1326 -0.3901
 3439DOPG   GL163123  14.270  15.509  14.405 -0.1077  0.2624  0.4832
 3439DOPG   GL263124  14.431  15.626  14.176  0.1375 -0.0049  0.0341
 3439DOPG   C1A63125  14.207  15.089  14.229  0.2523  0.0415 -0.1707
 3439DOPG   D2A63126  14.100  14.748  13.980 -0.0922 -0.1896  0.1208
 3439DOPG   C3A63127  14.391  14.510  13.715 -0.0497  0.1581 -0.3535
 3439DOPG   C4A63128  14.712  14.491  13.488  0.2883  0.2966 -0.0962
 3439DOPG   C1B63129  14.408  15.461  13.703 -0.0610 -0.0953 -0.2096
 3439DOPG   D2B63130  14.857  15.547  13.393  0.1639  0.0959  0.0622
 3439DOPG   C3B63131  14.986  15.928  13.271  0.0466 -0.1725 -0.0630
 3439DOPG   C4B63132  15.270  16.157  13.602 -0.0902 -0.0620 -0.3008
 3440DOPG   GL063133   9.459  14.710  17.312 -0.4996 -0.1145 -0.1568
 3440DOPG   PO463134   9.595  15.027  17.287 -0.1187 -0.0550  0.2963
 3440DOPG   GL163135   9.881  14.683  17.049  0.0741  0.0195  0.0318
 3440DOPG   GL263136  10.273  14.754  17.091 -0.2199 -0.1156 -0.2132
 3440DOPG   C1A63137  10.192  14.614  16.663  0.0011 -0.0265  0.1762
 3440DOPG   D2A63138  10.669  14.695  16.632 -0.1733  0.0610  0.0346
 3440DOPG   C3A63139  10.723  14.919  16.258  0.3383 -0.0766 -0.4438
 3440DOPG   C4A63140  10.787  15.206  16.079  0.1041 -0.0173  0.0107
 3440DOPG   C1B63141  10.245  15.213  17.109  0.3980 -0.1350 -0.2583
 3440DOPG   D2B63142  10.109  15.582  16.807 -0.0789  0.0374  0.4466
 3440DOPG   C3B63143  10.061  15.644  16.404  0.0440 -0.0891  0.0605
 3440DOPG   C4B63144   9.968  15.701  15.920  0.0613  0.0682  0.1077
 3441DOPG   GL063145  22.325  18.485  17.043 -0.0443 -0.2906 -0.0545
 3441DOPG   PO463146  22.250  18.686  16.623 -0.2675 -0.3605  0.1881
 3441DOPG   GL163147  22.064  18.578  16.252 -0.1831  0.4019  0.2679
 3441DOPG   GL263148  22.157  18.262  16.215  0.0766  0.4354  0.2292
 3441DOPG   C1A63149  22.016  18.664  15.790 -0.0662 -0.0229  0.1601
 3441DOPG   D2A63150  21.976  18.620  15.389  0.0638 -0.2929 -0.0052
 3441DOPG   C3A63151  21.626  18.702  15.124 -0.0728 -0.0393 -0.0067
 3441DOPG   C4A63152  21.374  18.788  14.740 -0.0135  0.0432  0.1083
 3441DOPG   C1B63153  22.282  17.862  16.017 -0.3874 -0.2407 -0.1550
 3441DOPG   D2B63154  22.146  17.373  15.924 -0.2238  0.2094  0.0080
 3441DOPG   C3B63155  22.494  17.098  15.692 -0.2979 -0.0983  0.0209
 3441DOPG   C4B63156  22.810  16.753  15.481  0.2502  0.3631  0.2204
 3442DOPG   GL063157   9.860  16.302  17.351 -0.1437 -0.0094  0.0071
 3442DOPG   PO463158  10.079  16.556  17.677  0.1644  0.1045 -0.0478
 3442DOPG   GL163159  10.370  16.520  17.435  0.1627 -0.0391 -0.1506
 3442DOPG   GL263160  10.144  16.671  17.114 -0.0015 -0.1102  0.1399
 3442DOPG   C1A63161  10.358  16.150  17.036  0.0411  0.0846  0.0640
 3442DOPG   D2A63162  10.262  16.022  16.657  0.0092 -0.0748 -0.2988
 3442DOPG   C3A63163  10.551  15.652  16.474  0.1542 -0.0639 -0.4067
 3442DOPG   C4A63164  10.921  15.673  16.139  0.0443 -0.0960 -0.0179
 3442DOPG   C1B63165  10.349  16.512  16.646 -0.0811 -0.1366  0.0671
 3442DOPG   D2B63166  10.342  16.624  16.274  0.2450 -0.1243 -0.0161
 3442DOPG   C3B63167  10.312  16.462  15.840 -0.3148 -0.0074  0.2536
 3442DOPG   C4B63168  10.542  16.542  15.397  0.0831  0.0459 -0.0388
 3443DOPG   GL063169  14.524  11.951  16.404  0.2109  0.0954 -0.1875
 3443DOPG   PO463170  14.210  11.573  16.343  0.0977 -0.1425 -0.0665
 3443DOPG   GL163171  14.432  11.682  15.965 -0.3885 -0.1697  0.0977
 3443DOPG   GL263172  14.208  11.855  15.778  0.0651 -0.0738  0.0970
 3443DOPG   C1A63173  14.700  11.355  15.590  0.3456 -0.3003  0.1187
 3443DOPG   D2A63174  14.931  11.175  15.286 -0.0065 -0.4955  0.0976
 3443DOPG   C3A63175  15.312  11.089  15.481 -0.8191 -0.1612 -0.1255
 3443DOPG   C4A63176  15.532  11.065  15.891  0.0401 -0.0435  0.1652
 3443DOPG   C1B63177  14.269  11.688  15.338 -0.1447  0.1757  0.0025
 3443DOPG   D2B63178  14.424  11.286  15.202  0.1716 -0.0444 -0.0211
 3443DOPG   C3B63179  14.391  11.077  14.809  0.0424 -0.1600 -0.0872
 3443DOPG   C4B63180  14.255  10.798  14.561  0.0001 -0.5555  0.3718
 3444DOPG   GL063181  17.207  17.093  14.537  0.2705 -0.0663 -0.0526
 3444DOPG   PO463182  17.043  16.885  14.264  0.2660  0.0427 -0.1654
 3444DOPG   GL163183  17.093  16.546  13.829  0.3205 -0.1798 -0.1421
 3444DOPG   GL263184  17.119  16.183  13.900 -0.0248  0.0916 -0.1008
 3444DOPG   C1A63185  16.770  16.301  13.564 -0.2014  0.3598  0.0849
 3444DOPG   D2A63186  16.648  16.099  13.103  0.0360  0.0888 -0.0559
 3444DOPG   C3A63187  16.873  16.256  12.757 -0.0615 -0.0808  0.1014
 3444DOPG   C4A63188  16.954  16.350  12.366  0.1197 -0.0127  0.0534
 3444DOPG   C1B63189  17.187  15.954  13.425  0.2509  0.0840  0.1028
 3444DOPG   D2B63190  17.533  16.007  13.155  0.4973  0.0189  0.1055
 3444DOPG   C3B63191  17.877  16.326  13.355 -0.1308  0.1367 -0.1343
 3444DOPG   C4B63192  18.276  16.588  13.322 -0.1369 -0.1090  0.1678
 3445DOPG   GL063193  17.112  18.328  14.373  0.1681  0.0345 -0.1066
 3445DOPG   PO463194  17.530  18.341  14.506  0.1669  0.2931 -0.1353
 3445DOPG   GL163195  17.477  18.614  14.202  0.1324  0.3190  0.2668
 3445DOPG   GL263196  17.300  18.497  13.905 -0.0804 -0.4425 -0.0097
 3445DOPG   C1A63197  17.635  19.011  14.112  0.3264  0.2398 -0.2702
 3445DOPG   D2A63198  17.394  19.399  13.904 -0.1808 -0.1325  0.1294
 3445DOPG   C3A63199  17.379  19.802  14.092 -0.1251 -0.2606  0.0543
 3445DOPG   C4A63200  17.526  20.249  14.217  0.0152  0.1275  0.3034
 3445DOPG   C1B63201  17.586  18.708  13.654  0.1457 -0.0590  0.3727
 3445DOPG   D2B63202  17.627  18.800  13.188 -0.1825 -0.1480 -0.1370
 3445DOPG   C3B63203  17.304  18.953  12.937  0.0611  0.0680  0.2864
 3445DOPG   C4B63204  16.958  19.374  13.003  0.0180  0.1716  0.0831
 3446DOPG   GL063205  14.668  18.942  18.857  0.2443 -0.0261  0.0891
 3446DOPG   PO463206  14.835  18.724  18.500  0.1878  0.0835 -0.0244
 3446DOPG   GL163207  15.191  18.569  18.308  0.1966 -0.1571  0.2034
 3446DOPG   GL263208  15.277  18.894  18.284 -0.2806 -0.0021  0.1530
 3446DOPG   C1A63209  15.351  18.207  17.979 -0.3922  0.2653 -0.0110
 3446DOPG   D2A63210  15.363  17.941  17.567 -0.1414  0.0437  0.1664
 3446DOPG   C3A63211  15.272  18.085  17.166  0.2427 -0.0366  0.1161
 3446DOPG   C4A63212  15.022  18.228  16.747  0.2210 -0.1404  0.1994
 3446DOPG   C1B63213  15.409  18.804  17.928 -0.0120 -0.0485  0.0123
 3446DOPG   D2B63214  15.268  18.496  17.560  0.2868  0.0925  0.2054
 3446DOPG   C3B63215  15.270  18.600  17.164 -0.0254 -0.0772 -0.2057
 3446DOPG   C4B63216  15.386  18.566  16.762 -0.2806 -0.2821 -0.0543
 3447DOPG   GL063217  10.145  10.625  16.690 -0.1302  0.0188 -0.0391
 3447DOPG   PO463218  10.502  10.819  16.336  0.1421 -0.2877 -0.0315
 3447DOPG   GL163219  10.393  10.537  16.092  0.2154 -0.1804 -0.4308
 3447DOPG   GL263220  10.000  10.392  16.212  0.0479  0.2221  0.2204
 3447DOPG   C1A63221  10.564  10.309  15.768 -0.1363 -0.0399  0.0036
 3447DOPG   D2A63222  10.553   9.949  15.409 -0.0053  0.3782 -0.1402
 3447DOPG   C3A63223  10.196   9.666  15.161  0.0146 -0.2137  0.2920
 3447DOPG   C4A63224   9.694   9.569  15.239 -0.1488 -0.3370 -0.2436
 3447DOPG   C1B63225   9.898  10.162  16.506 -0.2635 -0.1668 -0.0322
 3447DOPG   D2B63226   9.657  10.068  16.871 -0.0014 -0.3690 -0.0550
 3447DOPG   C3B63227   9.217  10.153  16.914  0.3072  0.3112  0.0555
 3447DOPG   C4B63228   8.851  10.095  17.041 -0.1949 -0.3407 -0.0405
 3448DOPG   GL063229  12.639  12.365  15.545 -0.1774  0.2090  0.1502
 3448DOPG   PO463230  12.732  12.637  15.145  0.3575 -0.2299 -0.2336
 3448DOPG   GL163231  12.414  12.540  14.937 -0.2743 -0.0022 -0.4032
 3448DOPG   GL263232  12.629  12.447  14.598  0.0970  0.1774  0.0497
 3448DOPG   C1A63233  12.193  12.223  14.620  0.0851  0.0797  0.1082
 3448DOPG   D2A63234  12.004  11.929  14.417  0.1148  0.3556  0.3299
 3448DOPG   C3A63235  12.132  11.578  14.298 -0.0538 -0.1867 -0.2116
 3448DOPG   C4A63236  12.287  11.414  13.868 -0.1163 -0.1919  0.1528
 3448DOPG   C1B63237  12.921  12.132  14.561  0.2114 -0.0359 -0.3240
 3448DOPG   D2B63238  13.074  11.757  14.375 -0.0085  0.0918 -0.0918
 3448DOPG   C3B63239  13.403  11.721  14.134  0.2714 -0.3684 -0.2730
 3448DOPG   C4B63240  13.502  11.816  13.753  0.0736 -0.2860 -0.0406
 3449DOPG   GL063241  13.065  13.483  14.689  0.1860 -0.0570 -0.0446
 3449DOPG   PO463242  12.737  13.664  14.580  0.3154  0.0730  0.2129
 3449DOPG   GL163243  12.952  13.658  14.259  0.1441  0.0649 -0.0907
 3449DOPG   GL263244  12.697  13.709  14.047 -0.3783  0.0492  0.1684
 3449DOPG   C1A63245  13.245  13.643  13.931 -0.4230  0.0339 -0.1312
 3449DOPG   D2A63246  13.089  13.723  13.574 -0.1271  0.2830 -0.0513
 3449DOPG   C3A63247  12.915  13.447  13.302 -0.0422  0.0882  0.1418
 3449DOPG   C4A63248  12.596  13.498  12.919 -0.1788 -0.0852 -0.1521
 3449DOPG   C1B63249  12.642  13.971  13.644 -0.2791  0.1068 -0.0628
 3449DOPG   D2B63250  12.640  13.805  13.262  0.2801 -0.4678  0.1795
 3449DOPG   C3B63251  12.732  14.022  12.888 -0.2405 -0.0722 -0.1846
 3449DOPG   C4B63252  12.795  13.857  12.462 -0.2331  0.1892  0.0049
 3450DOPG   GL063253  13.661  20.105  17.999  0.0534  0.0225 -0.0027
 3450DOPG   PO463254  13.828  20.207  17.611 -0.0320 -0.0760  0.0425
 3450DOPG   GL163255  13.980  19.823  17.502  0.1005  0.0036 -0.0138
 3450DOPG   GL263256  14.243  19.725  17.507 -0.0434  0.1464 -0.1586
 3450DOPG   C1A63257  13.732  19.519  17.451 -0.1739 -0.4428  0.1295
 3450DOPG   D2A63258  13.574  19.057  17.648 -0.1854 -0.0139 -0.0125
 3450DOPG   C3A63259  13.804  18.656  17.859  0.2589  0.0887 -0.0623
 3450DOPG   C4A63260  13.725  18.226  17.844 -0.1030 -0.0722  0.0739
 3450DOPG   C1B63261  14.236  19.425  17.314  0.1699  0.2997  0.2181
 3450DOPG   D2B63262  14.324  19.144  17.007  0.0844 -0.1047 -0.1133
 3450DOPG   C3B63263  14.643  19.022  16.785 -0.2494  0.0050  0.0821
 3450DOPG   C4B63264  14.833  18.653  16.687  0.3537 -0.3269  0.0561
 3451DOPG   GL063265  17.790  13.430  17.044 -0.0569  0.1472 -0.1957
 3451DOPG   PO463266  17.973  13.115  16.834  0.0498  0.1663  0.2109
 3451DOPG   GL163267  17.980  12.673  16.651 -0.0922  0.0774 -0.1274
 3451DOPG   GL263268  17.765  12.591  16.896 -0.1634 -0.0357 -0.0322
 3451DOPG   C1A63269  18.307  12.523  16.410  0.2514 -0.1445  0.0728
 3451DOPG   D2A63270  18.794  12.612  16.317  0.2051  0.0693 -0.0837
 3451DOPG   C3A63271  18.942  12.967  15.979 -0.1340  0.0987  0.2029
 3451DOPG   C4A63272  19.200  13.195  16.084 -0.0629 -0.0993  0.0418
 3451DOPG   C1B63273  17.895  12.180  16.658 -0.1014  0.1801 -0.2959
 3451DOPG   D2B63274  18.120  11.853  16.515 -0.0333  0.4340  0.2267
 3451DOPG   C3B63275  18.467  11.921  16.444 -0.0772 -0.0028  0.1135
 3451DOPG   C4B63276  18.726  12.148  16.370  0.1970 -0.0529  0.1004
 3452DOPG   GL063277   9.354  13.739  16.070 -0.0641 -0.1766  0.0446
 3452DOPG   PO463278   9.242  13.689  15.603 -0.0722  0.1462 -0.1163
 3452DOPG   GL163279   9.314  13.898  15.223 -0.4526 -0.0773  0.2505
 3452DOPG   GL263280   9.139  14.056  15.224  0.2829 -0.0926 -0.2625
 3452DOPG   C1A63281   9.414  13.811  14.799 -0.1728  0.0321  0.0023
 3452DOPG   D2A63282   9.380  14.014  14.411  0.2054 -0.1826  0.2022
 3452DOPG   C3A63283   9.229  14.447  14.288  0.1678 -0.0604 -0.0360
 3452DOPG   C4A63284   9.067  14.902  14.351  0.0318 -0.0770  0.0671
 3452DOPG   C1B63285   9.274  14.312  14.847  0.4424 -0.0892 -0.2775
 3452DOPG   D2B63286   9.494  14.763  14.728  0.0646 -0.1340 -0.0960
 3452DOPG   C3B63287   9.301  15.234  14.687  0.1826 -0.3063 -0.0741
 3452DOPG   C4B63288   9.304  15.603  14.808 -0.0185  0.1054  0.2714
 3453DOPG   GL063289  12.596  11.832  16.222 -0.1170 -0.1777  0.2439
 3453DOPG   PO463290  12.402  12.228  15.970  0.0365 -0.1997 -0.0108
 3453DOPG   GL163291  12.115  12.641  15.740 -0.0649  0.1104 -0.4564
 3453DOPG   GL263292  12.163  12.993  15.634  0.1684  0.1068 -0.0524
 3453DOPG   C1A63293  11.644  12.701  15.603  0.1208  0.0295  0.0730
 3453DOPG   D2A63294  11.301  12.790  15.483 -0.0914  0.3121 -0.0200
 3453DOPG   C3A63295  11.107  13.054  15.232  0.1894  0.0170  0.1372
 3453DOPG   C4A63296  11.031  12.919  14.816  0.0775  0.0037  0.1448
 3453DOPG   C1B63297  11.713  13.196  15.558  0.1072  0.1756  0.2110
 3453DOPG   D2B63298  11.425  13.233  15.669  0.0708 -0.0807  0.0708
 3453DOPG   C3B63299  11.027  13.407  15.881 -0.0058 -0.2903  0.0068
 3453DOPG   C4B63300  10.782  13.234  16.072 -0.1042  0.1692 -0.3447
 3454DOPG   GL063301  13.539  19.144  14.538  0.0390 -0.1575  0.0210
 3454DOPG   PO463302  13.160  18.965  14.393 -0.0182 -0.1551  0.0488
 3454DOPG   GL163303  12.836  19.204  14.384 -0.0276  0.1494  0.0159
 3454DOPG   GL263304  12.464  18.989  14.500 -0.2854 -0.1240 -0.0943
 3454DOPG   C1A63305  12.567  19.484  14.152 -0.0430 -0.0402  0.3356
 3454DOPG   D2A63306  12.360  19.759  14.366 -0.2013 -0.1752 -0.0287
 3454DOPG   C3A63307  11.973  19.525  14.475 -0.0016  0.1038  0.2248
 3454DOPG   C4A63308  11.519  19.639  14.624  0.0345  0.0899 -0.0523
 3454DOPG   C1B63309  12.215  19.111  14.138  0.1456 -0.0871 -0.0320
 3454DOPG   D2B63310  12.132  19.091  13.655 -0.3676  0.1379  0.1554
 3454DOPG   C3B63311  12.308  19.570  13.617  0.2836 -0.0874 -0.1146
 3454DOPG   C4B63312  12.530  19.884  13.440  0.1061 -0.0606 -0.3612
 3455DOPG   GL063313  15.944  17.362  14.421  0.0011 -0.0642  0.0728
 3455DOPG   PO463314  15.612  17.090  14.444  0.1556  0.0835  0.1347
 3455DOPG   GL163315  15.407  16.825  14.088 -0.3763  0.1409  0.3376
 3455DOPG   GL263316  15.642  16.960  14.009  0.1075 -0.1655 -0.2112
 3455DOPG   C1A63317  15.378  16.623  13.781 -0.2673  0.1723  0.3195
 3455DOPG   D2A63318  15.463  16.547  13.337 -0.3485 -0.4432  0.0650
 3455DOPG   C3A63319  15.781  16.308  13.062  0.0388  0.0144  0.0987
 3455DOPG   C4A63320  15.725  16.276  12.620 -0.2638  0.1105  0.0968
 3455DOPG   C1B63321  15.645  17.362  13.824 -0.3842 -0.0096  0.0469
 3455DOPG   D2B63322  15.455  17.730  13.637 -0.2365 -0.1528 -0.0493
 3455DOPG   C3B63323  15.633  17.924  13.411 -0.2232  0.1139 -0.0831
 3455DOPG   C4B63324  15.956  17.907  12.982  0.0072  0.4093 -0.0788
 3456DOPG   GL063325  14.276  17.644  15.398 -0.1063 -0.1078  0.2179
 3456DOPG   PO463326  14.380  17.288  15.230 -0.1394 -0.5779  0.1258
 3456DOPG   GL163327  14.364  17.199  15.588 -0.0379 -0.1665  0.2138
 3456DOPG   GL263328  14.516  17.482  15.782 -0.0129  0.1816 -0.0652
 3456DOPG   C1A63329  14.479  17.099  16.055 -0.3981 -0.2206 -0.2049
 3456DOPG   D2A63330  14.414  17.131  16.494 -0.3521  0.1047 -0.0383
 3456DOPG   C3A63331  14.276  17.428  16.901 -0.1379 -0.1058  0.2224
 3456DOPG   C4A63332  13.939  17.489  17.237  0.0815  0.1002  0.4528
 3456DOPG   C1B63333  14.192  17.501  15.918  0.1903 -0.1718  0.1457
 3456DOPG   D2B63334  13.860  17.751  16.242  0.0080 -0.0074  0.0235
 3456DOPG   C3B63335  14.176  17.837  16.584 -0.2483  0.0924 -0.4306
 3456DOPG   C4B63336  14.560  17.999  16.748 -0.0259 -0.2239 -0.2225
 3457DOPG   GL063337  13.743  12.456  16.244 -0.0682  0.0258 -0.2137
 3457DOPG   PO463338  13.362  12.475  16.396  0.3847 -0.4233 -0.0719
 3457DOPG   GL163339  13.348  12.691  16.777 -0.3400  0.0418  0.0518
 3457DOPG   GL263340  13.028  12.743  16.890  0.1707  0.0370 -0.3399
 3457DOPG   C1A63341  13.383  13.088  16.865  0.1518 -0.3926 -0.2102
 3457DOPG   D2A63342  13.457  13.424  17.139 -0.0749  0.0904  0.3155
 3457DOPG   C3A63343  13.155  13.739  17.360 -0.1892 -0.0414  0.0638
 3457DOPG   C4A63344  12.807  13.842  17.557 -0.2267  0.1960 -0.4170
 3457DOPG   C1B63345  12.958  13.034  17.129 -0.0036  0.0806 -0.3778
 3457DOPG   D2B63346  12.669  13.403  17.312  0.1726  0.0371  0.1035
 3457DOPG   C3B63347  12.485  13.358  17.768  0.1063 -0.0024 -0.1223
 3457DOPG   C4B63348  12.387  13.680  18.044 -0.3872 -0.1962  0.0397
 3458DOPG   GL063349   8.540  18.273  16.393 -0.2791 -0.0920 -0.2749
 3458DOPG   PO463350   8.502  18.471  16.822  0.1725  0.0507 -0.0215
 3458DOPG   GL163351   8.550  18.760  16.395  0.0154 -0.0642 -0.1112
 3458DOPG   GL263352   8.342  18.663  16.171 -0.1601 -0.0756 -0.0905
 3458DOPG   C1A63353   8.861  18.757  16.207  0.0554  0.1228 -0.1778
 3458DOPG   D2A63354   9.334  18.498  16.242  0.0196  0.1203  0.0947
 3458DOPG   C3A63355   9.329  18.173  15.985  0.1653  0.1674  0.0851
 3458DOPG   C4A63356   9.490  18.187  15.592  0.0115  0.2784 -0.1205
 3458DOPG   C1B63357   8.657  18.701  15.781  0.1496 -0.1611  0.3013
 3458DOPG   D2B63358   8.845  18.774  15.400 -0.3084 -0.0275 -0.3410
 3458DOPG   C3B63359   8.773  18.621  15.015 -0.1777 -0.0357  0.1806
 3458DOPG   C4B63360   8.553  18.373  14.733 -0.0033  0.0644  0.2077
 3459DOPG   GL063361  20.254  15.244  18.479 -0.0180 -0.2373  0.1393
 3459DOPG   PO463362  20.321  15.105  18.088  0.1587  0.1523  0.0744
 3459DOPG   GL163363  20.352  15.181  17.635  0.1250 -0.0502 -0.2014
 3459DOPG   GL263364  20.662  15.168  17.435 -0.0171 -0.0137 -0.0705
 3459DOPG   C1A63365  20.316  15.013  17.156  0.1728 -0.0797 -0.0210
 3459DOPG   D2A63366  20.323  14.942  16.748  0.2116  0.2455  0.1203
 3459DOPG   C3A63367  20.348  14.796  16.357 -0.0601 -0.0690 -0.1872
 3459DOPG   C4A63368  20.090  14.486  16.211  0.0847 -0.3138  0.0924
 3459DOPG   C1B63369  20.753  14.818  17.345 -0.2092 -0.2003 -0.0462
 3459DOPG   D2B63370  20.730  14.699  16.874  0.0200 -0.0403 -0.0217
 3459DOPG   C3B63371  20.770  14.618  16.427 -0.3242  0.3843 -0.0449
 3459DOPG   C4B63372  20.922  14.453  16.086 -0.4219 -0.2108  0.2527
 3460DOPG   GL063373  10.879  10.487  18.378 -0.3352  0.0872  0.4398
 3460DOPG   PO463374  10.437  10.524  18.330  0.1415 -0.2414  0.0449
 3460DOPG   GL163375  10.364  10.175  18.507  0.0925  0.1076  0.1065
 3460DOPG   GL263376  10.650  10.123  18.661  0.1753 -0.0318 -0.1721
 3460DOPG   C1A63377   9.989   9.880  18.609 -0.0813  0.0092  0.0637
 3460DOPG   D2A63378   9.585   9.732  18.407  0.1199  0.0419 -0.0462
 3460DOPG   C3A63379   9.265   9.499  18.648 -0.1356 -0.1069 -0.0806
 3460DOPG   C4A63380   8.942   9.213  18.720  0.1470 -0.3216 -0.2941
 3460DOPG   C1B63381  10.688   9.766  18.483 -0.1466  0.0042  0.1636
 3460DOPG   D2B63382  10.699   9.627  18.002  0.2602  0.0361  0.3280
 3460DOPG   C3B63383  10.803   9.266  17.777 -0.3386  0.0050  0.0816
 3460DOPG   C4B63384  10.854   9.089  17.458  0.6120 -0.2433  0.0856
 3461DOPG   GL063385  13.179  11.059  16.782  0.0573 -0.0790 -0.3829
 3461DOPG   PO463386  13.117  10.851  16.394  0.1414 -0.0846 -0.1015
 3461DOPG   GL163387  13.371  10.520  16.344 -0.0128  0.2086 -0.0047
 3461DOPG   GL263388  13.544  10.546  16.599  0.0341 -0.1094  0.3406
 3461DOPG   C1A63389  13.547  10.364  15.985  0.0105  0.2283  0.0645
 3461DOPG   D2A63390  13.481  10.120  15.632 -0.1242 -0.1335  0.4381
 3461DOPG   C3A63391  13.630  10.169  15.249  0.2751  0.0667 -0.2634
 3461DOPG   C4A63392  13.958   9.962  15.034  0.1022  0.2232  0.1498
 3461DOPG   C1B63393  13.439  10.088  16.510  0.1412 -0.4450  0.0568
 3461DOPG   D2B63394  13.314   9.681  16.481  0.1705 -0.2836 -0.1220
 3461DOPG   C3B63395  13.556   9.268  16.538  0.0674 -0.3550  0.0249
 3461DOPG   C4B63396  13.907   9.152  16.544 -0.1500 -0.1816 -0.0604
 3462DOPG   GL063397  18.454  17.770  14.945  0.0220 -0.1235 -0.0922
 3462DOPG   PO463398  18.413  17.338  15.134 -0.0270 -0.2702 -0.2170
 3462DOPG   GL163399  18.220  17.169  15.422  0.2253 -0.0590  0.0166
 3462DOPG   GL263400  18.404  16.893  15.436  0.3745  0.0558  0.1797
 3462DOPG   C1A63401  18.158  17.373  15.894  0.2357 -0.0322  0.2041
 3462DOPG   D2A63402  17.925  17.270  16.392 -0.1095  0.0424 -0.1816
 3462DOPG   C3A63403  17.847  17.488  16.783 -0.2285 -0.3767 -0.1889
 3462DOPG   C4A63404  17.684  17.609  17.127  0.3006  0.0586 -0.1912
 3462DOPG   C1B63405  18.739  16.676  15.674  0.0736 -0.0116 -0.1325
 3462DOPG   D2B63406  18.917  16.196  15.675  0.1820 -0.2656  0.1172
 3462DOPG   C3B63407  19.358  16.157  15.494  0.3538 -0.0831  0.2058
 3462DOPG   C4B63408  19.771  16.017  15.407  0.1674 -0.1000 -0.1315
 3463DOPG   GL063409  19.214  16.973  14.682 -0.1511 -0.1331 -0.1560
 3463DOPG   PO463410  19.493  16.829  15.001 -0.0143 -0.3951  0.2405
 3463DOPG   GL163411  19.458  16.471  14.823  0.0399  0.0868 -0.4132
 3463DOPG   GL263412  19.634  16.355  15.120 -0.0741 -0.0160  0.1015
 3463DOPG   C1A63413  19.686  16.038  14.690  0.3656  0.0225 -0.2859
 3463DOPG   D2A63414  19.968  15.749  14.518 -0.1380  0.1817 -0.3153
 3463DOPG   C3A63415  20.113  15.749  14.061  0.2026 -0.1829  0.0415
 3463DOPG   C4A63416  20.327  15.962  13.667 -0.1907  0.1368  0.1028
 3463DOPG   C1B63417  19.995  16.450  14.784 -0.0165  0.2171  0.0555
 3463DOPG   D2B63418  20.184  16.196  14.530  0.1485  0.0287  0.1364
 3463DOPG   C3B63419  20.518  16.095  14.794 -0.2996  0.2925 -0.0315
 3463DOPG   C4B63420  20.873  15.794  14.732 -0.1441  0.0591  0.3239
 3464DOPG   GL063421  23.116  18.747  15.952 -0.1555 -0.2031 -0.0929
 3464DOPG   PO463422  23.407  19.073  16.159 -0.2607  0.3025  0.3013
 3464DOPG   GL163423  23.640  18.840  15.971 -0.0991  0.1764  0.1654
 3464DOPG   GL263424  23.896  19.018  15.820  0.2975 -0.3538  0.1714
 3464DOPG   C1A63425  23.563  18.723  15.603  0.0092 -0.1246  0.0301
 3464DOPG   D2A63426  23.448  18.970  15.207 -0.2848 -0.1252 -0.1659
 3464DOPG   C3A63427  23.072  18.964  14.949  0.3076 -0.0264 -0.1077
 3464DOPG   C4A63428  22.726  19.000  14.723 -0.0969 -0.1229  0.2313
 3464DOPG   C1B63429  24.044  18.995  15.430  0.1151 -0.0174  0.5491
 3464DOPG   D2B63430  23.980  18.921  14.989  0.4329  0.1107 -0.1317
 3464DOPG   C3B63431  23.565  19.193  14.740  0.2534 -0.1713  0.1421
 3464DOPG   C4B63432  23.482  19.553  14.465  0.1002  0.1742  0.0662
 3465DOPG   GL063433  20.036  20.252  16.298  0.0011  0.1125  0.3348
 3465DOPG   PO463434  19.909  20.008  15.808 -0.1456 -0.0051 -0.3014
 3465DOPG   GL163435  20.054  20.485  15.845 -0.1007 -0.0007 -0.1099
 3465DOPG   GL263436  19.783  20.559  15.875  0.0689 -0.1501 -0.0854
 3465DOPG   C1A63437  20.260  20.720  15.588 -0.2051  0.2167  0.1260
 3465DOPG   D2A63438  20.478  20.890  15.221 -0.4136 -0.1597 -0.1325
 3465DOPG   C3A63439  20.324  21.226  15.156  0.0725 -0.0774 -0.3004
 3465DOPG   C4A63440  20.152  21.717  15.272  0.0971  0.2708  0.1753
 3465DOPG   C1B63441  19.757  20.947  15.737  0.0772  0.1655  0.0229
 3465DOPG   D2B63442  19.889  21.117  15.291  0.1811 -0.2268  0.0591
 3465DOPG   C3B63443  19.636  21.434  15.074 -0.1046 -0.0615 -0.0179
 3465DOPG   C4B63444  19.420  21.746  14.880 -0.4400 -0.1899  0.3506
 3466DOPG   GL063445  19.808  17.716  15.150 -0.0428  0.3772  0.3030
 3466DOPG   PO463446  19.727  18.091  15.013 -0.1107  0.1056 -0.0933
 3466DOPG   GL163447  19.793  18.239  14.567 -0.1722  0.0379 -0.1709
 3466DOPG   GL263448  19.849  18.032  14.283 -0.0459  0.0437 -0.1715
 3466DOPG   C1A63449  20.144  18.588  14.376  0.0431 -0.1436 -0.1160
 3466DOPG   D2A63450  20.438  18.825  14.380 -0.0733  0.0115 -0.1964
 3466DOPG   C3A63451  20.752  18.975  14.280 -0.1323 -0.1012  0.2126
 3466DOPG   C4A63452  21.179  19.008  14.232  0.2495 -0.0735 -0.1903
 3466DOPG   C1B63453  20.129  18.293  14.040 -0.0352 -0.0762  0.2416
 3466DOPG   D2B63454  20.466  18.498  13.868  0.4671 -0.0647  0.3416
 3466DOPG   C3B63455  20.907  18.702  13.909 -0.2346  0.1553 -0.1961
 3466DOPG   C4B63456  21.205  18.995  13.723  0.4418 -0.2690  0.2496
 3467DOPG   GL063457  13.247  14.537  14.467  0.1079  0.0344 -0.1097
 3467DOPG   PO463458  12.900  14.812  14.231 -0.2179 -0.1913 -0.0247
 3467DOPG   GL163459  12.667  14.886  13.932  0.2403  0.1826 -0.2506
 3467DOPG   GL263460  12.249  14.791  13.844  0.1221 -0.1521  0.1128
 3467DOPG   C1A63461  12.362  15.197  13.587 -0.2443  0.1079 -0.0940
 3467DOPG   D2A63462  11.908  15.088  13.492  0.1274  0.4952 -0.1071
 3467DOPG   C3A63463  11.592  14.901  13.847 -0.0189 -0.4737 -0.0510
 3467DOPG   C4A63464  11.475  14.902  14.283 -0.0266  0.4261 -0.0599
 3467DOPG   C1B63465  12.578  14.676  13.518  0.0222  0.1450 -0.2237
 3467DOPG   D2B63466  12.843  14.384  13.477  0.1561  0.1326 -0.3299
 3467DOPG   C3B63467  13.225  14.284  13.260  0.2174  0.1535  0.0063
 3467DOPG   C4B63468  13.432  14.635  13.042  0.0141 -0.0243 -0.0542
 3468DOPG   GL063469  22.990  19.574  16.064 -0.3377 -0.0110 -0.1309
 3468DOPG   PO463470  22.910  19.170  16.122 -0.0114  0.2406 -0.0961
 3468DOPG   GL163471  23.176  19.301  15.711 -0.1618 -0.0564  0.2679
 3468DOPG   GL263472  23.498  19.265  15.700 -0.1015 -0.0068 -0.0536
 3468DOPG   C1A63473  23.274  19.462  15.289  0.2208  0.1137  0.1119
 3468DOPG   D2A63474  23.288  19.852  15.033 -0.2549  0.0212  0.2318
 3468DOPG   C3A63475  23.521  20.010  14.735 -0.1099  0.1536  0.0034
 3468DOPG   C4A63476  23.828  20.210  14.702  0.1471 -0.0197  0.1128
 3468DOPG   C1B63477  23.716  19.495  15.783 -0.1886 -0.2995  0.1520
 3468DOPG   D2B63478  24.120  19.497  15.596  0.2929 -0.0706 -0.2702
 3468DOPG   C3B63479  24.507  19.824  15.514 -0.0098  0.0182  0.0354
 3468DOPG   C4B63480  24.663  20.129  15.138  0.1301 -0.1438 -0.2442
 3469DOPG   GL063481   6.218  21.382  15.421  0.0495 -0.0830 -0.2680
 3469DOPG   PO463482   6.179  21.615  15.883  0.0739 -0.0538 -0.0492
 3469DOPG   GL163483   6.566  21.580  15.725 -0.0169 -0.0231  0.2501
 3469DOPG   GL263484   6.787  21.426  15.772  0.3595 -0.3469  0.1649
 3469DOPG   C1A63485   6.614  21.607  15.165 -0.0463  0.0788 -0.1791
 3469DOPG   D2A63486   6.662  21.848  14.738 -0.0860  0.0502  0.2551
 3469DOPG   C3A63487   6.895  21.751  14.316  0.0170  0.0527  0.0124
 3469DOPG   C4A63488   6.850  21.783  13.976  0.1511  0.4346 -0.5107
 3469DOPG   C1B63489   7.051  21.511  15.357 -0.1926 -0.0316 -0.2308
 3469DOPG   D2B63490   7.044  21.191  15.094 -0.0679 -0.0103 -0.0170
 3469DOPG   C3B63491   7.321  21.005  14.794  0.1934  0.2796 -0.1683
 3469DOPG   C4B63492   7.215  20.713  14.524  0.2364  0.0864  0.2165
 3470DOPG   GL063493  13.212  19.832  18.412 -0.3982  0.0114  0.4144
 3470DOPG   PO463494  13.101  19.809  18.032  0.0409 -0.1467  0.1719
 3470DOPG   GL163495  13.173  19.340  17.906 -0.2566 -0.1448  0.3618
 3470DOPG   GL263496  13.060  19.293  17.539  0.3819  0.1974  0.2430
 3470DOPG   C1A63497  13.152  18.847  17.826 -0.0556  0.0115  0.2670
 3470DOPG   D2A63498  13.281  18.504  17.740  0.1714  0.0615 -0.1744
 3470DOPG   C3A63499  13.442  18.407  17.431  0.4467 -0.0795 -0.0172
 3470DOPG   C4A63500  13.502  18.051  17.254 -0.2278  0.0254  0.0925
 3470DOPG   C1B63501  12.745  18.947  17.607  0.0600 -0.1153  0.1217
 3470DOPG   D2B63502  12.635  18.625  17.857 -0.0194  0.1842  0.2041
 3470DOPG   C3B63503  12.606  18.238  17.587 -0.2560 -0.1686 -0.3804
 3470DOPG   C4B63504  12.669  17.768  17.481 -0.0247 -0.1843  0.0878
 3471DOPG   GL063505  17.246  13.090  15.520  0.1771 -0.1414  0.1887
 3471DOPG   PO463506  16.925  13.415  15.504  0.3021  0.0459 -0.3271
 3471DOPG   GL163507  16.914  13.205  15.112  0.0724  0.0106 -0.1345
 3471DOPG   GL263508  16.823  13.143  14.797  0.0816 -0.1070 -0.0829
 3471DOPG   C1A63509  17.302  13.335  14.868  0.0332  0.2075  0.2721
 3471DOPG   D2A63510  17.674  13.036  14.825 -0.0209 -0.0308  0.1787
 3471DOPG   C3A63511  17.905  12.917  14.428  0.0602  0.1492 -0.3493
 3471DOPG   C4A63512  18.111  13.152  14.111  0.0049  0.5083  0.0354
 3471DOPG   C1B63513  16.728  12.893  14.417 -0.0186 -0.1058 -0.1128
 3471DOPG   D2B63514  17.102  12.639  14.232  0.2576 -0.3503 -0.3005
 3471DOPG   C3B63515  16.893  12.271  14.118 -0.1563  0.0658 -0.1195
 3471DOPG   C4B63516  16.997  11.832  14.310  0.0834 -0.4079 -0.0815
 3472DOPG   GL063517   7.454  24.649  14.510 -0.1062  0.1269  0.1848
 3472DOPG   PO463518   7.305  24.353  14.752  0.0386 -0.0228  0.1808
 3472DOPG   GL163519   7.468  23.990  14.866  0.0111  0.3471 -0.1522
 3472DOPG   GL263520   7.722  24.130  14.849 -0.4513 -0.0813 -0.1336
 3472DOPG   C1A63521   7.516  23.585  14.788 -0.0645 -0.1796  0.2668
 3472DOPG   D2A63522   7.322  23.139  14.587 -0.5794  0.2458 -0.2300
 3472DOPG   C3A63523   7.438  22.825  14.734 -0.3982 -0.0094  0.1268
 3472DOPG   C4A63524   7.240  22.403  14.537 -0.0186 -0.1217  0.1678
 3472DOPG   C1B63525   7.909  24.225  15.208  0.0554  0.1584  0.0584
 3472DOPG   D2B63526   7.689  24.169  15.691  0.0239  0.0223  0.2820
 3472DOPG   C3B63527   8.036  24.138  16.021 -0.2464  0.0217 -0.0188
 3472DOPG   C4B63528   8.404  23.794  15.941  0.2438  0.1524 -0.1227
 3473DOPG   GL063529  18.982  18.743  15.014 -0.2145  0.5612 -0.1872
 3473DOPG   PO463530  19.211  18.767  14.580  0.4186  0.1145 -0.0601
 3473DOPG   GL163531  19.206  18.832  14.148 -0.0426  0.1037 -0.0123
 3473DOPG   GL263532  18.939  19.028  14.094 -0.2530  0.1749 -0.0814
 3473DOPG   C1A63533  19.543  19.033  13.969  0.2052  0.1796 -0.1012
 3473DOPG   D2A63534  19.726  19.253  13.596  0.0797 -0.0000  0.0132
 3473DOPG   C3A63535  19.610  19.619  13.603  0.1182 -0.2602  0.0291
 3473DOPG   C4A63536  19.132  19.830  13.631  0.3167 -0.0041 -0.0700
 3473DOPG   C1B63537  18.591  19.313  14.348  0.0494  0.1074  0.1742
 3473DOPG   D2B63538  18.667  19.737  14.455 -0.0632  0.2145  0.1188
 3473DOPG   C3B63539  18.502  20.055  14.173 -0.1051  0.0705  0.0153
 3473DOPG   C4B63540  18.671  20.175  13.776  0.0814  0.1007  0.0196
 3474DOPG   GL063541  11.843  16.248  15.017  0.1592 -0.3864  0.1972
 3474DOPG   PO463542  11.577  15.831  15.045 -0.3139 -0.1891 -0.2043
 3474DOPG   GL163543  11.366  16.250  15.125 -0.3844 -0.3776  0.1178
 3474DOPG   GL263544  11.455  16.381  15.362 -0.3053 -0.0020  0.3433
 3474DOPG   C1A63545  10.893  16.340  15.071 -0.3675 -0.3841  0.1368
 3474DOPG   D2A63546  10.521  16.158  15.081 -0.0885  0.2754  0.2269
 3474DOPG   C3A63547  10.069  16.376  15.190 -0.1798  0.2052 -0.0604
 3474DOPG   C4A63548   9.871  16.752  15.188  0.0672 -0.0085  0.1487
 3474DOPG   C1B63549  11.079  16.500  15.577 -0.2118 -0.1147  0.0500
 3474DOPG   D2B63550  10.796  16.587  15.902 -0.0552  0.0620 -0.1168
 3474DOPG   C3B63551  11.016  16.909  16.221 -0.0704 -0.0129 -0.0312
 3474DOPG   C4B63552  11.443  16.927  16.215  0.0551 -0.3192 -0.0082
 3475DOPG   GL063553   9.514  11.370  17.441  0.0872 -0.0302 -0.3077
 3475DOPG   PO463554   9.600  10.967  17.496 -0.2004 -0.2716  0.4045
 3475DOPG   GL163555   9.202  10.871  17.263 -0.2805  0.0912 -0.0228
 3475DOPG   GL263556   9.255  10.659  17.080  0.0464  0.1987 -0.2642
 3475DOPG   C1A63557   8.820  10.588  17.342  0.1106 -0.4613 -0.4740
 3475DOPG   D2A63558   8.400  10.660  17.509 -0.1122  0.0453  0.1205
 3475DOPG   C3A63559   8.093  10.452  17.269 -0.0827 -0.1876 -0.0992
 3475DOPG   C4A63560   7.685  10.144  17.154 -0.2899 -0.1431  0.0723
 3475DOPG   C1B63561   8.888  10.503  16.744 -0.1790 -0.0938 -0.0647
 3475DOPG   D2B63562   8.579  10.800  16.649 -0.0369 -0.0074 -0.2752
 3475DOPG   C3B63563   8.545  11.057  16.273 -0.2135 -0.3275  0.0680
 3475DOPG   C4B63564   8.364  11.404  16.006 -0.0660  0.0647 -0.2961
 3476DOPG   GL063565  12.740  17.782  14.540 -0.1165  0.2126  0.2602
 3476DOPG   PO463566  12.284  17.697  14.342  0.2702 -0.1726 -0.2143
 3476DOPG   GL163567  12.090  18.054  14.172  0.1079 -0.0107 -0.1555
 3476DOPG   GL263568  11.958  17.887  14.004 -0.2971 -0.0827 -0.0702
 3476DOPG   C1A63569  11.859  18.366  13.900 -0.2324  0.0668 -0.1390
 3476DOPG   D2A63570  11.673  18.669  13.640  0.0050  0.0596  0.0840
 3476DOPG   C3A63571  11.698  18.546  13.219 -0.0736  0.0344 -0.1005
 3476DOPG   C4A63572  11.486  18.664  12.921 -0.0686 -0.2779  0.1588
 3476DOPG   C1B63573  11.616  17.965  13.728 -0.1944 -0.0228  0.2638
 3476DOPG   D2B63574  11.437  18.101  13.490 -0.2262 -0.3531  0.1238
 3476DOPG   C3B63575  11.253  18.502  13.413 -0.3076 -0.1945  0.0190
 3476DOPG   C4B63576  10.999  18.769  13.584 -0.0814 -0.1857 -0.0605
 3477DOPG   GL063577  12.297  16.281  15.763 -0.1454 -0.1780  0.0931
 3477DOPG   PO463578  12.690  16.011  15.762 -0.0187  0.0401  0.1289
 3477DOPG   GL163579  12.436  15.954  16.115  0.2726 -0.1709  0.0253
 3477DOPG   GL263580  12.211  15.771  16.039 -0.2741 -0.2171  0.1873
 3477DOPG   C1A63581  12.433  16.188  16.584 -0.0829  0.1556 -0.0893
 3477DOPG   D2A63582  12.115  16.331  16.862  0.1167  0.0906  0.0719
 3477DOPG   C3A63583  11.955  16.834  16.980 -0.2444 -0.1468  0.4189
 3477DOPG   C4A63584  11.472  16.907  17.169 -0.2234  0.2293 -0.0777
 3477DOPG   C1B63585  12.421  15.377  16.323  0.0557 -0.0057  0.2884
 3477DOPG   D2B63586  12.765  15.217  16.630  0.1074  0.1839  0.0636
 3477DOPG   C3B63587  12.779  15.517  17.013  0.0552  0.0009  0.1208
 3477DOPG   C4B63588  13.056  15.814  17.297 -0.1850  0.0511  0.1397
 3478DOPG   GL063589  10.484  11.329  17.067  0.5060  0.2161 -0.1946
 3478DOPG   PO463590  10.329  11.132  16.737 -0.1384  0.1876  0.0147
 3478DOPG   GL163591   9.870  11.015  16.496 -0.0428  0.0958 -0.1453
 3478DOPG   GL263592   9.636  10.837  16.494 -0.1110 -0.1898  0.2238
 3478DOPG   C1A63593   9.758  10.793  16.024 -0.2318  0.1954 -0.2298
 3478DOPG   D2A63594   9.817  10.484  15.745  0.0270  0.2324 -0.4715
 3478DOPG   C3A63595   9.760  10.548  15.306 -0.0460  0.1357  0.0942
 3478DOPG   C4A63596   9.887  10.552  14.846 -0.3970 -0.1843 -0.2286
 3478DOPG   C1B63597   9.454  10.478  16.529 -0.2725 -0.1218 -0.3752
 3478DOPG   D2B63598   9.125  10.308  16.295 -0.0355  0.3782  0.0664
 3478DOPG   C3B63599   8.932  10.091  16.464  0.1536  0.0510 -0.0165
 3478DOPG   C4B63600   8.925   9.725  16.639 -0.1323  0.2130 -0.4438
 3479DOPG   GL063601  13.745  10.294  17.451  0.0862  0.1192 -0.2847
 3479DOPG   PO463602  13.810  10.337  16.981 -0.1020 -0.0713  0.3460
 3479DOPG   GL163603  13.777   9.889  17.031  0.2498  0.0900  0.2152
 3479DOPG   GL263604  13.798   9.661  16.734 -0.1954 -0.0006  0.0290
 3479DOPG   C1A63605  13.784   9.411  17.339 -0.0409  0.0861  0.4046
 3479DOPG   D2A63606  13.852   8.973  17.524 -0.3095 -0.0034  0.2611
 3479DOPG   C3A63607  14.243   8.750  17.328  0.0180  0.1739 -0.1128
 3479DOPG   C4A63608  14.281   8.379  17.112 -0.0250  0.2393 -0.0657
 3479DOPG   C1B63609  14.244   9.483  16.490  0.0604 -0.1302 -0.1821
 3479DOPG   D2B63610  14.501   9.079  16.471  0.2212  0.2480  0.0740
 3479DOPG   C3B63611  14.154   8.704  16.372  0.2334 -0.0187  0.0617
 3479DOPG   C4B63612  14.012   8.360  16.315  0.1311  0.0984 -0.4495
 3480DOPG   GL063613  21.099  16.849  16.792  0.1940 -0.1489 -0.0194
 3480DOPG   PO463614  21.017  17.233  16.574 -0.0842 -0.0856 -0.0755
 3480DOPG   GL163615  20.943  17.076  16.159 -0.4142  0.1718 -0.1011
 3480DOPG   GL263616  21.304  17.073  16.094 -0.3163  0.0860 -0.0538
 3480DOPG   C1A63617  20.831  16.766  15.761  0.1202  0.2200  0.4199
 3480DOPG   D2A63618  20.660  16.410  15.734 -0.1329  0.3348 -0.2040
 3480DOPG   C3A63619  20.812  16.023  15.491  0.0441 -0.2930 -0.0816
 3480DOPG   C4A63620  20.643  15.766  15.220  0.2944  0.1572 -0.1096
 3480DOPG   C1B63621  21.444  16.657  15.888 -0.0483 -0.3653  0.0648
 3480DOPG   D2B63622  21.478  16.304  15.695 -0.2818 -0.0589 -0.2970
 3480DOPG   C3B63623  21.143  16.192  15.792  0.0292  0.0826 -0.0712
 3480DOPG   C4B63624  20.877  15.842  15.943  0.1214  0.0522  0.1875
 3481DOPG   GL063625  12.680  10.015  18.478 -0.1141 -0.0196  0.3415
 3481DOPG   PO463626  12.736  10.013  18.078  0.2493  0.2149  0.1343
 3481DOPG   GL163627  12.566   9.602  17.978 -0.1525  0.2137  0.4557
 3481DOPG   GL263628  12.421   9.603  18.267 -0.2776  0.3596 -0.3108
 3481DOPG   C1A63629  12.187   9.305  17.844  0.2685 -0.0593  0.3404
 3481DOPG   D2A63630  11.876   9.217  17.616 -0.1250 -0.2547  0.0521
 3481DOPG   C3A63631  12.118   9.001  17.348 -0.1660  0.1258 -0.0554
 3481DOPG   C4A63632  12.056   8.692  17.081 -0.1835  0.3992 -0.2782
 3481DOPG   C1B63633  12.476   9.108  18.250  0.1038  0.1188 -0.1331
 3481DOPG   D2B63634  12.821   8.841  18.362  0.3393 -0.0301 -0.1813
 3481DOPG   C3B63635  12.715   8.511  18.722 -0.0953  0.1347 -0.2272
 3481DOPG   C4B63636  12.724   8.585  19.227  0.0802  0.1018 -0.0328
 3482DOPG   GL063637  14.476  18.892  14.567 -0.0604 -0.1942  0.0757
 3482DOPG   PO463638  14.377  19.268  14.557  0.1252 -0.1760 -0.0353
 3482DOPG   GL163639  14.405  19.102  14.146  0.1070  0.0540 -0.1016
 3482DOPG   GL263640  14.243  18.724  14.025 -0.3274 -0.1603  0.2835
 3482DOPG   C1A63641  14.281  19.165  13.758 -0.1718  0.1026  0.1822
 3482DOPG   D2A63642  13.936  19.392  13.417  0.3891  0.0595  0.0763
 3482DOPG   C3A63643  13.860  19.352  13.027 -0.2296 -0.1044 -0.1783
 3482DOPG   C4A63644  13.907  19.380  12.573 -0.0502 -0.1130 -0.0658
 3482DOPG   C1B63645  13.954  18.819  13.718 -0.4295 -0.0706 -0.0694
 3482DOPG   D2B63646  13.603  18.974  13.493  0.2196  0.0516 -0.0016
 3482DOPG   C3B63647  13.414  19.279  13.258  0.2259  0.0389 -0.1221
 3482DOPG   C4B63648  13.080  19.397  13.017 -0.0271 -0.0539 -0.4227
 3483DOPG   GL063649  15.229  17.539  15.128 -0.0519 -0.1688 -0.0042
 3483DOPG   PO463650  15.636  17.246  15.370 -0.1536 -0.0203 -0.0875
 3483DOPG   GL163651  15.678  16.854  15.687  0.3150  0.0642 -0.0030
 3483DOPG   GL263652  15.639  17.093  15.950  0.3038  0.0233 -0.0935
 3483DOPG   C1A63653  15.768  16.615  15.846 -0.0276  0.0432 -0.2570
 3483DOPG   D2A63654  15.861  16.480  16.266 -0.2854 -0.0632 -0.1515
 3483DOPG   C3A63655  15.876  16.166  16.529  0.0514 -0.0093  0.1763
 3483DOPG   C4A63656  15.839  16.186  17.024  0.2867 -0.0288 -0.0700
 3483DOPG   C1B63657  15.651  16.941  16.419  0.1913 -0.0444  0.2559
 3483DOPG   D2B63658  15.646  16.617  16.730 -0.0459  0.1020 -0.1570
 3483DOPG   C3B63659  15.549  16.763  17.082  0.2576  0.0477 -0.2216
 3483DOPG   C4B63660  15.161  16.953  17.058  0.0086 -0.1163  0.1341
 3484DOPG   GL063661  18.464  15.996  15.594  0.0218  0.0104 -0.2667
 3484DOPG   PO463662  18.195  15.906  15.186  0.0460  0.0479 -0.0997
 3484DOPG   GL163663  18.526  15.627  15.263  0.1347  0.1085 -0.0565
 3484DOPG   GL263664  18.789  15.541  15.045  0.0949 -0.0342 -0.4079
 3484DOPG   C1A63665  18.971  15.592  15.487 -0.2099  0.1653  0.3049
 3484DOPG   D2A63666  19.417  15.615  15.578  0.4056  0.2943  0.3142
 3484DOPG   C3A63667  19.374  15.875  15.923  0.0423  0.2654 -0.5490
 3484DOPG   C4A63668  19.264  16.328  16.046 -0.0458 -0.1654  0.0494
 3484DOPG   C1B63669  18.821  15.265  14.765  0.2496  0.2081  0.0947
 3484DOPG   D2B63670  18.640  14.929  14.490 -0.3694  0.0335 -0.1257
 3484DOPG   C3B63671  18.505  15.173  14.034  0.0125  0.0513 -0.2061
 3484DOPG   C4B63672  18.357  15.097  13.612  0.2097 -0.0105  0.2313
 3485DOPG   GL063673  12.896  20.513  17.450  0.0833 -0.0359 -0.1860
 3485DOPG   PO463674  13.095  20.201  17.159  0.1034 -0.2411  0.1899
 3485DOPG   GL163675  13.275  19.761  17.132 -0.0735 -0.0813  0.0411
 3485DOPG   GL263676  13.626  19.772  17.017  0.2779 -0.1711 -0.1448
 3485DOPG   C1A63677  13.378  19.285  17.125  0.0751 -0.1243  0.0857
 3485DOPG   D2A63678  13.237  18.883  17.336  0.1683  0.0267 -0.1375
 3485DOPG   C3A63679  13.336  18.651  16.956  0.2191 -0.0635 -0.4074
 3485DOPG   C4A63680  13.268  18.280  16.747  0.3057 -0.3858 -0.1322
 3485DOPG   C1B63681  13.939  19.535  16.906 -0.0473  0.0126 -0.2389
 3485DOPG   D2B63682  14.361  19.601  16.829 -0.0691 -0.0404  0.0815
 3485DOPG   C3B63683  14.706  19.497  17.162 -0.0760 -0.1406 -0.1054
 3485DOPG   C4B63684  14.727  19.210  17.450  0.0135 -0.0106 -0.0562
 3486DOPG   GL063685  16.127  14.702  15.658 -0.1300 -0.3027  0.0040
 3486DOPG   PO463686  16.161  15.130  15.594  0.0545  0.0764  0.0490
 3486DOPG   GL163687  16.435  15.255  15.959  0.2259 -0.1200  0.1628
 3486DOPG   GL263688  16.585  15.629  16.060  0.0648  0.3722 -0.1278
 3486DOPG   C1A63689  16.484  15.066  16.409  0.1205  0.0065  0.2020
 3486DOPG   D2A63690  16.202  15.197  16.775 -0.0320 -0.1351  0.1111
 3486DOPG   C3A63691  15.791  14.936  16.731  0.3513  0.0367 -0.2737
 3486DOPG   C4A63692  15.713  14.528  16.667 -0.3558  0.4179  0.1293
 3486DOPG   C1B63693  16.503  15.546  16.466  0.5394  0.0785 -0.2963
 3486DOPG   D2B63694  16.474  15.826  16.667  0.3037 -0.0127  0.1402
 3486DOPG   C3B63695  16.360  16.254  16.493 -0.1213  0.0785 -0.1967
 3486DOPG   C4B63696  16.704  16.541  16.647 -0.1037 -0.3463 -0.0721
 3487DOPG   GL063697  19.526  19.465  16.661  0.4213  0.1464  0.1963
 3487DOPG   PO463698  19.541  19.078  16.402 -0.0056  0.0438 -0.1483
 3487DOPG   GL163699  19.237  19.061  16.791 -0.0183  0.1666  0.0792
 3487DOPG   GL263700  19.289  19.136  17.155  0.1929  0.2323 -0.0960
 3487DOPG   C1A63701  18.861  18.878  16.973  0.0150  0.1279 -0.1565
 3487DOPG   D2A63702  18.800  19.008  17.494 -0.3303  0.0969 -0.0799
 3487DOPG   C3A63703  19.140  19.018  17.651 -0.0099 -0.0039  0.1439
 3487DOPG   C4A63704  19.405  19.079  17.947  0.0089 -0.2101  0.0002
 3487DOPG   C1B63705  19.116  18.642  17.251 -0.3342 -0.1054 -0.0002
 3487DOPG   D2B63706  18.771  18.273  17.215  0.1587  0.0675 -0.2206
 3487DOPG   C3B63707  18.452  18.275  16.880 -0.1465  0.0430  0.0959
 3487DOPG   C4B63708  18.076  17.956  16.795 -0.2601  0.0105 -0.0674
 3488DOPG   GL063709  21.336  18.014  16.512 -0.0534 -0.2059 -0.3180
 3488DOPG   PO463710  21.781  17.890  16.448 -0.0654  0.0939  0.0596
 3488DOPG   GL163711  21.743  17.600  16.121  0.3274 -0.0582 -0.1860
 3488DOPG   GL263712  21.853  17.758  15.822 -0.1569  0.5303 -0.0477
 3488DOPG   C1A63713  21.717  17.251  15.750  0.1993 -0.2827  0.3391
 3488DOPG   D2A63714  21.949  16.964  15.573  0.0237 -0.0952  0.2909
 3488DOPG   C3A63715  22.033  16.634  15.786  0.0041  0.2019  0.1397
 3488DOPG   C4A63716  22.179  16.399  16.157  0.0830 -0.1506 -0.0614
 3488DOPG   C1B63717  22.351  17.633  15.544 -0.0059  0.0123  0.1247
 3488DOPG   D2B63718  22.764  17.832  15.486  0.0985 -0.1463  0.0872
 3488DOPG   C3B63719  22.748  18.093  15.231 -0.3118 -0.2043 -0.0557
 3488DOPG   C4B63720  23.004  18.422  14.975 -0.0947  0.0347  0.0351
 3489DOPG   GL063721  11.721  16.378  14.485 -0.2847  0.0501  0.1619
 3489DOPG   PO463722  11.531  16.064  14.550  0.1463  0.1022  0.1195
 3489DOPG   GL163723  11.103  16.079  14.716  0.0313 -0.1688 -0.0376
 3489DOPG   GL263724  10.771  16.136  14.517  0.2979  0.1916  0.0836
 3489DOPG   C1A63725  10.860  15.685  14.813  0.3285 -0.2001  0.0226
 3489DOPG   D2A63726  10.479  15.624  14.974  0.1536  0.0565  0.2320
 3489DOPG   C3A63727  10.147  15.872  14.876 -0.2370  0.0009 -0.0642
 3489DOPG   C4A63728   9.722  15.907  14.891 -0.0621 -0.0620 -0.1284
 3489DOPG   C1B63729  10.486  15.779  14.417 -0.0800 -0.0362  0.1027
 3489DOPG   D2B63730  10.210  15.369  14.523  0.2332 -0.0203  0.1568
 3489DOPG   C3B63731   9.961  15.420  14.812  0.2085  0.3722  0.1690
 3489DOPG   C4B63732   9.717  15.101  14.993 -0.1924  0.2357  0.1932
 3490DOPG   GL063733  18.212  20.274  16.162  0.2854  0.1031 -0.2311
 3490DOPG   PO463734  18.095  20.698  16.316 -0.0774  0.0845 -0.2328
 3490DOPG   GL163735  18.172  20.696  15.975 -0.0697  0.0375  0.5229
 3490DOPG   GL263736  18.277  20.981  15.864  0.0261 -0.1178  0.0526
 3490DOPG   C1A63737  17.958  20.682  15.541  0.1056  0.0376  0.0954
 3490DOPG   D2A63738  17.462  20.551  15.416  0.0336  0.0708  0.2196
 3490DOPG   C3A63739  17.274  20.354  15.622  0.1370  0.1420 -0.1768
 3490DOPG   C4A63740  16.917  20.161  15.490  0.0905 -0.2239  0.0870
 3490DOPG   C1B63741  18.205  21.271  15.521  0.1381  0.3122 -0.0077
 3490DOPG   D2B63742  18.051  21.615  15.396 -0.1236  0.1068 -0.4403
 3490DOPG   C3B63743  18.291  22.061  15.506  0.0918  0.1333  0.1425
 3490DOPG   C4B63744  18.326  22.444  15.624  0.1702  0.0497 -0.1123
 3491DOPG   GL063745  19.305  18.846  15.401 -0.0517 -0.1319  0.3780
 3491DOPG   PO463746  19.270  19.208  15.243 -0.2769  0.0370  0.0334
 3491DOPG   GL163747  19.671  19.359  15.109  0.3028 -0.2184 -0.0613
 3491DOPG   GL263748  19.526  19.622  15.036 -0.0329 -0.2673  0.2601
 3491DOPG   C1A63749  19.939  19.564  14.729 -0.1424 -0.0062  0.0014
 3491DOPG   D2A63750  20.258  19.607  14.508  0.1330  0.0040 -0.1905
 3491DOPG   C3A63751  20.515  19.486  14.225  0.0385 -0.0275  0.0913
 3491DOPG   C4A63752  20.902  19.376  14.070  0.0660 -0.4139  0.0353
 3491DOPG   C1B63753  19.788  19.980  15.205  0.3075  0.2213 -0.1958
 3491DOPG   D2B63754  19.783  20.439  15.330  0.2172 -0.1818  0.1083
 3491DOPG   C3B63755  19.485  20.657  15.270 -0.2393 -0.0987  0.0407
 3491DOPG   C4B63756  19.380  21.113  15.296 -0.0343  0.0026  0.2066
 3492DOPG   GL063757  15.917  20.593  17.162 -0.2108  0.0045 -0.1218
 3492DOPG   PO463758  16.164  20.999  17.084  0.0552  0.1054  0.4079
 3492DOPG   GL163759  16.085  21.214  16.845  0.2599 -0.3463  0.0149
 3492DOPG   GL263760  15.925  21.521  16.881  0.1073 -0.2062 -0.2357
 3492DOPG   C1A63761  16.455  21.363  16.609  0.0111 -0.1889 -0.1156
 3492DOPG   D2A63762  16.584  21.588  16.176  0.0191  0.1498  0.0004
 3492DOPG   C3A63763  16.532  21.226  15.953  0.1305  0.1318 -0.1343
 3492DOPG   C4A63764  16.714  21.107  15.600  0.1291  0.1593  0.1590
 3492DOPG   C1B63765  15.608  21.715  16.855  0.1189 -0.1251  0.0409
 3492DOPG   D2B63766  15.268  22.003  17.043 -0.3279  0.2111  0.0897
 3492DOPG   C3B63767  15.550  22.261  17.342  0.0315  0.2058  0.1245
 3492DOPG   C4B63768  15.766  22.140  17.668  0.0007 -0.2753 -0.0616
 3493DOPG   GL063769   9.899  11.507  16.527  0.2631 -0.2535  0.1172
 3493DOPG   PO463770   9.450  11.389  16.422 -0.1492 -0.0517 -0.1296
 3493DOPG   GL163771   9.045  11.395  16.440  0.4670  0.1522 -0.0909
 3493DOPG   GL263772   8.915  11.429  16.139  0.1463  0.2401  0.1041
 3493DOPG   C1A63773   8.634  11.590  16.596 -0.3697 -0.1479 -0.0706
 3493DOPG   D2A63774   8.102  11.607  16.411  0.4275 -0.2100  0.0321
 3493DOPG   C3A63775   7.891  11.846  16.733  0.1675  0.0681 -0.1410
 3493DOPG   C4A63776   7.684  12.180  16.864  0.0520 -0.0407  0.1039
 3493DOPG   C1B63777   8.860  11.453  15.686  0.0427  0.3673  0.0736
 3493DOPG   D2B63778   8.796  11.481  15.244  0.1951  0.1179  0.0253
 3493DOPG   C3B63779   8.618  11.797  15.019 -0.1648  0.0774 -0.0600
 3493DOPG   C4B63780   8.264  11.929  15.073  0.0231 -0.2901  0.2170
 3494DOPG   GL063781  13.451  12.062  15.893 -0.2475 -0.0822  0.2135
 3494DOPG   PO463782  13.782  12.136  15.760 -0.1631  0.0299 -0.0275
 3494DOPG   GL163783  14.031  12.119  15.422 -0.0212 -0.2322 -0.0848
 3494DOPG   GL263784  14.206  12.291  15.261 -0.0921 -0.0806  0.3038
 3494DOPG   C1A63785  13.839  12.113  14.956 -0.2180  0.1773 -0.0255
 3494DOPG   D2A63786  13.608  11.928  14.523 -0.1683  0.1558 -0.0125
 3494DOPG   C3A63787  13.853  11.993  14.079  0.1740 -0.0939 -0.3274
 3494DOPG   C4A63788  13.921  11.669  13.683 -0.2065 -0.0720 -0.1059
 3494DOPG   C1B63789  14.435  11.981  14.921  0.0437  0.1742  0.2263
 3494DOPG   D2B63790  14.556  11.847  14.512 -0.0800  0.0211 -0.1200
 3494DOPG   C3B63791  14.405  11.433  14.344  0.0727  0.2299  0.0864
 3494DOPG   C4B63792  14.193  11.052  14.065  0.3542 -0.0135 -0.1275
 3495DOPG   GL063793  12.285  15.296  15.535 -0.1895 -0.1250  0.0363
 3495DOPG   PO463794  12.045  15.075  15.261  0.3187  0.2519  0.0999
 3495DOPG   GL163795  11.647  14.980  15.533  0.3912 -0.2179  0.3016
 3495DOPG   GL263796  11.622  14.713  15.308 -0.0810  0.0782 -0.0113
 3495DOPG   C1A63797  11.656  15.015  16.020 -0.0220 -0.1809 -0.0729
 3495DOPG   D2A63798  11.600  14.915  16.397  0.0617 -0.2551 -0.1098
 3495DOPG   C3A63799  11.887  14.674  16.666  0.1215  0.1917 -0.2311
 3495DOPG   C4A63800  12.338  14.661  16.446 -0.1073  0.0104  0.2972
 3495DOPG   C1B63801  11.312  14.704  15.629  0.1789  0.1591 -0.0220
 3495DOPG   D2B63802  11.144  14.814  15.998 -0.0104  0.0420 -0.7654
 3495DOPG   C3B63803  11.090  14.567  16.372  0.2846  0.1088 -0.0071
 3495DOPG   C4B63804  11.498  14.366  16.461  0.0115  0.1490  0.1360
 3496DOPG   GL063805  12.790  17.677  15.129 -0.1008  0.0335 -0.1049
 3496DOPG   PO463806  12.368  17.682  15.226  0.0594 -0.0701 -0.1017
 3496DOPG   GL163807  12.277  17.842  15.780 -0.0078 -0.2552  0.0337
 3496DOPG   GL263808  12.247  17.560  15.987 -0.2363 -0.1194  0.0309
 3496DOPG   C1A63809  12.128  18.182  16.026  0.0694  0.1426  0.3145
 3496DOPG   D2A63810  12.085  18.463  16.320 -0.1123 -0.0190 -0.2137
 3496DOPG   C3A63811  12.355  18.369  16.677 -0.4270 -0.0153 -0.0442
 3496DOPG   C4A63812  12.362  18.151  17.142 -0.1306 -0.0020  0.2489
 3496DOPG   C1B63813  12.186  17.273  16.330 -0.1170 -0.0692  0.0899
 3496DOPG   D2B63814  12.176  17.299  16.767 -0.1158 -0.2037 -0.2115
 3496DOPG   C3B63815  12.148  17.759  16.888 -0.1546  0.0153  0.1473
 3496DOPG   C4B63816  11.911  18.110  16.777  0.2858 -0.1194  0.0578
 3497DOPG   GL063817  21.739  20.293  16.369  0.2459  0.1378 -0.0710
 3497DOPG   PO463818  21.677  19.905  16.212 -0.5428  0.2481 -0.0784
 3497DOPG   GL163819  21.637  20.109  15.902 -0.0240  0.1289  0.1249
 3497DOPG   GL263820  21.455  20.448  15.985 -0.2701  0.1373  0.1183
 3497DOPG   C1A63821  21.641  20.212  15.424 -0.3292 -0.1468  0.0580
 3497DOPG   D2A63822  21.550  20.564  15.164 -0.1747  0.0452 -0.1788
 3497DOPG   C3A63823  21.765  21.030  15.076  0.0482  0.0160 -0.3166
 3497DOPG   C4A63824  21.833  21.503  15.308  0.1601  0.1508  0.0885
 3497DOPG   C1B63825  21.219  20.382  15.611 -0.3075 -0.1745 -0.0091
 3497DOPG   D2B63826  20.805  20.460  15.245 -0.2649  0.1737  0.0913
 3497DOPG   C3B63827  20.726  20.773  14.838  0.0292 -0.3145 -0.1270
 3497DOPG   C4B63828  20.536  21.102  14.569 -0.3092 -0.0407 -0.1693
 3498DOPG   GL063829  17.476  13.011  16.886  0.1792  0.1176 -0.1108
 3498DOPG   PO463830  17.425  13.387  16.687  0.0342  0.0125  0.5235
 3498DOPG   GL163831  17.776  13.262  16.350  0.3231  0.2086  0.1346
 3498DOPG   GL263832  17.930  13.404  16.082 -0.0115 -0.0278 -0.1544
 3498DOPG   C1A63833  18.007  12.849  16.159 -0.1179 -0.2490 -0.2079
 3498DOPG   D2A63834  17.929  12.670  15.775  0.3853 -0.1722 -0.4508
 3498DOPG   C3A63835  18.266  12.439  15.695 -0.0012 -0.0395  0.0558
 3498DOPG   C4A63836  18.391  12.166  16.000 -0.0966 -0.1297  0.1140
 3498DOPG   C1B63837  17.999  13.168  15.652  0.4609  0.2439  0.0699
 3498DOPG   D2B63838  18.178  12.940  15.356  0.1257  0.0443  0.0777
 3498DOPG   C3B63839  18.571  12.782  15.459 -0.0572 -0.4842 -0.2441
 3498DOPG   C4B63840  18.902  12.582  15.400 -0.0441  0.0376  0.2193
 3499DOPG   GL063841  11.670  16.222  19.107  0.2583 -0.0456  0.4206
 3499DOPG   PO463842  11.348  16.254  18.753  0.2897  0.0746  0.2668
 3499DOPG   GL163843  11.598  16.153  18.530  0.1623  0.0538 -0.3231
 3499DOPG   GL263844  11.502  15.905  18.368 -0.2076 -0.1696  0.1208
 3499DOPG   C1A63845  11.871  16.450  18.254  0.2358 -0.0351  0.0915
 3499DOPG   D2A63846  11.807  16.832  18.093  0.0869 -0.2170  0.1051
 3499DOPG   C3A63847  12.024  17.124  17.893  0.0861  0.0807  0.0922
 3499DOPG   C4A63848  12.289  17.429  17.896 -0.1947  0.2180  0.3412
 3499DOPG   C1B63849  11.607  15.998  18.016 -0.0824 -0.0872  0.0360
 3499DOPG   D2B63850  11.846  16.180  17.626 -0.0257  0.1941  0.3731
 3499DOPG   C3B63851  11.888  15.994  17.170  0.0928  0.1714 -0.1393
 3499DOPG   C4B63852  12.230  15.772  17.036 -0.1198  0.0345  0.0035
 3500DOPG   GL063853   8.067  19.452  16.626 -0.1921 -0.0398 -0.2245
 3500DOPG   PO463854   8.146  18.992  16.517 -0.0012 -0.1000  0.0586
 3500DOPG   GL163855   7.871  18.822  16.197 -0.0554  0.0297  0.3682
 3500DOPG   GL263856   7.614  18.937  16.040 -0.6630  0.1090  0.2447
 3500DOPG   C1A63857   7.858  18.505  15.897  0.2300 -0.0414 -0.1173
 3500DOPG   D2A63858   7.733  18.068  15.954 -0.0491  0.0607  0.1155
 3500DOPG   C3A63859   7.780  17.683  15.659 -0.0220  0.2794 -0.0906
 3500DOPG   C4A63860   7.656  17.324  15.413 -0.3964  0.0268 -0.0671
 3500DOPG   C1B63861   7.807  19.190  15.786  0.3400  0.3236 -0.2691
 3500DOPG   D2B63862   7.982  19.385  15.564  0.1249 -0.1247 -0.0326
 3500DOPG   C3B63863   8.015  19.773  15.260  0.0396 -0.0141  0.3725
 3500DOPG   C4B63864   8.289  19.901  15.007  0.0931  0.1739 -0.1628
 3501DOPG   GL063865  11.753  16.921  14.350 -0.1714 -0.0518 -0.1586
 3501DOPG   PO463866  11.823  17.167  14.700 -0.0701  0.1870 -0.4440
 3501DOPG   GL163867  11.363  17.108  14.816  0.0386  0.0365  0.3225
 3501DOPG   GL263868  11.236  17.442  14.879 -0.2734 -0.1269 -0.0450
 3501DOPG   C1A63869  10.899  17.168  14.830  0.3177  0.0054  0.2028
 3501DOPG   D2A63870  10.398  17.315  14.789 -0.1626  0.1685  0.0705
 3501DOPG   C3A63871  10.222  16.925  14.610  0.2768 -0.0586 -0.3699
 3501DOPG   C4A63872   9.827  16.607  14.647  0.0433  0.0385  0.0879
 3501DOPG   C1B63873  10.982  17.651  14.555 -0.0322 -0.0136 -0.3195
 3501DOPG   D2B63874  10.808  17.806  14.212 -0.2113 -0.0037 -0.0392
 3501DOPG   C3B63875  10.340  17.641  14.120  0.1240  0.0737 -0.2776
 3501DOPG   C4B63876   9.978  17.347  14.361  0.1594  0.1177 -0.1919
 3502DOPG   GL063877  20.608  20.579  16.928  0.2351 -0.1902  0.0208
 3502DOPG   PO463878  20.306  20.459  16.696  0.0225 -0.0245  0.0068
 3502DOPG   GL163879  20.405  20.934  16.620 -0.1717  0.2042  0.0138
 3502DOPG   GL263880  20.580  21.255  16.493 -0.3086  0.3783  0.1223
 3502DOPG   C1A63881  20.654  21.145  17.035  0.3909 -0.2067  0.0822
 3502DOPG   D2A63882  20.562  21.476  17.308  0.2743 -0.0349 -0.4255
 3502DOPG   C3A63883  20.898  21.817  17.491 -0.1030 -0.0775 -0.1194
 3502DOPG   C4A63884  20.947  22.307  17.579 -0.2638 -0.3287 -0.3362
 3502DOPG   C1B63885  20.707  21.086  16.100 -0.0906  0.0290  0.0880
 3502DOPG   D2B63886  20.965  21.269  15.920 -0.1193  0.1945 -0.0547
 3502DOPG   C3B63887  21.247  21.632  16.091  0.2465  0.2413  0.0685
 3502DOPG   C4B63888  21.539  21.779  16.000 -0.0449 -0.2319 -0.0649
 3503DOPG   GL063889   8.957  13.088  16.930 -0.2828 -0.0642 -0.0654
 3503DOPG   PO463890   8.767  13.526  16.786  0.1565  0.1224  0.0465
 3503DOPG   GL163891   8.398  13.250  16.623 -0.2713 -0.0544 -0.0310
 3503DOPG   GL263892   8.475  12.888  16.699  0.1285 -0.1433  0.2983
 3503DOPG   C1A63893   7.950  13.068  16.643  0.1701 -0.2175  0.1658
 3503DOPG   D2A63894   7.532  13.211  16.545 -0.0094  0.1418  0.2123
 3503DOPG   C3A63895   7.400  13.124  16.147  0.2289 -0.2486  0.0332
 3503DOPG   C4A63896   7.121  13.559  15.985  0.0921 -0.1910  0.2360
 3503DOPG   C1B63897   8.066  12.577  16.598  0.2600  0.2998  0.0010
 3503DOPG   D2B63898   7.790  12.263  16.379 -0.0816  0.0144  0.0345
 3503DOPG   C3B63899   7.463  12.307  16.094 -0.0486 -0.1207 -0.0250
 3503DOPG   C4B63900   7.235  12.648  15.898  0.0171 -0.1544  0.1455
 3504DOPG   GL063901  15.246  11.602  16.575 -0.4778 -0.2361  0.0431
 3504DOPG   PO463902  15.494  11.284  16.557 -0.0058  0.0349  0.0828
 3504DOPG   GL163903  15.753  10.912  16.552  0.1559 -0.3689 -0.2547
 3504DOPG   GL263904  15.783  10.838  16.849 -0.1071 -0.1224 -0.0111
 3504DOPG   C1A63905  15.863  10.783  16.180 -0.1335  0.2254  0.2182
 3504DOPG   D2A63906  15.860  10.415  16.037  0.1814  0.1375 -0.3205
 3504DOPG   C3A63907  16.174  10.438  15.687  0.2953  0.3397  0.4461
 3504DOPG   C4A63908  16.568  10.860  15.664  0.1896  0.0399  0.0976
 3504DOPG   C1B63909  15.779  10.838  17.284  0.2716  0.2686  0.0404
 3504DOPG   D2B63910  15.853  10.451  17.518  0.1523 -0.0834 -0.0598
 3504DOPG   C3B63911  15.848  10.399  17.972  0.1888  0.0876 -0.0343
 3504DOPG   C4B63912  15.718  10.292  18.362  0.2958  0.1913 -0.3551
 3505DOPG   GL063913  14.646  11.469  16.584  0.2043  0.0934  0.2113
 3505DOPG   PO463914  15.003  11.196  16.672  0.0719 -0.2351  0.2858
 3505DOPG   GL163915  15.194  10.829  16.567  0.1315  0.0333  0.0130
 3505DOPG   GL263916  15.206  10.611  16.748  0.0663  0.3608 -0.0973
 3505DOPG   C1A63917  15.432  10.472  16.292 -0.0439  0.3421 -0.2222
 3505DOPG   D2A63918  15.364  10.436  15.917  0.0511 -0.1056  0.0374
 3505DOPG   C3A63919  15.025  10.215  15.816  0.0445 -0.0382 -0.3522
 3505DOPG   C4A63920  15.054   9.929  15.500  0.1914 -0.0082 -0.0903
 3505DOPG   C1B63921  15.330  10.189  16.675  0.0492 -0.1238 -0.1311
 3505DOPG   D2B63922  15.488   9.898  16.372  0.0379 -0.0811  0.0258
 3505DOPG   C3B63923  15.497   9.974  15.884 -0.2462 -0.0184 -0.0144
 3505DOPG   C4B63924  15.478   9.657  15.444  0.0400  0.0780 -0.1175
 3506DOPG   GL063925  16.547  13.809  15.403  0.0236  0.0927 -0.0146
 3506DOPG   PO463926  16.651  14.138  15.235 -0.1419 -0.1335  0.1010
 3506DOPG   GL163927  16.946  14.285  14.848 -0.0735 -0.1258 -0.1064
 3506DOPG   GL263928  16.940  14.610  14.670 -0.2730 -0.0958  0.2165
 3506DOPG   C1A63929  16.738  14.141  14.444  0.0380  0.2218  0.1485
 3506DOPG   D2A63930  16.536  13.784  14.113  0.2970 -0.2691  0.3548
 3506DOPG   C3A63931  16.329  13.937  13.769 -0.0379  0.2460  0.1538
 3506DOPG   C4A63932  16.046  13.955  13.454 -0.2489  0.0772  0.1818
 3506DOPG   C1B63933  16.683  14.610  14.289 -0.1870 -0.2000 -0.1315
 3506DOPG   D2B63934  16.790  14.843  13.838  0.1471  0.2504  0.0497
 3506DOPG   C3B63935  17.240  14.780  13.675 -0.1142 -0.2997  0.0276
 3506DOPG   C4B63936  17.553  14.650  13.383  0.0055 -0.5932  0.0776
 3507DOPG   GL063937  12.546  14.887  15.512 -0.2198  0.2115 -0.1274
 3507DOPG   PO463938  12.732  15.001  15.890 -0.0279  0.1288 -0.0790
 3507DOPG   GL163939  12.243  15.035  15.956 -0.0056 -0.0189 -0.0596
 3507DOPG   GL263940  12.121  14.824  15.706  0.1281 -0.1218  0.1186
 3507DOPG   C1A63941  12.045  15.095  16.342 -0.0483  0.4197  0.1805
 3507DOPG   D2A63942  12.264  15.192  16.760 -0.2231  0.0810 -0.0600
 3507DOPG   C3A63943  12.344  14.912  17.019 -0.1436  0.1184  0.0620
 3507DOPG   C4A63944  12.544  14.531  17.230  0.0898 -0.1236 -0.0036
 3507DOPG   C1B63945  11.955  14.631  16.134 -0.1161 -0.0976 -0.1510
 3507DOPG   D2B63946  12.023  14.272  16.277  0.3473  0.1883  0.0127
 3507DOPG   C3B63947  11.813  13.885  16.382 -0.0307  0.0814 -0.1517
 3507DOPG   C4B63948  11.729  13.412  16.450 -0.2237 -0.1743  0.3463
 3508DOPG   GL063949  10.124  16.102  17.858 -0.1262  0.1882 -0.2419
 3508DOPG   PO463950  10.533  16.547  17.907 -0.2371 -0.0621  0.4710
 3508DOPG   GL163951  10.687  16.954  17.649  0.1041 -0.3274 -0.2569
 3508DOPG   GL263952  10.332  17.020  17.470  0.0911  0.3898  0.2724
 3508DOPG   C1A63953  10.998  17.285  17.696  0.1641 -0.3668  0.2468
 3508DOPG   D2A63954  11.450  17.314  17.579  0.0344 -0.2153 -0.0333
 3508DOPG   C3A63955  11.871  17.144  17.423  0.1659  0.1437 -0.0066
 3508DOPG   C4A63956  12.240  16.908  17.367 -0.1294  0.3276 -0.0055
 3508DOPG   C1B63957  10.591  16.925  17.084 -0.0276 -0.1947  0.0390
 3508DOPG   D2B63958  10.988  16.825  17.162 -0.0402 -0.2150 -0.1575
 3508DOPG   C3B63959  11.219  16.852  17.573 -0.4904  0.2296  0.1530
 3508DOPG   C4B63960  11.331  17.021  17.960  0.2155  0.3243 -0.0386
 3509DOPG   GL063961  14.379  19.750  14.677 -0.0824 -0.0275 -0.0382
 3509DOPG   PO463962  14.407  19.874  15.115  0.0462 -0.0893 -0.1919
 3509DOPG   GL163963  14.451  20.309  14.893 -0.0758 -0.1115  0.0747
 3509DOPG   GL263964  14.396  20.358  14.601 -0.0772  0.1128  0.3672
 3509DOPG   C1A63965  14.508  20.818  14.869  0.1223 -0.2920  0.4063
 3509DOPG   D2A63966  14.611  21.103  14.732 -0.2817  0.1185 -0.0185
 3509DOPG   C3A63967  14.958  21.147  14.601  0.1746 -0.0099  0.1903
 3509DOPG   C4A63968  15.037  21.347  14.252  0.3128  0.0075  0.0713
 3509DOPG   C1B63969  14.727  20.589  14.452  0.0447  0.2538 -0.4533
 3509DOPG   D2B63970  15.128  20.685  14.495  0.0548 -0.0897 -0.0675
 3509DOPG   C3B63971  15.311  20.971  14.240 -0.1217  0.0005  0.0660
 3509DOPG   C4B63972  15.605  20.924  13.773 -0.1933 -0.0090  0.1204
 3510DOPG   GL063973  10.207  21.669  16.335  0.1854 -0.0616  0.0202
 3510DOPG   PO463974  10.470  21.812  16.017 -0.2553  0.1069  0.5117
 3510DOPG   GL163975  10.370  21.381  15.865 -0.1866  0.0636 -0.3943
 3510DOPG   GL263976  10.033  21.309  15.895  0.0200 -0.0746  0.1474
 3510DOPG   C1A63977  10.182  21.172  15.416  0.1247 -0.4737 -0.5041
 3510DOPG   D2A63978  10.180  20.908  15.075 -0.0773  0.2620  0.0581
 3510DOPG   C3A63979  10.264  20.931  14.656 -0.0118 -0.1828  0.0152
 3510DOPG   C4A63980  10.620  21.199  14.333  0.0416  0.0534 -0.0879
 3510DOPG   C1B63981   9.968  21.749  15.635  0.1638  0.1514  0.1364
 3510DOPG   D2B63982   9.971  22.061  15.364  0.2319  0.1317 -0.0207
 3510DOPG   C3B63983  10.323  22.080  15.038  0.0773  0.0422 -0.0385
 3510DOPG   C4B63984  10.646  21.921  14.912 -0.1382 -0.1842  0.0337
 3511DOPG   GL063985   4.979  21.052  15.075 -0.3509 -0.1444 -0.1591
 3511DOPG   PO463986   5.064  20.602  15.009 -0.0843 -0.1263  0.0804
 3511DOPG   GL163987   5.417  20.480  15.062 -0.2932 -0.0176  0.0650
 3511DOPG   GL263988   5.482  20.866  15.058 -0.1109 -0.2590 -0.1218
 3511DOPG   C1A63989   5.603  20.167  14.885 -0.0105 -0.0727  0.1032
 3511DOPG   D2A63990   5.798  19.887  14.491  0.1604 -0.0457  0.2955
 3511DOPG   C3A63991   6.083  20.008  14.194  0.0301  0.0110  0.0324
 3511DOPG   C4A63992   6.530  20.112  14.314 -0.2279  0.0748 -0.0027
 3511DOPG   C1B63993   5.824  20.631  14.795 -0.0127  0.1600  0.0682
 3511DOPG   D2B63994   6.253  20.591  14.568 -0.2059 -0.0205 -0.3233
 3511DOPG   C3B63995   6.315  20.941  14.281  0.6072  0.1614  0.0216
 3511DOPG   C4B63996   6.047  21.016  13.849 -0.0226 -0.2881 -0.3031
 3512DOPG   GL063997  11.983  15.312  14.786  0.0525 -0.0241 -0.3163
 3512DOPG   PO463998  11.625  15.263  15.123  0.6025  0.0374  0.0968
 3512DOPG   GL163999  11.315  15.364  15.320  0.0425  0.1005 -0.2196
 3512DOPG   GL264000  11.126  15.559  15.198  0.1051  0.0493  0.0991
 3512DOPG   C1A64001  11.076  15.167  15.658  0.3503  0.0272  0.2063
 3512DOPG   D2A64002  10.852  14.846  15.553  0.1540  0.2534  0.0024
 3512DOPG   C3A64003  10.988  14.347  15.425  0.1598 -0.8362 -0.0843
 3512DOPG   C4A64004  11.047  14.031  15.166 -0.1023  0.0487 -0.3086
 3512DOPG   C1B64005  10.985  15.948  15.205  0.1599  0.1521  0.0219
 3512DOPG   D2B64006  10.789  16.071  15.597  0.1713 -0.0802  0.0351
 3512DOPG   C3B64007  10.367  16.057  15.597  0.0516  0.0314 -0.1993
 3512DOPG   C4B64008   9.941  16.069  15.546  0.1767  0.1802  0.2373
 3513DOPG   GL064009   8.821  12.902  17.645  0.0426 -0.1768 -0.2249
 3513DOPG   PO464010   8.848  13.317  17.669  0.0812  0.1172  0.3622
 3513DOPG   GL164011   8.573  13.095  18.021 -0.1956 -0.0178  0.2950
 3513DOPG   GL264012   8.361  13.219  18.285  0.1598 -0.1903  0.0595
 3513DOPG   C1A64013   8.442  12.636  18.111  0.0975 -0.0285 -0.1171
 3513DOPG   D2A64014   8.024  12.328  18.246  0.0581  0.1729 -0.2283
 3513DOPG   C3A64015   8.027  11.970  18.548 -0.1216 -0.1206 -0.3743
 3513DOPG   C4A64016   7.768  11.706  18.693 -0.1923 -0.3322 -0.1532
 3513DOPG   C1B64017   8.144  12.905  18.450 -0.1382  0.1934  0.2802
 3513DOPG   D2B64018   7.783  12.909  18.795  0.3908 -0.0545  0.0361
 3513DOPG   C3B64019   7.550  12.573  19.165 -0.3662  0.5340  0.1864
 3513DOPG   C4B64020   7.168  12.756  19.470 -0.2017 -0.1581  0.0822
 3514DOPG   GL064021  14.837  19.231  14.804  0.0230 -0.1075 -0.2615
 3514DOPG   PO464022  15.284  19.415  15.023  0.2789 -0.1599  0.2253
 3514DOPG   GL164023  15.540  19.761  14.920  0.0496 -0.2970 -0.0344
 3514DOPG   GL264024  15.583  19.639  14.602  0.1212 -0.3543  0.0413
 3514DOPG   C1A64025  15.791  20.044  14.719 -0.1946  0.1264  0.0703
 3514DOPG   D2A64026  16.110  20.346  14.372  0.0146 -0.0541 -0.1151
 3514DOPG   C3A64027  15.955  20.381  13.975 -0.1157 -0.0238 -0.2804
 3514DOPG   C4A64028  16.006  20.612  13.708  0.0759  0.2182  0.1448
 3514DOPG   C1B64029  15.511  19.943  14.302  0.2714  0.0134 -0.0303
 3514DOPG   D2B64030  15.018  20.210  14.234  0.0921 -0.0374  0.3291
 3514DOPG   C3B64031  14.759  20.473  13.934  0.1239 -0.0372 -0.0198
 3514DOPG   C4B64032  14.595  20.805  14.047 -0.0157  0.1028  0.0949
 3515DOPG   GL064033  21.828  20.220  17.308  0.0098 -0.0807 -0.2929
 3515DOPG   PO464034  22.136  20.551  17.378 -0.0491  0.3411 -0.1208
 3515DOPG   GL164035  21.922  20.955  17.240  0.3656 -0.3479 -0.1700
 3515DOPG   GL264036  22.192  21.147  17.089  0.3618  0.1329  0.3188
 3515DOPG   C1A64037  21.799  21.359  16.993 -0.1091 -0.1517  0.2106
 3515DOPG   D2A64038  21.540  21.582  16.983 -0.0315  0.2988  0.1810
 3515DOPG   C3A64039  21.593  21.921  16.647 -0.2102 -0.2672 -0.2114
 3515DOPG   C4A64040  21.689  22.302  16.430 -0.1387 -0.2098 -0.0519
 3515DOPG   C1B64041  22.387  21.506  17.028 -0.2949  0.0850 -0.0981
 3515DOPG   D2B64042  22.777  21.727  16.816  0.1570 -0.0405  0.0025
 3515DOPG   C3B64043  23.086  21.921  16.937  0.0527  0.2284 -0.2237
 3515DOPG   C4B64044  23.279  22.094  17.211 -0.1050  0.1559  0.1222
 3516DOPG   GL064045  17.485  16.276  14.303  0.2845 -0.3123 -0.0128
 3516DOPG   PO464046  17.771  15.959  14.394 -0.1727  0.1660 -0.3835
 3516DOPG   GL164047  17.972  16.006  14.001  0.1232  0.0493  0.2890
 3516DOPG   GL264048  18.011  16.349  14.203 -0.0179 -0.0705  0.1328
 3516DOPG   C1A64049  18.364  15.759  13.875 -0.3877 -0.1158  0.0528
 3516DOPG   D2A64050  18.805  15.534  13.881 -0.1203  0.0224  0.0382
 3516DOPG   C3A64051  18.915  15.622  13.500  0.1648 -0.0094  0.0071
 3516DOPG   C4A64052  18.980  15.626  13.089 -0.2269 -0.0669  0.4391
 3516DOPG   C1B64053  18.241  16.385  13.821  0.2221  0.2969 -0.1588
 3516DOPG   D2B64054  18.557  16.169  13.638 -0.2786 -0.2941 -0.3133
 3516DOPG   C3B64055  18.916  16.195  13.549  0.1419  0.1631 -0.2970
 3516DOPG   C4B64056  19.109  16.418  13.195  0.2588 -0.1599 -0.0043
 3517DOPG   GL064057   8.815  21.745  16.459 -0.5880 -0.1152  0.6989
 3517DOPG   PO464058   9.011  21.868  16.828  0.0175 -0.1729  0.0369
 3517DOPG   GL164059   9.185  22.065  16.411 -0.0184 -0.0226 -0.1663
 3517DOPG   GL264060   9.484  22.153  16.428 -0.1128  0.1575 -0.1346
 3517DOPG   C1A64061   9.258  22.161  15.947  0.3859 -0.2742 -0.2725
 3517DOPG   D2A64062   9.541  22.080  15.709  0.2097 -0.0718 -0.0641
 3517DOPG   C3A64063   9.508  22.315  15.339 -0.2747  0.0462 -0.2794
 3517DOPG   C4A64064   9.680  22.356  14.903 -0.1627 -0.2377 -0.1049
 3517DOPG   C1B64065   9.604  22.531  16.157 -0.0385  0.2324  0.0736
 3517DOPG   D2B64066   9.789  22.690  15.703 -0.1113 -0.0127  0.0805
 3517DOPG   C3B64067   9.953  23.035  15.696  0.1116 -0.1299  0.2740
 3517DOPG   C4B64068  10.145  23.366  15.982 -0.4195 -0.2987  0.0101
 3518DOPG   GL064069   9.701  18.481  17.743 -0.1031  0.0385 -0.1187
 3518DOPG   PO464070  10.142  18.345  17.578  0.2426 -0.0327  0.0463
 3518DOPG   GL164071  10.452  18.176  17.373 -0.1663  0.1156 -0.3668
 3518DOPG   GL264072  10.215  17.940  17.262 -0.0355  0.0034 -0.3265
 3518DOPG   C1A64073  10.720  17.908  17.179 -0.1345 -0.2927  0.0249
 3518DOPG   D2A64074  10.874  17.960  16.842  0.2473  0.0540 -0.0703
 3518DOPG   C3A64075  11.069  17.594  16.682  0.3240 -0.2229  0.2364
 3518DOPG   C4A64076  11.061  17.093  16.683  0.0572 -0.4251 -0.1034
 3518DOPG   C1B64077  10.368  17.876  16.792 -0.0685 -0.1163 -0.3055
 3518DOPG   D2B64078  10.634  17.917  16.404  0.2314 -0.3393  0.2448
 3518DOPG   C3B64079  11.084  17.991  16.395  0.1257  0.3662  0.0252
 3518DOPG   C4B64080  11.447  17.850  16.163  0.2402 -0.1663 -0.1903
 3519DOPG   GL064081  20.823  17.822  15.511 -0.1239  0.1054  0.0230
 3519DOPG   PO464082  20.591  17.412  15.583  0.2415  0.0747  0.0371
 3519DOPG   GL164083  20.696  17.040  15.387  0.1929 -0.1681 -0.0646
 3519DOPG   GL264084  20.514  16.902  15.100  0.1712  0.1863 -0.0738
 3519DOPG   C1A64085  20.968  16.839  15.097 -0.1235  0.1077 -0.3170
 3519DOPG   D2A64086  21.460  16.743  14.919  0.1295  0.2353 -0.0885
 3519DOPG   C3A64087  21.667  17.089  15.061  0.3568  0.0742  0.2173
 3519DOPG   C4A64088  21.954  17.357  15.322 -0.3254 -0.1264 -0.2250
 3519DOPG   C1B64089  20.453  16.502  15.218 -0.3324 -0.0913 -0.1125
 3519DOPG   D2B64090  20.201  16.149  15.118  0.1594  0.0631 -0.2301
 3519DOPG   C3B64091  20.270  15.662  14.917 -0.0768  0.1465 -0.3141
 3519DOPG   C4B64092  20.289  15.210  14.817  0.1576 -0.1733 -0.1628
 3520DOPG   GL064093  16.569  18.211  14.345 -0.4267  0.2452  0.0845
 3520DOPG   PO464094  16.340  17.808  14.305 -0.1524  0.0561  0.0058
 3520DOPG   GL164095  16.134  18.097  13.960 -0.3568  0.1643 -0.0908
 3520DOPG   GL264096  16.340  18.379  13.983  0.2093  0.0566  0.0069
 3520DOPG   C1A64097  15.721  18.345  13.774  0.0949  0.1345 -0.0512
 3520DOPG   D2A64098  15.343  18.375  13.460 -0.1616 -0.2601 -0.0088
 3520DOPG   C3A64099  15.270  18.637  13.088  0.1154 -0.0419  0.1584
 3520DOPG   C4A64100  15.406  18.626  12.610  0.2710  0.1075  0.2111
 3520DOPG   C1B64101  16.189  18.459  13.664  0.3244  0.0310  0.4046
 3520DOPG   D2B64102  15.960  18.348  13.292  0.0479  0.1315 -0.2822
 3520DOPG   C3B64103  15.922  18.633  12.952  0.0188  0.2360 -0.3412
 3520DOPG   C4B64104  15.924  18.667  12.487 -0.1132 -0.1437  0.1971
 3521DOPG   GL064105  19.226  19.878  16.517  0.1143  0.2275  0.1274
 3521DOPG   PO464106  19.158  19.792  16.022  0.2472  0.1440 -0.1683
 3521DOPG   GL164107  19.037  20.103  15.720 -0.2551  0.1723  0.1844
 3521DOPG   GL264108  19.326  20.338  15.646 -0.1789  0.1198 -0.2250
 3521DOPG   C1A64109  18.882  20.376  15.281 -0.1932 -0.0606 -0.2265
 3521DOPG   D2A64110  18.466  20.397  15.047 -0.0331  0.2967  0.2640
 3521DOPG   C3A64111  18.129  20.702  14.944  0.1488  0.0254  0.0605
 3521DOPG   C4A64112  18.084  21.150  15.044 -0.3540  0.1718  0.3245
 3521DOPG   C1B64113  19.249  20.062  15.217  0.2808 -0.3063  0.1709
 3521DOPG   D2B64114  19.180  20.372  14.869  0.2688 -0.0181 -0.2911
 3521DOPG   C3B64115  19.642  20.449  14.713  0.5567  0.0611 -0.3038
 3521DOPG   C4B64116  19.746  20.709  14.459 -0.4276  0.0304  0.3305
 3522DOPG   GL064117  17.396  15.712  14.624  0.1376 -0.0348 -0.5955
 3522DOPG   PO464118  17.196  15.402  14.334 -0.0771  0.0495 -0.4014
 3522DOPG   GL164119  16.881  15.310  14.123  0.1265  0.1287 -0.0411
 3522DOPG   GL264120  16.704  15.116  14.228  0.0638 -0.2709  0.1325
 3522DOPG   C1A64121  16.653  15.483  13.772 -0.1024 -0.2495 -0.1075
 3522DOPG   D2A64122  16.755  15.590  13.388 -0.1946 -0.0988  0.1431
 3522DOPG   C3A64123  16.496  15.461  13.094 -0.1138  0.0425  0.3318
 3522DOPG   C4A64124  16.122  15.402  13.083  0.2242  0.4071 -0.1029
 3522DOPG   C1B64125  16.373  15.097  13.956 -0.0558 -0.4575  0.0247
 3522DOPG   D2B64126  16.321  15.098  13.586 -0.3707 -0.2166  0.1246
 3522DOPG   C3B64127  15.991  14.955  13.420  0.1522 -0.0648 -0.1146
 3522DOPG   C4B64128  15.629  14.905  13.371  0.0174 -0.3546  0.0499
 3523DOPG   GL064129   6.019  22.466  15.083  0.1641  0.2523  0.1922
 3523DOPG   PO464130   5.952  22.877  15.353  0.1201  0.0805 -0.1565
 3523DOPG   GL164131   6.409  22.790  15.409  0.0933 -0.1187  0.1089
 3523DOPG   GL264132   6.385  22.452  15.464  0.1067 -0.1300 -0.0789
 3523DOPG   C1A64133   6.834  22.561  15.389  0.2725 -0.4118 -0.1534
 3523DOPG   D2A64134   7.046  22.584  15.047 -0.0584 -0.3367  0.0721
 3523DOPG   C3A64135   7.490  22.450  15.018  0.1908 -0.2271  0.0389
 3523DOPG   C4A64136   7.774  22.434  14.770  0.0214  0.0013  0.1881
 3523DOPG   C1B64137   6.545  22.087  15.211  0.1397  0.1506 -0.1905
 3523DOPG   D2B64138   6.968  22.078  14.988 -0.0884  0.2097  0.1456
 3523DOPG   C3B64139   7.361  21.934  15.076 -0.2516  0.1602 -0.0100
 3523DOPG   C4B64140   7.718  21.980  15.371  0.1027  0.1528  0.0097
 3524DOPG   GL064141  17.677  15.441  14.240  0.0561  0.2039  0.1093
 3524DOPG   PO464142  17.924  15.233  14.584 -0.1739  0.4010 -0.0084
 3524DOPG   GL164143  18.117  15.025  14.357 -0.2639  0.0538  0.3952
 3524DOPG   GL264144  18.144  14.748  14.552 -0.2293  0.1285 -0.0896
 3524DOPG   C1A64145  18.297  14.719  14.085 -0.0660  0.1929 -0.2716
 3524DOPG   D2A64146  18.092  14.592  13.610 -0.3610  0.1500  0.1566
 3524DOPG   C3A64147  18.051  14.698  13.256 -0.0014 -0.1893 -0.0291
 3524DOPG   C4A64148  17.771  14.831  12.866  0.1028  0.0931 -0.1520
 3524DOPG   C1B64149  18.047  14.354  14.753 -0.1851  0.2327  0.1349
 3524DOPG   D2B64150  18.206  13.982  14.920  0.2624  0.0112 -0.2010
 3524DOPG   C3B64151  18.558  13.902  14.962 -0.1409 -0.1867 -0.0923
 3524DOPG   C4B64152  18.964  14.151  14.961 -0.2568 -0.4064  0.3510
 3525DOPG   GL064153  11.745  20.028  16.975 -0.2545 -0.2521 -0.0261
 3525DOPG   PO464154  11.997  20.047  17.266 -0.0358  0.1233 -0.0698
 3525DOPG   GL164155  12.371  19.772  17.048  0.3148 -0.0787  0.3708
 3525DOPG   GL264156  12.130  19.721  16.944 -0.0421  0.0340 -0.1827
 3525DOPG   C1A64157  12.430  19.482  16.536 -0.2380 -0.1001  0.1945
 3525DOPG   D2A64158  12.262  19.630  16.081 -0.3603  0.3765 -0.0728
 3525DOPG   C3A64159  11.888  19.599  15.920 -0.2409 -0.3097  0.0082
 3525DOPG   C4A64160  11.812  19.144  15.727  0.1339 -0.1406  0.0543
 3525DOPG   C1B64161  12.112  19.305  16.932  0.0836  0.0690 -0.0249
 3525DOPG   D2B64162  12.045  18.937  17.167 -0.4994 -0.1138 -0.0613
 3525DOPG   C3B64163  11.886  18.496  17.112  0.0499  0.1743 -0.3492
 3525DOPG   C4B64164  11.842  18.067  17.270  0.1737 -0.2829  0.0126
 3526DOPG   GL064165   5.204  22.141  13.828  0.2110  0.0735 -0.3142
 3526DOPG   PO464166   5.065  22.304  14.183 -0.0453 -0.0963 -0.0705
 3526DOPG   GL164167   5.341  22.003  14.386 -0.3823  0.0459 -0.2025
 3526DOPG   GL264168   5.545  21.918  14.139 -0.0978  0.2087  0.2170
 3526DOPG   C1A64169   5.592  21.693  14.579  0.1542  0.0796 -0.0183
 3526DOPG   D2A64170   5.872  21.414  14.385 -0.2751  0.0884 -0.1665
 3526DOPG   C3A64171   5.823  20.990  14.320 -0.2441  0.4167 -0.1850
 3526DOPG   C4A64172   5.475  20.728  14.438  0.0745  0.0534  0.3583
 3526DOPG   C1B64173   5.581  21.518  13.968 -0.2205 -0.0659 -0.4900
 3526DOPG   D2B64174   5.578  21.127  13.802  0.0586  0.2228  0.3123
 3526DOPG   C3B64175   5.448  21.204  13.385  0.1810 -0.2836 -0.2313
 3526DOPG   C4B64176   5.499  20.906  13.045 -0.1981 -0.1086 -0.1147
 3527DOPG   GL064177   9.841  13.298  16.574  0.2031  0.0670 -0.3055
 3527DOPG   PO464178   9.710  13.747  16.556  0.0290  0.2117  0.0484
 3527DOPG   GL164179   9.930  13.883  16.157  0.1169 -0.0638 -0.3092
 3527DOPG   GL264180   9.717  14.052  16.055  0.1205 -0.0077 -0.2191
 3527DOPG   C1A64181  10.179  13.897  15.776 -0.0294 -0.0594 -0.2658
 3527DOPG   D2A64182  10.211  13.541  15.542  0.0178  0.1159  0.1862
 3527DOPG   C3A64183  10.215  13.534  15.073 -0.2057  0.1565 -0.0957
 3527DOPG   C4A64184  10.276  13.137  14.749  0.2479 -0.0529  0.0139
 3527DOPG   C1B64185   9.764  14.209  15.583 -0.0458  0.4426 -0.1179
 3527DOPG   D2B64186   9.659  14.366  15.152  0.1545  0.1108  0.1704
 3527DOPG   C3B64187   9.730  14.175  14.695 -0.3706 -0.0249 -0.2143
 3527DOPG   C4B64188   9.746  14.320  14.313  0.1652 -0.0014 -0.0347
 3528DOPG   GL064189   9.266  17.171  17.536  0.6585  0.1226  0.1528
 3528DOPG   PO464190   9.407  17.287  17.189  0.0369  0.1138  0.1268
 3528DOPG   GL164191   9.768  17.124  16.902 -0.3030 -0.2249 -0.0852
 3528DOPG   GL264192   9.848  17.392  16.693 -0.0716 -0.0755 -0.2957
 3528DOPG   C1A64193  10.188  16.948  16.741  0.3588  0.0400 -0.0987
 3528DOPG   D2A64194  10.604  16.935  16.559  0.1138  0.1700  0.1738
 3528DOPG   C3A64195  10.847  16.478  16.504 -0.2300 -0.3747  0.3919
 3528DOPG   C4A64196  10.797  16.080  16.522  0.2813 -0.0413  0.4049
 3528DOPG   C1B64197   9.627  17.599  16.363 -0.1895 -0.1480  0.1444
 3528DOPG   D2B64198   9.777  17.691  15.964  0.0636  0.0559  0.0896
 3528DOPG   C3B64199   9.506  17.658  15.633  0.2067  0.0122  0.0266
 3528DOPG   C4B64200   9.308  17.704  15.291 -0.3458 -0.1072  0.0536
 3529DOPG   GL064201  18.047  17.836  13.814  0.1176  0.0267 -0.1188
 3529DOPG   PO464202  18.348  18.165  14.023 -0.0347 -0.0310 -0.0964
 3529DOPG   GL164203  18.547  18.392  13.839  0.3804 -0.1345  0.2647
 3529DOPG   GL264204  18.872  18.468  13.984  0.0381 -0.0544  0.2531
 3529DOPG   C1A64205  18.637  18.752  13.601  0.1683  0.1762 -0.0689
 3529DOPG   D2A64206  18.919  19.069  13.415 -0.1846 -0.3458 -0.2016
 3529DOPG   C3A64207  19.179  19.297  13.611 -0.2740 -0.2350  0.2501
 3529DOPG   C4A64208  19.328  19.492  13.988 -0.1142 -0.2012  0.3091
 3529DOPG   C1B64209  18.931  18.116  13.720 -0.0491 -0.1046  0.2836
 3529DOPG   D2B64210  18.882  17.840  13.355  0.0854 -0.1420 -0.2099
 3529DOPG   C3B64211  18.618  17.845  13.175  0.3853 -0.0270 -0.2128
 3529DOPG   C4B64212  18.207  17.949  13.327 -0.1559 -0.0515  0.2978
 3530DOPG   GL064213  16.700  17.510  14.472  0.0939  0.0059 -0.0472
 3530DOPG   PO464214  16.732  17.320  14.053 -0.2460  0.1488 -0.0421
 3530DOPG   GL164215  16.861  17.186  13.609  0.1593  0.2507 -0.2799
 3530DOPG   GL264216  17.072  16.955  13.495  0.0020  0.0763 -0.0332
 3530DOPG   C1A64217  16.851  17.141  13.058 -0.1023 -0.0177 -0.3174
 3530DOPG   D2A64218  16.437  17.291  12.767 -0.2702  0.1487  0.0684
 3530DOPG   C3A64219  16.010  17.377  12.766  0.4524  0.2755  0.0262
 3530DOPG   C4A64220  15.763  17.471  13.157  0.2660 -0.2795  0.1880
 3530DOPG   C1B64221  17.345  17.117  13.291 -0.5779  0.4005  0.1733
 3530DOPG   D2B64222  17.567  16.981  13.027 -0.6289 -0.0594  0.2329
 3530DOPG   C3B64223  17.893  16.859  13.224 -0.3304  0.1567 -0.0615
 3530DOPG   C4B64224  17.843  16.679  13.717  0.0261 -0.2257  0.1185
 3531DOPG   GL064225  19.783  21.068  17.026  0.1788  0.3533 -0.2051
 3531DOPG   PO464226  19.369  20.838  17.101 -0.2868  0.2897 -0.2065
 3531DOPG   GL164227  19.304  21.240  16.920  0.0696  0.4564  0.1156
 3531DOPG   GL264228  19.000  21.124  16.739 -0.2727  0.0091  0.1428
 3531DOPG   C1A64229  19.316  21.655  16.973  0.2881 -0.0062  0.2022
 3531DOPG   D2A64230  19.504  21.960  17.203 -0.0473  0.0501  0.0688
 3531DOPG   C3A64231  19.770  22.196  17.381 -0.4052 -0.0868  0.2262
 3531DOPG   C4A64232  20.166  22.285  17.298  0.1907  0.0032 -0.3400
 3531DOPG   C1B64233  18.952  21.551  16.699 -0.0823  0.2230 -0.3120
 3531DOPG   D2B64234  18.992  21.839  16.439 -0.2498 -0.3266 -0.1348
 3531DOPG   C3B64235  18.680  22.060  16.356  0.2263  0.1583 -0.1724
 3531DOPG   C4B64236  18.401  22.376  16.510  0.0884  0.0727 -0.0959
 3532DOPG   GL064237  21.275  19.838  16.504  0.0707 -0.5039  0.4875
 3532DOPG   PO464238  21.189  20.216  16.352  0.1594  0.1177  0.1186
 3532DOPG   GL164239  21.114  19.978  15.983 -0.0928 -0.2968  0.0136
 3532DOPG   GL264240  20.882  19.967  15.832 -0.0633  0.0309  0.2782
 3532DOPG   C1A64241  21.352  19.772  15.650 -0.2089  0.1030 -0.3231
 3532DOPG   D2A64242  21.516  19.726  15.233 -0.1249  0.0025 -0.1476
 3532DOPG   C3A64243  21.485  19.697  14.787 -0.1782  0.0396  0.1018
 3532DOPG   C4A64244  21.372  19.601  14.314  0.0624 -0.1975  0.0614
 3532DOPG   C1B64245  20.925  20.007  15.389 -0.0176 -0.1454 -0.0544
 3532DOPG   D2B64246  21.187  20.197  15.056 -0.0679  0.1622 -0.1145
 3532DOPG   C3B64247  21.046  20.433  14.686 -0.1574 -0.0334  0.0361
 3532DOPG   C4B64248  21.052  20.402  14.217 -0.1433  0.1394  0.0883
 3533DOPG   GL064249  18.058  13.602  16.613  0.1719  0.3631  0.0028
 3533DOPG   PO464250  18.369  13.472  16.255 -0.1602  0.1296  0.0382
 3533DOPG   GL164251  18.404  13.151  16.212 -0.2152 -0.1463  0.0175
 3533DOPG   GL264252  18.461  13.031  16.439  0.0112 -0.2598  0.0979
 3533DOPG   C1A64253  18.469  12.826  15.987  0.0218  0.2468  0.1731
 3533DOPG   D2A64254  18.799  12.462  15.836 -0.0492  0.3859 -0.0611
 3533DOPG   C3A64255  18.830  11.994  15.857  0.0292  0.1228 -0.0011
 3533DOPG   C4A64256  19.083  11.617  15.822 -0.1402  0.3063 -0.2003
 3533DOPG   C1B64257  18.895  13.058  16.545 -0.3185 -0.2847  0.2618
 3533DOPG   D2B64258  19.201  12.786  16.653  0.1888 -0.1183  0.2961
 3533DOPG   C3B64259  19.357  12.416  16.895  0.1719 -0.3480 -0.2768
 3533DOPG   C4B64260  19.178  12.061  17.009 -0.1736  0.0918 -0.2087
 3534DOPG   GL064261   6.207  24.054  14.317  0.1234 -0.0460 -0.1920
 3534DOPG   PO464262   6.474  23.898  14.108  0.1246 -0.1325 -0.1961
 3534DOPG   GL164263   6.901  23.670  14.110  0.2159  0.0559 -0.0553
 3534DOPG   GL264264   7.100  23.605  13.823  0.1989  0.2521 -0.1570
 3534DOPG   C1A64265   6.882  23.313  14.429 -0.2025  0.3432 -0.1781
 3534DOPG   D2A64266   7.029  23.268  14.923  0.2199  0.0963 -0.2472
 3534DOPG   C3A64267   7.290  23.041  15.167  0.0915  0.1306  0.2081
 3534DOPG   C4A64268   7.613  22.878  15.495  0.0101  0.1746  0.0800
 3534DOPG   C1B64269   7.426  23.325  13.553  0.2497  0.1930  0.0154
 3534DOPG   D2B64270   7.725  22.968  13.573 -0.2161  0.0677  0.1730
 3534DOPG   C3B64271   7.825  23.036  14.023  0.0546 -0.0816  0.0107
 3534DOPG   C4B64272   7.844  22.834  14.443  0.0998  0.4440 -0.0310
 3535DOPG   GL064273  17.830  16.560  14.593  0.0489 -0.2231  0.2787
 3535DOPG   PO464274  18.018  16.880  14.295  0.3972 -0.3404  0.1705
 3535DOPG   GL164275  18.419  16.801  14.121  0.0356 -0.0694  0.1429
 3535DOPG   GL264276  18.597  17.064  13.880  0.0665 -0.0713  0.1280
 3535DOPG   C1A64277  18.749  16.602  13.858  0.0908  0.5083 -0.0140
 3535DOPG   D2A64278  18.735  16.747  13.386 -0.1629  0.1720  0.0135
 3535DOPG   C3A64279  18.629  16.296  13.171 -0.1323 -0.0128  0.0617
 3535DOPG   C4A64280  18.574  15.946  12.921 -0.2451  0.2692 -0.3003
 3535DOPG   C1B64281  18.239  17.016  13.649 -0.1449  0.3333  0.1819
 3535DOPG   D2B64282  17.789  17.269  13.558  0.3760  0.1291  0.3084
 3535DOPG   C3B64283  17.867  17.478  13.189  0.2783 -0.1679  0.0533
 3535DOPG   C4B64284  18.224  17.646  12.938 -0.0356 -0.3387 -0.0635
 3536DOPG   GL064285  10.752  16.079  18.036  0.0557 -0.0400 -0.1337
 3536DOPG   PO464286  10.434  15.763  17.999  0.0066  0.0673  0.0699
 3536DOPG   GL164287  10.628  15.533  17.816  0.0224 -0.0082 -0.0355
 3536DOPG   GL264288  10.495  15.256  17.773 -0.0755 -0.2665  0.0391
 3536DOPG   C1A64289  11.011  15.285  17.659 -0.1687  0.0088  0.0147
 3536DOPG   D2A64290  11.425  15.293  17.278 -0.0654 -0.0831  0.1626
 3536DOPG   C3A64291  11.560  14.871  17.134  0.3424 -0.0830  0.4547
 3536DOPG   C4A64292  11.414  14.637  16.920 -0.0565 -0.3709 -0.2201
 3536DOPG   C1B64293  10.661  15.003  17.332  0.2705 -0.0686 -0.0992
 3536DOPG   D2B64294  11.071  15.079  16.990  0.0826  0.1270 -0.1935
 3536DOPG   C3B64295  11.136  15.058  16.547 -0.1612 -0.1031 -0.3878
 3536DOPG   C4B64296  11.261  15.300  16.249 -0.0987  0.0279 -0.1499
 3537DOPG   GL064297  21.699  19.779  16.769 -0.1100  0.5167  0.0349
 3537DOPG   PO464298  21.687  19.481  16.433  0.2019 -0.0028  0.0652
 3537DOPG   GL164299  21.854  19.463  15.985 -0.0555  0.2376 -0.0267
 3537DOPG   GL264300  22.001  19.153  15.880  0.1277  0.0551 -0.3001
 3537DOPG   C1A64301  21.910  19.750  15.631  0.1057 -0.5138 -0.3850
 3537DOPG   D2A64302  22.130  20.132  15.421  0.3298 -0.1792 -0.0059
 3537DOPG   C3A64303  22.371  20.088  15.149 -0.0373  0.0651  0.0910
 3537DOPG   C4A64304  22.407  20.304  14.734 -0.1120  0.0666  0.0111
 3537DOPG   C1B64305  22.215  19.172  15.611 -0.3837  0.1270  0.1359
 3537DOPG   D2B64306  22.313  19.049  15.159 -0.1747 -0.3543 -0.1043
 3537DOPG   C3B64307  22.215  18.857  14.755  0.2713 -0.1335  0.1029
 3537DOPG   C4B64308  22.415  18.694  14.415 -0.1178 -0.0092  0.3130
 3538DOPG   GL064309  17.646  18.109  13.981  0.2056  0.1327 -0.0139
 3538DOPG   PO464310  17.350  18.053  14.013 -0.2491  0.2907  0.0012
 3538DOPG   GL164311  17.091  17.658  13.790 -0.0011  0.0259  0.0510
 3538DOPG   GL264312  17.239  17.510  13.572  0.3320 -0.1257  0.1689
 3538DOPG   C1A64313  16.885  17.790  13.330  0.0732  0.0903  0.0920
 3538DOPG   D2A64314  17.044  18.118  13.196  0.1923 -0.2472  0.2268
 3538DOPG   C3A64315  17.131  18.546  13.349  0.0091  0.1714 -0.0464
 3538DOPG   C4A64316  16.849  18.836  13.127 -0.1740  0.0234  0.5401
 3538DOPG   C1B64317  17.303  17.604  13.214 -0.1942  0.2693  0.3885
 3538DOPG   D2B64318  17.338  17.402  12.831 -0.1821 -0.1111  0.5487
 3538DOPG   C3B64319  16.927  17.236  12.563 -0.1826 -0.2908 -0.1857
 3538DOPG   C4B64320  16.883  17.216  12.092  0.1017 -0.0299  0.1923
 3539DOPG   GL064321  14.528  20.661  15.389  0.0895 -0.4098  0.1172
 3539DOPG   PO464322  14.472  20.581  15.785 -0.2062 -0.1369 -0.3215
 3539DOPG   GL164323  14.749  21.020  15.709 -0.5025  0.1368  0.2011
 3539DOPG   GL264324  15.186  20.957  15.594  0.3718  0.0101 -0.2001
 3539DOPG   C1A64325  14.885  21.477  15.686 -0.3166  0.1185 -0.0955
 3539DOPG   D2A64326  14.890  21.981  15.606  0.1120 -0.0810  0.3653
 3539DOPG   C3A64327  14.598  22.206  15.284  0.3051  0.0656  0.0766
 3539DOPG   C4A64328  14.537  22.519  14.993 -0.5065 -0.1586 -0.3666
 3539DOPG   C1B64329  15.446  21.131  15.395 -0.2670  0.2414 -0.2561
 3539DOPG   D2B64330  15.815  21.331  15.313 -0.1080  0.0389 -0.1095
 3539DOPG   C3B64331  15.976  21.615  15.485 -0.0903 -0.1250  0.0983
 3539DOPG   C4B64332  16.059  21.630  15.838 -0.2877 -0.0131 -0.0821
 3540DOPG   GL064333  14.469  18.022  14.686 -0.0624 -0.1491  0.1994
 3540DOPG   PO464334  14.665  17.709  14.432  0.1570 -0.1595 -0.0166
 3540DOPG   GL164335  14.605  17.757  14.012  0.4036 -0.3035  0.0852
 3540DOPG   GL264336  14.758  18.035  14.006 -0.1652  0.0933 -0.2351
 3540DOPG   C1A64337  14.396  17.720  13.631 -0.0522  0.2166 -0.0483
 3540DOPG   D2A64338  14.394  17.666  13.114  0.0201  0.0654  0.1108
 3540DOPG   C3A64339  14.731  17.364  12.892  0.0361  0.0310 -0.1031
 3540DOPG   C4A64340  15.022  17.193  12.702 -0.0747  0.0458 -0.4330
 3540DOPG   C1B64341  14.866  18.013  13.654  0.2256  0.1576  0.0047
 3540DOPG   D2B64342  15.067  17.840  13.284  0.1572  0.1302  0.0123
 3540DOPG   C3B64343  14.740  17.888  12.905  0.1229  0.1217 -0.0752
 3540DOPG   C4B64344  14.595  18.353  12.733  0.0004  0.1070 -0.2334
 3541DOPG   GL064345  13.360  10.571  18.369 -0.3023 -0.1894  0.0930
 3541DOPG   PO464346  13.432  10.197  18.520 -0.1630 -0.2367 -0.2185
 3541DOPG   GL164347  13.207   9.925  18.287  0.4470 -0.0553  0.1461
 3541DOPG   GL264348  13.104   9.726  18.523 -0.3273  0.2163 -0.1044
 3541DOPG   C1A64349  13.319   9.614  18.011  0.0528 -0.1309 -0.0531
 3541DOPG   D2A64350  13.467   9.202  17.849  0.2331 -0.0077 -0.1350
 3541DOPG   C3A64351  13.790   9.082  18.016 -0.1994  0.1586  0.0883
 3541DOPG   C4A64352  14.189   8.866  17.941  0.2542 -0.0100 -0.1023
 3541DOPG   C1B64353  12.921   9.384  18.325  0.1700  0.0125 -0.1853
 3541DOPG   D2B64354  12.952   9.251  17.904  0.0290 -0.1364  0.0097
 3541DOPG   C3B64355  13.120   8.816  17.851  0.3538  0.2018  0.1513
 3541DOPG   C4B64356  12.990   8.378  17.944  0.1896 -0.2797 -0.2914
 3542DOPG   GL064357   7.131  21.269  16.852  0.1418 -0.2458  0.1522
 3542DOPG   PO464358   6.822  21.457  16.633  0.0112  0.2976  0.1484
 3542DOPG   GL164359   7.025  21.303  16.302  0.0067 -0.0940 -0.1087
 3542DOPG   GL264360   7.285  21.491  16.409 -0.0357  0.1182 -0.0440
 3542DOPG   C1A64361   7.301  21.267  15.934  0.1505  0.0421  0.1416
 3542DOPG   D2A64362   7.692  21.425  16.019 -0.1597 -0.4731  0.1956
 3542DOPG   C3A64363   7.933  21.758  15.863 -0.1809 -0.0175 -0.1180
 3542DOPG   C4A64364   8.120  22.041  15.660  0.0089 -0.3701  0.3122
 3542DOPG   C1B64365   7.441  21.890  16.261 -0.0785  0.0314  0.0598
 3542DOPG   D2B64366   7.586  22.136  16.033 -0.1876  0.0951 -0.0310
 3542DOPG   C3B64367   7.232  22.302  15.926 -0.3270  0.1044  0.1100
 3542DOPG   C4B64368   7.195  22.762  15.788 -0.2155 -0.1708  0.0899
 3543DOPG   GL064369  19.849  17.803  15.987 -0.1647 -0.0304 -0.2022
 3543DOPG   PO464370  19.911  17.570  15.602  0.2573 -0.2397  0.0242
 3543DOPG   GL164371  19.708  17.252  15.819  0.4094 -0.0281 -0.2528
 3543DOPG   GL264372  19.715  17.333  16.096  0.0028  0.3208 -0.2656
 3543DOPG   C1A64373  19.950  16.906  15.990  0.0770 -0.1690 -0.3537
 3543DOPG   D2A64374  20.426  16.993  16.024  0.0499 -0.0271  0.0647
 3543DOPG   C3A64375  20.600  16.669  16.211 -0.1781 -0.2236  0.0623
 3543DOPG   C4A64376  20.972  16.529  16.416  0.1887  0.2213 -0.0942
 3543DOPG   C1B64377  19.439  16.833  16.116  0.0014  0.1125  0.0139
 3543DOPG   D2B64378  18.993  16.710  16.245 -0.1114 -0.0441  0.2307
 3543DOPG   C3B64379  18.617  16.626  16.530  0.0755  0.2571  0.1171
 3543DOPG   C4B64380  18.621  16.607  16.930  0.0032  0.1761 -0.1055
 3544DOPG   GL064381  10.809  12.130  16.612  0.1307 -0.0215  0.1343
 3544DOPG   PO464382  10.384  12.072  16.424  0.1660 -0.2258 -0.3370
 3544DOPG   GL164383  10.242  12.116  15.955 -0.0688  0.0914  0.3505
 3544DOPG   GL264384  10.071  11.854  15.754 -0.0079 -0.1871  0.1272
 3544DOPG   C1A64385   9.973  12.316  15.581 -0.0867  0.0117 -0.1591
 3544DOPG   D2A64386  10.071  12.658  15.460  0.1929  0.0358 -0.0198
 3544DOPG   C3A64387   9.779  12.850  15.138 -0.0602  0.2319  0.2779
 3544DOPG   C4A64388   9.424  12.984  14.855  0.1118  0.0098  0.1122
 3544DOPG   C1B64389   9.989  11.903  15.356  0.2191 -0.2059  0.1303
 3544DOPG   D2B64390   9.856  12.251  15.051  0.0464  0.1531  0.1144
 3544DOPG   C3B64391  10.107  12.608  14.866 -0.0694 -0.0776 -0.1210
 3544DOPG   C4B64392  10.360  12.621  14.488 -0.0550 -0.0711 -0.1009
 3545DOPG   GL064393  20.897  20.783  17.269 -0.0741 -0.0773 -0.1932
 3545DOPG   PO464394  21.277  20.887  17.302  0.1057 -0.3702  0.1996
 3545DOPG   GL164395  21.148  21.214  17.372 -0.0300  0.0017  0.3765
 3545DOPG   GL264396  21.122  21.295  17.660  0.3870 -0.0573 -0.2088
 3545DOPG   C1A64397  21.064  21.550  17.083  0.1621 -0.0671  0.1921
 3545DOPG   D2A64398  21.250  21.993  17.005  0.2254  0.0101  0.1180
 3545DOPG   C3A64399  21.534  22.131  17.298 -0.1752 -0.0952  0.0412
 3545DOPG   C4A64400  21.941  22.275  17.491  0.0053 -0.0246  0.3209
 3545DOPG   C1B64401  21.353  21.639  17.488  0.0112 -0.1092 -0.2322
 3545DOPG   D2B64402  21.668  21.913  17.695  0.3844 -0.0250 -0.2745
 3545DOPG   C3B64403  22.124  21.876  17.740 -0.0002  0.2317  0.3993
 3545DOPG   C4B64404  22.492  21.538  17.554  0.1408 -0.2647 -0.1210
 3546DOPG   GL064405  12.842  18.710  14.704  0.0669  0.2111 -0.0372
 3546DOPG   PO464406  12.541  18.379  14.578  0.0102 -0.0914  0.3427
 3546DOPG   GL164407  12.151  18.514  14.393  0.1045 -0.0592 -0.1887
 3546DOPG   GL264408  12.025  18.739  14.563  0.1671  0.3919 -0.1772
 3546DOPG   C1A64409  11.844  18.825  14.103  0.0142 -0.1060  0.1344
 3546DOPG   D2A64410  11.613  19.208  14.031 -0.2752 -0.4479 -0.1561
 3546DOPG   C3A64411  11.442  19.181  13.722 -0.0126  0.0635 -0.2641
 3546DOPG   C4A64412  11.321  18.998  13.304 -0.2754  0.0080  0.2156
 3546DOPG   C1B64413  11.533  18.756  14.707 -0.0015 -0.0027 -0.0896
 3546DOPG   D2B64414  11.122  18.545  14.684  0.0957 -0.0664  0.1973
 3546DOPG   C3B64415  10.834  18.846  14.795 -0.0739  0.0054 -0.4545
 3546DOPG   C4B64416  10.727  19.223  14.666  0.0689  0.0264 -0.1025
 3547DOPG   GL064417  18.860  20.859  17.454 -0.1704 -0.0279 -0.1168
 3547DOPG   PO464418  18.791  21.189  17.168 -0.3459 -0.1448 -0.1691
 3547DOPG   GL164419  18.801  21.666  17.170  0.1082 -0.2319  0.1700
 3547DOPG   GL264420  19.074  21.717  17.464 -0.4410  0.3086  0.0568
 3547DOPG   C1A64421  18.952  21.993  16.945  0.0735  0.2791 -0.0011
 3547DOPG   D2A64422  19.204  22.186  16.812 -0.2392  0.0434  0.0904
 3547DOPG   C3A64423  19.456  22.017  16.640 -0.1201  0.2496 -0.0123
 3547DOPG   C4A64424  19.836  21.788  16.409  0.0092 -0.2051  0.0066
 3547DOPG   C1B64425  19.378  22.024  17.739  0.0030  0.1851  0.1083
 3547DOPG   D2B64426  19.681  22.180  18.025  0.2504  0.2050  0.2014
 3547DOPG   C3B64427  20.034  22.183  17.808 -0.2603 -0.0386  0.1934
 3547DOPG   C4B64428  20.420  21.895  17.674 -0.1351 -0.1056 -0.2147
 3548DOPG   GL064429   7.409  24.962  15.854 -0.4685  0.0133 -0.2375
 3548DOPG   PO464430   7.765  24.663  15.676  0.0182  0.0208 -0.0071
 3548DOPG   GL164431   8.167  24.593  15.739 -0.2366  0.2585 -0.0064
 3548DOPG   GL264432   8.201  24.667  16.073 -0.0484  0.2259  0.0952
 3548DOPG   C1A64433   8.342  24.276  15.626  0.1870  0.1490 -0.3006
 3548DOPG   D2A64434   8.131  23.942  15.556  0.2078  0.1964  0.0924
 3548DOPG   C3A64435   8.391  23.633  15.465  0.1405 -0.0099  0.1986
 3548DOPG   C4A64436   8.639  23.327  15.572 -0.1319  0.2652 -0.0494
 3548DOPG   C1B64437   8.247  24.478  16.405 -0.0963  0.0888 -0.1203
 3548DOPG   D2B64438   8.392  24.264  16.824  0.2368 -0.1313  0.1355
 3548DOPG   C3B64439   8.514  24.293  17.223 -0.4940 -0.0120  0.4420
 3548DOPG   C4B64440   8.731  23.946  17.357  0.0438 -0.2894 -0.1090
 3549DOPG   GL064441  15.940  13.708  16.226  0.0753  0.1388 -0.0999
 3549DOPG   PO464442  15.545  13.406  16.269  0.1646  0.2529  0.1950
 3549DOPG   GL164443  15.454  13.845  16.262 -0.0560  0.0141  0.2514
 3549DOPG   GL264444  15.693  14.039  16.528  0.0526  0.1534  0.2180
 3549DOPG   C1A64445  15.476  14.397  16.170  0.1726 -0.1660 -0.0612
 3549DOPG   D2A64446  15.131  14.782  16.115 -0.1499  0.2101  0.1592
 3549DOPG   C3A64447  15.066  15.107  15.747  0.0929  0.3128  0.0329
 3549DOPG   C4A64448  15.030  15.287  15.364  0.2477  0.2603 -0.2013
 3549DOPG   C1B64449  15.266  14.193  16.659 -0.0673  0.1679  0.0747
 3549DOPG   D2B64450  15.207  14.553  16.640  0.1356  0.2244  0.1621
 3549DOPG   C3B64451  15.351  14.830  16.971 -0.1811  0.0555 -0.0423
 3549DOPG   C4B64452  15.068  14.984  17.261 -0.5470  0.0540  0.1876
 3550DOPG   GL064453   9.934  12.306  16.446 -0.0302  0.3075 -0.1398
 3550DOPG   PO464454   9.499  12.432  16.334 -0.0117 -0.1625 -0.0379
 3550DOPG   GL164455   9.724  12.499  15.951 -0.2622 -0.0268 -0.0123
 3550DOPG   GL264456   9.536  12.220  15.823 -0.3099 -0.2471  0.0374
 3550DOPG   C1A64457   9.598  12.818  15.688  0.0277 -0.1492 -0.1942
 3550DOPG   D2A64458   9.879  13.132  15.533 -0.0199 -0.0430  0.2502
 3550DOPG   C3A64459   9.716  13.347  15.003 -0.1432 -0.0034  0.0223
 3550DOPG   C4A64460   9.893  13.766  14.858 -0.0526  0.0840 -0.3281
 3550DOPG   C1B64461   9.534  12.249  15.413 -0.2725  0.0887 -0.3437
 3550DOPG   D2B64462   9.381  12.040  15.046  0.2306  0.0623 -0.0425
 3550DOPG   C3B64463   9.266  11.646  15.041 -0.1411  0.1003 -0.1410
 3550DOPG   C4B64464   9.441  11.294  14.821 -0.0144  0.0399 -0.1675
 3551DOPG   GL064465  21.500  20.193  16.829  0.0479  0.0316  0.2030
 3551DOPG   PO464466  21.631  20.626  17.040 -0.2099  0.2472  0.2731
 3551DOPG   GL164467  21.505  21.005  16.863  0.2965  0.2346  0.1510
 3551DOPG   GL264468  21.135  21.067  16.870 -0.1119  0.2483 -0.1559
 3551DOPG   C1A64469  21.537  21.277  16.506  0.0635  0.1284 -0.1185
 3551DOPG   D2A64470  21.893  21.374  16.075 -0.1294 -0.1261  0.1524
 3551DOPG   C3A64471  21.887  21.128  15.635  0.2801  0.2560 -0.0079
 3551DOPG   C4A64472  21.622  20.777  15.632 -0.0467 -0.1883 -0.0289
 3551DOPG   C1B64473  21.145  21.502  16.638  0.2156  0.1266 -0.2046
 3551DOPG   D2B64474  20.741  21.645  16.250 -0.3048 -0.0168  0.0158
 3551DOPG   C3B64475  20.551  21.986  16.253 -0.0308 -0.1606 -0.2654
 3551DOPG   C4B64476  20.506  22.377  15.885  0.0186 -0.1457 -0.2058
 3552DOPG   GL064477  12.527  20.346  17.134 -0.2083  0.1939  0.3723
 3552DOPG   PO464478  12.247  20.235  16.761  0.0225 -0.0423  0.0680
 3552DOPG   GL164479  12.092  19.986  16.384  0.1429  0.1276  0.3305
 3552DOPG   GL264480  11.876  19.840  16.514  0.1624 -0.1150  0.0098
 3552DOPG   C1A64481  11.778  20.076  16.073  0.2639  0.0261  0.1926
 3552DOPG   D2A64482  11.627  20.356  15.797 -0.3894  0.0687 -0.1984
 3552DOPG   C3A64483  11.434  20.326  15.378 -0.2488 -0.0592 -0.1806
 3552DOPG   C4A64484  10.983  20.549  15.364 -0.0683  0.1111  0.2978
 3552DOPG   C1B64485  11.408  19.768  16.296 -0.1300  0.1575  0.1731
 3552DOPG   D2B64486  11.063  19.692  16.015 -0.1806  0.1251 -0.2707
 3552DOPG   C3B64487  10.745  19.506  15.820  0.2375  0.1645  0.2007
 3552DOPG   C4B64488  10.466  19.104  15.604  0.0966  0.2724  0.1965
 3553DOPG   GL064489   7.739  19.777  16.451 -0.0671  0.0984  0.0096
 3553DOPG   PO464490   7.475  19.609  16.741  0.1845  0.3981  0.2449
 3553DOPG   GL164491   7.117  19.629  16.352  0.0961  0.0667  0.0409
 3553DOPG   GL264492   7.316  19.725  16.122 -0.0389  0.0889 -0.2000
 3553DOPG   C1A64493   6.602  19.410  16.424  0.1318  0.4146 -0.0751
 3553DOPG   D2A64494   6.268  19.379  16.159  0.2227 -0.2954 -0.1651
 3553DOPG   C3A64495   6.093  18.976  16.019 -0.0489 -0.1247  0.2264
 3553DOPG   C4A64496   5.807  18.708  16.129  0.0762 -0.3499 -0.1964
 3553DOPG   C1B64497   7.396  19.551  15.721  0.2574  0.1301 -0.0497
 3553DOPG   D2B64498   7.403  19.178  15.472  0.1439 -0.1582  0.3594
 3553DOPG   C3B64499   7.641  19.422  15.178 -0.2292  0.3858 -0.0789
 3553DOPG   C4B64500   7.902  19.325  14.823 -0.1215  0.2544 -0.3551
 3554DOPG   GL064501  12.858  20.467  15.454  0.3083  0.3457 -0.0746
 3554DOPG   PO464502  12.786  20.000  15.589 -0.3387 -0.0990 -0.1397
 3554DOPG   GL164503  12.607  19.906  15.276  0.2029 -0.2893  0.0047
 3554DOPG   GL264504  12.611  20.239  15.030  0.2255 -0.2083  0.0933
 3554DOPG   C1A64505  12.262  19.738  15.267 -0.2269  0.1767 -0.1875
 3554DOPG   D2A64506  12.160  19.567  15.564  0.3173 -0.0465  0.1717
 3554DOPG   C3A64507  11.760  19.492  15.394 -0.2833 -0.3467 -0.1944
 3554DOPG   C4A64508  11.412  19.304  15.207 -0.2070 -0.1801  0.1115
 3554DOPG   C1B64509  12.324  19.985  14.821 -0.1026  0.2228 -0.2178
 3554DOPG   D2B64510  11.871  20.024  14.646 -0.1538  0.1853 -0.1175
 3554DOPG   C3B64511  11.766  19.923  14.246 -0.0784  0.1927  0.0854
 3554DOPG   C4B64512  11.992  19.532  14.000 -0.2756 -0.0941 -0.1554
 3555DOPG   GL064513  16.602  13.137  15.955  0.0842 -0.1035  0.0787
 3555DOPG   PO464514  16.787  12.819  16.090  0.1835  0.1119 -0.0486
 3555DOPG   GL164515  16.904  12.850  15.769 -0.0918  0.1115  0.2352
 3555DOPG   GL264516  16.717  12.907  15.478 -0.1211 -0.0574 -0.1611
 3555DOPG   C1A64517  17.135  12.757  15.287  0.1616  0.0043  0.1133
 3555DOPG   D2A64518  17.207  12.820  14.807 -0.0535  0.2644  0.0507
 3555DOPG   C3A64519  16.829  12.471  14.695  0.3927  0.0820  0.1983
 3555DOPG   C4A64520  16.743  12.089  14.713  0.0891 -0.1125  0.3307
 3555DOPG   C1B64521  16.532  12.651  15.084  0.1185  0.0282 -0.0526
 3555DOPG   D2B64522  16.338  12.613  14.642 -0.0201 -0.0335 -0.2235
 3555DOPG   C3B64523  16.455  12.370  14.375  0.1331  0.0538  0.2012
 3555DOPG   C4B64524  16.489  11.922  14.331 -0.2255  0.1580  0.2301
 3556DOPG   GL064525  18.357  18.451  14.835 -0.2150 -0.0373  0.0517
 3556DOPG   PO464526  18.574  18.561  15.269 -0.0986  0.1720  0.0248
 3556DOPG   GL164527  18.228  18.888  15.335 -0.0782 -0.2918 -0.1615
 3556DOPG   GL264528  18.068  18.763  15.124 -0.0096 -0.1965 -0.1556
 3556DOPG   C1A64529  18.030  19.319  15.324  0.0363  0.0581 -0.1065
 3556DOPG   D2A64530  18.295  19.665  15.216 -0.0524  0.1539  0.3354
 3556DOPG   C3A64531  18.293  19.973  14.763  0.0253  0.1296  0.4090
 3556DOPG   C4A64532  18.255  20.354  14.588 -0.0278 -0.4375 -0.1628
 3556DOPG   C1B64533  17.881  18.968  14.869 -0.2373 -0.1432 -0.0118
 3556DOPG   D2B64534  17.788  19.184  14.617 -0.2212  0.0809  0.0378
 3556DOPG   C3B64535  17.474  19.413  14.416  0.1738  0.0270 -0.1797
 3556DOPG   C4B64536  17.070  19.449  14.340 -0.4705 -0.2331 -0.1986
 3557DOPG   GL064537  20.311  17.845  15.788  0.1524  0.0746 -0.2736
 3557DOPG   PO464538  20.364  17.762  15.337 -0.1331 -0.0336 -0.0706
 3557DOPG   GL164539  20.665  17.497  15.068  0.0587  0.2594  0.1591
 3557DOPG   GL264540  20.755  17.736  14.891 -0.4415 -0.0670 -0.2077
 3557DOPG   C1A64541  21.108  17.434  15.110 -0.1031  0.1023 -0.2758
 3557DOPG   D2A64542  21.223  17.200  14.843 -0.1206  0.1401  0.1184
 3557DOPG   C3A64543  21.104  17.407  14.371  0.2054 -0.1777 -0.0294
 3557DOPG   C4A64544  21.367  17.535  14.201 -0.3164 -0.3528  0.2577
 3557DOPG   C1B64545  21.260  17.849  14.669 -0.0649  0.0509 -0.3286
 3557DOPG   D2B64546  21.694  17.893  14.407  0.1329 -0.0405  0.3806
 3557DOPG   C3B64547  21.937  17.824  14.657 -0.0006 -0.0323 -0.0212
 3557DOPG   C4B64548  22.280  17.579  14.884  0.1746  0.2214 -0.0479
 3558DOPG   GL064549  18.473  20.784  17.085  0.0080 -0.1305 -0.1772
 3558DOPG   PO464550  18.185  20.642  16.875 -0.0459 -0.3366 -0.2221
 3558DOPG   GL164551  18.354  21.012  16.618 -0.0431  0.0624 -0.0945
 3558DOPG   GL264552  18.479  21.314  16.754 -0.0350 -0.0763  0.0577
 3558DOPG   C1A64553  18.654  21.271  16.309 -0.1201 -0.1454  0.0380
 3558DOPG   D2A64554  18.688  21.229  15.841  0.0619  0.0510 -0.0119
 3558DOPG   C3A64555  18.941  21.448  15.577 -0.1939 -0.0447  0.1136
 3558DOPG   C4A64556  19.013  21.495  15.141 -0.0985  0.0574 -0.0465
 3558DOPG   C1B64557  18.426  21.625  16.545 -0.1209  0.0140 -0.0286
 3558DOPG   D2B64558  18.074  21.972  16.526  0.0099  0.1839  0.2576
 3558DOPG   C3B64559  17.873  21.966  17.019 -0.0611 -0.1753 -0.0681
 3558DOPG   C4B64560  17.681  21.934  17.418 -0.1404  0.0411 -0.0196
 3559DOPG   GL064561  14.834  19.710  16.076  0.0816  0.1798 -0.0746
 3559DOPG   PO464562  14.809  19.793  16.528  0.0319  0.0532 -0.0341
 3559DOPG   GL164563  15.142  19.456  16.634  0.2423 -0.1706  0.1181
 3559DOPG   GL264564  15.459  19.576  16.672 -0.1753 -0.6170 -0.3783
 3559DOPG   C1A64565  15.136  19.074  16.865  0.3302  0.0986  0.2840
 3559DOPG   D2A64566  15.510  19.119  16.966 -0.0661  0.1046  0.0329
 3559DOPG   C3A64567  15.912  19.159  16.689  0.2218 -0.3913 -0.1007
 3559DOPG   C4A64568  16.044  19.084  16.227  0.2324 -0.0588 -0.0616
 3559DOPG   C1B64569  15.446  19.127  16.463 -0.2529  0.2132 -0.2693
 3559DOPG   D2B64570  15.166  18.666  16.280  0.1695  0.2937 -0.0255
 3559DOPG   C3B64571  15.342  18.330  16.146 -0.2662  0.0596  0.0267
 3559DOPG   C4B64572  15.503  17.878  16.208 -0.0174  0.0614 -0.0818
 3560DOPG   GL064573  13.599  12.909  16.390 -0.0015  0.2584 -0.3825
 3560DOPG   PO464574  13.930  12.935  16.074  0.0143 -0.0367  0.1037
 3560DOPG   GL164575  14.019  13.258  16.441 -0.1801 -0.1419  0.1369
 3560DOPG   GL264576  13.885  13.620  16.421  0.1140 -0.3866  0.1244
 3560DOPG   C1A64577  13.827  13.293  16.837 -0.3719  0.0216  0.1867
 3560DOPG   D2A64578  13.819  13.717  17.245 -0.0500 -0.1180  0.2412
 3560DOPG   C3A64579  13.531  14.071  17.445 -0.0062  0.1266  0.2213
 3560DOPG   C4A64580  13.036  14.260  17.403  0.0070 -0.3144 -0.1706
 3560DOPG   C1B64581  13.661  13.760  16.760 -0.1000  0.0335 -0.2345
 3560DOPG   D2B64582  13.388  13.982  16.976 -0.0268  0.1294  0.1878
 3560DOPG   C3B64583  13.406  14.407  17.075  0.2678 -0.0505 -0.1607
 3560DOPG   C4B64584  13.274  14.752  17.248 -0.2830 -0.1089 -0.0909
 3561DOPG   GL064585  22.019  19.107  16.444 -0.1251  0.0341 -0.3507
 3561DOPG   PO464586  22.207  19.405  16.297  0.2650  0.0689 -0.3396
 3561DOPG   GL164587  22.522  19.477  16.017 -0.1790 -0.1002 -0.2686
 3561DOPG   GL264588  22.677  19.250  15.707 -0.0601  0.2868  0.0265
 3561DOPG   C1A64589  22.430  19.690  15.558  0.1982  0.2566  0.0339
 3561DOPG   D2A64590  22.768  19.871  15.321  0.0328 -0.1867  0.5270
 3561DOPG   C3A64591  23.007  20.286  15.372 -0.3057 -0.2298  0.2454
 3561DOPG   C4A64592  22.962  20.708  15.536 -0.0184 -0.0456 -0.3081
 3561DOPG   C1B64593  22.749  19.348  15.225 -0.2230 -0.0319  0.2163
 3561DOPG   D2B64594  22.543  19.452  14.815 -0.0912 -0.1559  0.0310
 3561DOPG   C3B64595  22.646  19.889  14.653 -0.0968 -0.0089  0.0980
 3561DOPG   C4B64596  22.911  20.212  14.901  0.1105  0.0127 -0.3930
 3562DOPG   GL064597   9.696  20.814  16.650  0.1423 -0.1196 -0.1625
 3562DOPG   PO464598   9.437  21.003  16.292  0.1864  0.0337  0.0953
 3562DOPG   GL164599   9.450  21.228  15.889  0.2041  0.0379 -0.2095
 3562DOPG   GL264600   9.326  21.527  15.743 -0.0760 -0.3639  0.3028
 3562DOPG   C1A64601   9.680  21.240  15.481  0.3385 -0.0796 -0.2293
 3562DOPG   D2A64602   9.740  21.224  15.091 -0.1338  0.1385 -0.0081
 3562DOPG   C3A64603   9.966  21.414  14.674 -0.0394 -0.1156  0.2695
 3562DOPG   C4A64604  10.418  21.434  14.812 -0.0335 -0.0456  0.2391
 3562DOPG   C1B64605   9.551  21.788  15.305  0.0169  0.1569 -0.3044
 3562DOPG   D2B64606   9.387  21.533  14.929  0.0691  0.3487  0.2654
 3562DOPG   C3B64607   9.555  21.609  14.526 -0.1344  0.0467 -0.0773
 3562DOPG   C4B64608   9.638  21.578  14.197  0.1925 -0.1043  0.3993
 3563DOPG   GL064609  12.568  16.884  14.682  0.0739 -0.1534 -0.3391
 3563DOPG   PO464610  12.264  17.027  14.388 -0.0147 -0.0334 -0.1387
 3563DOPG   GL164611  12.245  17.177  13.961  0.1558  0.0386  0.3116
 3563DOPG   GL264612  12.034  17.000  13.865 -0.0901  0.0689  0.0781
 3563DOPG   C1A64613  12.128  17.619  13.659 -0.4970  0.2573  0.1437
 3563DOPG   D2A64614  12.448  17.728  13.314  0.2225 -0.0799 -0.0871
 3563DOPG   C3A64615  12.333  17.833  12.881  0.1749 -0.1818  0.2939
 3563DOPG   C4A64616  12.052  17.651  12.609 -0.0423  0.0682 -0.3110
 3563DOPG   C1B64617  11.873  17.195  13.548 -0.0522  0.1241  0.0262
 3563DOPG   D2B64618  11.451  17.223  13.402  0.1410 -0.1826 -0.1721
 3563DOPG   C3B64619  11.273  17.650  13.371 -0.0709 -0.1387  0.0367
 3563DOPG   C4B64620  11.115  17.744  12.948 -0.1040 -0.0735 -0.0574
 3564DOPG   GL064621  17.728  17.750  14.330  0.2205 -0.1766  0.1657
 3564DOPG   PO464622  17.562  17.596  13.947 -0.3530 -0.3046 -0.0126
 3564DOPG   GL164623  17.603  17.849  13.572  0.0418  0.0569  0.1050
 3564DOPG   GL264624  17.440  18.062  13.486  0.1861  0.0324 -0.0106
 3564DOPG   C1A64625  17.750  17.944  13.104 -0.1305  0.1592 -0.3340
 3564DOPG   D2A64626  17.960  18.244  12.918  0.1013 -0.1520  0.0940
 3564DOPG   C3A64627  18.078  18.644  13.072  0.1076  0.2693  0.0394
 3564DOPG   C4A64628  18.467  18.915  13.179 -0.0237  0.2215  0.0581
 3564DOPG   C1B64629  17.832  18.257  13.461  0.1118 -0.0131 -0.2408
 3564DOPG   D2B64630  18.153  18.443  13.516 -0.2137  0.3181 -0.0959
 3564DOPG   C3B64631  18.522  18.436  13.235 -0.0880  0.2410 -0.1137
 3564DOPG   C4B64632  18.923  18.465  13.297 -0.0002 -0.2925 -0.6433
 3565DOPG   GL064633  15.395  19.080  15.442  0.0062  0.1967  0.1510
 3565DOPG   PO464634  15.003  18.877  15.546  0.2391  0.1323  0.2196
 3565DOPG   GL164635  15.258  18.979  15.913  0.1674  0.1553 -0.0861
 3565DOPG   GL264636  15.248  19.343  16.122  0.0574 -0.0620  0.3121
 3565DOPG   C1A64637  15.644  18.748  16.127  0.0936  0.1454 -0.1819
 3565DOPG   D2A64638  15.816  18.721  16.524  0.0480 -0.3185  0.0352
 3565DOPG   C3A64639  16.147  18.563  16.446  0.3707  0.1515  0.0914
 3565DOPG   C4A64640  16.375  18.294  16.343 -0.0854 -0.3397  0.1415
 3565DOPG   C1B64641  14.947  19.082  16.375  0.0929  0.0879 -0.2895
 3565DOPG   D2B64642  14.597  18.764  16.249 -0.1440  0.3400  0.2557
 3565DOPG   C3B64643  14.567  18.352  16.283 -0.1150 -0.2299  0.1370
 3565DOPG   C4B64644  14.409  17.982  16.103 -0.0239 -0.3494 -0.0855
 3566DOPG   GL064645  14.175  16.330  15.043 -0.3532 -0.0272 -0.2386
 3566DOPG   PO464646  14.687  16.339  15.148 -0.1142  0.1917  0.0148
 3566DOPG   GL164647  14.634  16.632  15.496  0.0705  0.1948  0.0063
 3566DOPG   GL264648  14.261  16.591  15.442  0.1804  0.0168 -0.0714
 3566DOPG   C1A64649  14.674  16.598  15.934 -0.0035 -0.1105  0.1422
 3566DOPG   D2A64650  14.672  16.668  16.359  0.2757  0.0390 -0.1884
 3566DOPG   C3A64651  14.686  16.303  16.613 -0.3366 -0.2018  0.1847
 3566DOPG   C4A64652  14.817  16.103  16.997  0.2683 -0.0632  0.1894
 3566DOPG   C1B64653  14.185  16.254  15.817  0.0940 -0.0202 -0.1459
 3566DOPG   D2B64654  13.849  15.929  15.941 -0.1450  0.1035 -0.2280
 3566DOPG   C3B64655  14.042  15.912  16.434 -0.0140 -0.1229 -0.2632
 3566DOPG   C4B64656  14.175  15.946  16.903  0.1087  0.1420 -0.2136
 3567DOPG   GL064657  12.506  14.048  14.384 -0.2561 -0.2481 -0.0335
 3567DOPG   PO464658  12.875  14.236  14.617  0.0409 -0.0987  0.0283
 3567DOPG   GL164659  12.874  14.260  14.175  0.0798  0.2615 -0.2305
 3567DOPG   GL264660  12.679  14.388  13.977 -0.0699  0.5252  0.1325
 3567DOPG   C1A64661  13.102  14.169  13.848  0.1138  0.1928  0.1674
 3567DOPG   D2A64662  13.476  14.021  13.647 -0.2803 -0.1034  0.0416
 3567DOPG   C3A64663  13.570  13.577  13.424 -0.5037  0.0141  0.0355
 3567DOPG   C4A64664  13.619  13.352  12.964 -0.3186  0.0507  0.0544
 3567DOPG   C1B64665  12.331  14.250  13.964 -0.2675 -0.0143  0.0171
 3567DOPG   D2B64666  11.938  14.463  13.736  0.2170  0.1085 -0.1753
 3567DOPG   C3B64667  11.521  14.233  13.586 -0.1672  0.1229  0.0995
 3567DOPG   C4B64668  11.022  14.113  13.656 -0.0268 -0.0812 -0.2454
 3568DOPG   GL064669  18.238  15.051  19.321  0.1097 -0.0974  0.1893
 3568DOPG   PO464670  18.398  15.345  19.155 -0.2928 -0.2378 -0.0858
 3568DOPG   GL164671  18.145  15.700  18.897  0.2903 -0.0630  0.1125
 3568DOPG   GL264672  17.824  15.759  19.048  0.5672 -0.2167 -0.0837
 3568DOPG   C1A64673  18.276  16.095  18.579 -0.0516  0.0435 -0.0049
 3568DOPG   D2A64674  18.077  16.514  18.524  0.0421 -0.1041 -0.2709
 3568DOPG   C3A64675  18.048  16.647  18.041 -0.0788  0.3650 -0.0040
 3568DOPG   C4A64676  17.908  16.792  17.754 -0.1684 -0.0450  0.0223
 3568DOPG   C1B64677  17.394  15.779  18.827  0.0512 -0.0448 -0.0901
 3568DOPG   D2B64678  17.251  15.676  18.462  0.2242 -0.3810  0.1086
 3568DOPG   C3B64679  17.396  15.873  18.076  0.0740 -0.1129 -0.0551
 3568DOPG   C4B64680  17.420  16.052  17.684  0.0985 -0.4689  0.2401
 3569DOPG   GL064681   9.362  13.392  16.438  0.2399  0.2663  0.2040
 3569DOPG   PO464682   8.917  13.127  16.410 -0.0199  0.0117 -0.1319
 3569DOPG   GL164683   8.616  12.973  16.221  0.0714 -0.1246 -0.1687
 3569DOPG   GL264684   8.195  12.867  16.091 -0.0130 -0.2716  0.2115
 3569DOPG   C1A64685   8.655  12.782  15.880  0.1905 -0.0829 -0.1016
 3569DOPG   D2A64686   8.803  12.763  15.485  0.1289 -0.0751 -0.1339
 3569DOPG   C3A64687   8.862  12.583  15.085  0.0148  0.2365 -0.1347
 3569DOPG   C4A64688   8.947  12.655  14.707 -0.0671  0.0658 -0.3811
 3569DOPG   C1B64689   8.479  13.264  15.843  0.0200 -0.0479  0.0785
 3569DOPG   D2B64690   8.837  13.429  15.562 -0.0244 -0.2320  0.2604
 3569DOPG   C3B64691   8.793  13.595  15.138 -0.2011  0.0003  0.0270
 3569DOPG   C4B64692   8.620  13.473  14.713 -0.0399  0.1207 -0.1264
 3570DOPG   GL064693  10.135  18.795  17.837 -0.0131  0.0986  0.4176
 3570DOPG   PO464694  10.382  19.065  17.849  0.1040  0.1789  0.1050
 3570DOPG   GL164695  10.348  18.909  17.306 -0.2275  0.1801  0.0769
 3570DOPG   GL264696  10.151  18.950  17.058  0.0764  0.0386 -0.2309
 3570DOPG   C1A64697  10.677  18.915  17.019 -0.2155  0.1415 -0.2722
 3570DOPG   D2A64698  11.113  18.977  16.856  0.1414  0.3741  0.1126
 3570DOPG   C3A64699  11.135  18.786  16.375 -0.0348 -0.1402 -0.1669
 3570DOPG   C4A64700  11.030  18.455  16.174  0.1418  0.0524 -0.1862
 3570DOPG   C1B64701  10.052  18.970  16.665 -0.1014  0.1883 -0.1435
 3570DOPG   D2B64702   9.835  18.727  16.264  0.0832 -0.3762 -0.1189
 3570DOPG   C3B64703  10.042  18.764  15.997 -0.2628  0.1525  0.1526
 3570DOPG   C4B64704  10.354  18.629  15.628 -0.0004 -0.2905  0.0503
 3571DOPG   GL064705  12.496  14.510  14.420  0.1817 -0.3786 -0.0714
 3571DOPG   PO464706  12.267  14.451  14.720  0.0672  0.1509 -0.1456
 3571DOPG   GL164707  12.046  14.257  14.381  0.1761 -0.0388  0.0538
 3571DOPG   GL264708  11.940  14.512  14.223 -0.1207 -0.1705 -0.0803
 3571DOPG   C1A64709  11.748  13.963  14.386  0.1842  0.1360 -0.1657
 3571DOPG   D2A64710  11.474  13.627  14.220  0.0797  0.0962  0.1260
 3571DOPG   C3A64711  11.591  13.155  14.164 -0.0635 -0.2523 -0.1126
 3571DOPG   C4A64712  11.683  12.771  13.920  0.0571 -0.0655 -0.1399
 3571DOPG   C1B64713  11.552  14.310  14.040 -0.1447  0.2007 -0.1013
 3571DOPG   D2B64714  11.250  14.170  14.231  0.0586  0.1317 -0.1579
 3571DOPG   C3B64715  11.012  14.625  14.194 -0.2942 -0.5449  0.2406
 3571DOPG   C4B64716  11.099  15.090  13.911 -0.0297  0.2055  0.1955
 3572DOPG   GL064717  12.057  16.535  15.402  0.2062  0.1452  0.2196
 3572DOPG   PO464718  12.296  16.247  15.258 -0.1285  0.0228 -0.2191
 3572DOPG   GL164719  11.822  16.038  15.439 -0.1748  0.0009 -0.1684
 3572DOPG   GL264720  11.846  16.096  15.772 -0.0531  0.3232  0.0238
 3572DOPG   C1A64721  11.407  15.953  15.601 -0.0075  0.1640 -0.1266
 3572DOPG   D2A64722  11.161  16.071  16.029  0.0983  0.0431 -0.3758
 3572DOPG   C3A64723  11.457  16.252  16.255  0.2271 -0.0641  0.1939
 3572DOPG   C4A64724  11.714  16.425  16.582  0.2602 -0.2705 -0.1195
 3572DOPG   C1B64725  11.653  15.852  16.075  0.1903 -0.0782 -0.2972
 3572DOPG   D2B64726  11.345  15.779  16.417 -0.0339  0.2636 -0.0697
 3572DOPG   C3B64727  11.207  16.074  16.710 -0.1395  0.1343 -0.0074
 3572DOPG   C4B64728  11.319  16.518  16.861 -0.1582 -0.1987 -0.3122
 3573DOPG   GL064729  16.240  15.743  14.928 -0.1291  0.0961  0.2156
 3573DOPG   PO464730  16.212  16.097  15.273 -0.2279  0.0715 -0.3673
 3573DOPG   GL164731  16.019  16.192  15.604 -0.0562 -0.6437  0.6425
 3573DOPG   GL264732  15.606  16.216  15.521  0.0297 -0.0466  0.2608
 3573DOPG   C1A64733  16.180  16.220  16.027  0.0581  0.0532 -0.3086
 3573DOPG   D2A64734  16.035  15.808  16.184 -0.1157  0.0662 -0.3995
 3573DOPG   C3A64735  16.021  15.698  16.556  0.0612 -0.1057 -0.0585
 3573DOPG   C4A64736  15.990  15.738  16.972  0.0657  0.2974 -0.2171
 3573DOPG   C1B64737  15.489  16.201  15.984 -0.2188  0.1109 -0.1219
 3573DOPG   D2B64738  15.417  16.206  16.435 -0.0401 -0.3656 -0.0625
 3573DOPG   C3B64739  15.116  15.942  16.642  0.2844  0.2076 -0.1919
 3573DOPG   C4B64740  14.841  15.508  16.719 -0.2945 -0.2467 -0.4672
 3574DOPG   GL064741  18.211  13.934  16.097 -0.3338  0.3978  0.1827
 3574DOPG   PO464742  17.956  13.866  15.864  0.0018 -0.0940  0.1356
 3574DOPG   GL164743  18.287  13.544  15.740  0.2112 -0.0682 -0.2344
 3574DOPG   GL264744  18.607  13.745  15.887  0.0798 -0.3033  0.3399
 3574DOPG   C1A64745  18.623  13.198  15.692  0.0263 -0.1553 -0.1732
 3574DOPG   D2A64746  19.014  13.272  15.508 -0.3110  0.0465 -0.3677
 3574DOPG   C3A64747  18.966  13.006  15.198 -0.1116 -0.1624 -0.4436
 3574DOPG   C4A64748  18.945  12.863  14.804  0.1265  0.1481 -0.2019
 3574DOPG   C1B64749  18.978  13.659  15.824 -0.2973 -0.0804 -0.1163
 3574DOPG   D2B64750  19.338  13.891  15.682 -0.0301  0.1694  0.0459
 3574DOPG   C3B64751  19.620  13.798  15.352  0.2993  0.3435  0.2488
 3574DOPG   C4B64752  19.866  13.607  15.022  0.1213 -0.2626  0.1104
 3575DOPG   GL064753   9.329  12.874  16.602 -0.1508  0.2243 -0.0273
 3575DOPG   PO464754   9.706  12.799  16.734 -0.4461  0.1644  0.0441
 3575DOPG   GL164755   9.758  12.937  16.234  0.2606 -0.0723  0.0370
 3575DOPG   GL264756   9.328  12.865  16.099 -0.1209 -0.0263  0.2505
 3575DOPG   C1A64757   9.591  13.232  15.936 -0.1225 -0.0839  0.0772
 3575DOPG   D2A64758   9.767  13.628  15.752 -0.0284 -0.0068 -0.2204
 3575DOPG   C3A64759   9.795  13.795  15.352 -0.1057  0.1499 -0.0121
 3575DOPG   C4A64760  10.102  14.087  15.223 -0.0567 -0.1114  0.0934
 3575DOPG   C1B64761   9.195  13.074  15.690 -0.0705 -0.0733  0.3836
 3575DOPG   D2B64762   9.033  13.148  15.198 -0.0355  0.0464  0.3601
 3575DOPG   C3B64763   9.128  13.374  14.824  0.1178  0.0726  0.2323
 3575DOPG   C4B64764   9.002  13.625  14.396 -0.1196 -0.2280 -0.2435
 3576DOPG   GL064765  12.807  16.419  14.347  0.0988  0.0655 -0.2467
 3576DOPG   PO464766  13.165  16.199  14.246 -0.2537  0.0886 -0.0485
 3576DOPG   GL164767  12.910  16.130  13.920 -0.1711  0.1312  0.0185
 3576DOPG   GL264768  12.981  15.765  13.797  0.0201  0.0626 -0.2531
 3576DOPG   C1A64769  12.545  16.220  13.695 -0.0479 -0.1749  0.0294
 3576DOPG   D2A64770  12.108  15.997  13.581 -0.0688 -0.1462  0.3448
 3576DOPG   C3A64771  11.654  16.073  13.492 -0.0773  0.1186  0.2423
 3576DOPG   C4A64772  11.411  15.881  13.168 -0.1366 -0.2423  0.0294
 3576DOPG   C1B64773  13.027  16.068  13.455  0.2500  0.0338 -0.0924
 3576DOPG   D2B64774  12.938  16.195  13.049  0.4525 -0.0675  0.2889
 3576DOPG   C3B64775  12.889  16.639  12.924 -0.0054 -0.0164  0.0964
 3576DOPG   C4B64776  13.106  17.086  12.978  0.0644 -0.0203 -0.0080
 3577DOPG   GL064777  14.150  17.694  14.288 -0.2542 -0.1506  0.1239
 3577DOPG   PO464778  14.296  18.119  14.228  0.1566  0.4770  0.0870
 3577DOPG   GL164779  14.294  18.245  13.873  0.1351  0.0359  0.1851
 3577DOPG   GL264780  14.513  18.434  13.810 -0.1602 -0.3425 -0.0049
 3577DOPG   C1A64781  14.458  18.202  13.388 -0.1232 -0.0999 -0.0069
 3577DOPG   D2A64782  14.784  18.254  13.237  0.0247 -0.2673  0.2915
 3577DOPG   C3A64783  14.742  18.659  13.100  0.1421 -0.1172 -0.0531
 3577DOPG   C4A64784  14.894  18.918  12.746  0.3743 -0.0503 -0.0436
 3577DOPG   C1B64785  14.450  18.709  13.566 -0.3916 -0.1609  0.1401
 3577DOPG   D2B64786  14.228  19.003  13.244 -0.0993  0.5037 -0.0382
 3577DOPG   C3B64787  13.814  18.889  13.063  0.2920  0.0923  0.0574
 3577DOPG   C4B64788  13.589  18.992  12.760  0.1513  0.1019  0.0967
 3578DOPG   GL064789  15.388  20.527  15.870  0.1768 -0.3067 -0.2867
 3578DOPG   PO464790  15.537  20.271  16.156 -0.0101 -0.0019  0.3015
 3578DOPG   GL164791  15.876  20.337  15.885 -0.0388 -0.1026 -0.1317
 3578DOPG   GL264792  15.807  20.658  15.753  0.2331 -0.1738  0.2707
 3578DOPG   C1A64793  16.189  20.422  15.553  0.1387  0.1330  0.1440
 3578DOPG   D2A64794  16.295  20.801  15.444 -0.3489  0.1378 -0.2352
 3578DOPG   C3A64795  16.152  21.125  15.668 -0.0212 -0.2706  0.3557
 3578DOPG   C4A64796  15.735  21.299  15.885 -0.0640 -0.1434  0.0221
 3578DOPG   C1B64797  15.800  20.792  15.395  0.3484  0.1089 -0.3457
 3578DOPG   D2B64798  15.922  20.932  14.985 -0.0252 -0.2344  0.2987
 3578DOPG   C3B64799  16.228  21.244  14.940 -0.1534 -0.0733 -0.0753
 3578DOPG   C4B64800  16.617  21.362  15.165  0.0798  0.0901  0.1426
 3579DOPG   GL064801  13.536  18.107  14.978 -0.3374  0.4631 -0.0035
 3579DOPG   PO464802  13.201  18.422  15.220  0.0904 -0.1049 -0.2442
 3579DOPG   GL164803  13.316  18.496  15.620  0.2502  0.3861 -0.1844
 3579DOPG   GL264804  13.222  18.205  15.974 -0.1925 -0.2024  0.1394
 3579DOPG   C1A64805  13.706  18.437  15.878 -0.3643 -0.0081 -0.1434
 3579DOPG   D2A64806  14.008  18.331  16.174 -0.0154 -0.2490  0.0241
 3579DOPG   C3A64807  14.032  18.386  16.556 -0.0499 -0.2310 -0.2361
 3579DOPG   C4A64808  13.756  18.319  16.871  0.1168  0.0589  0.1276
 3579DOPG   C1B64809  13.025  18.309  16.246 -0.2126  0.0267 -0.1506
 3579DOPG   D2B64810  12.759  18.257  16.484  0.1302 -0.1501  0.1604
 3579DOPG   C3B64811  12.828  18.483  16.888  0.1329 -0.1604  0.3755
 3579DOPG   C4B64812  12.516  18.646  17.128  0.2135 -0.0343  0.3490
 3580DOPG   GL064813   4.890  20.643  15.509  0.0903  0.1334 -0.0785
 3580DOPG   PO464814   5.179  20.378  15.894  0.1367 -0.2076 -0.3059
 3580DOPG   GL164815   5.503  20.135  15.776  0.0449  0.2662  0.0508
 3580DOPG   GL264816   5.821  20.179  15.841 -0.1007  0.0053  0.0408
 3580DOPG   C1A64817   5.636  20.041  15.360  0.0176  0.0944  0.0893
 3580DOPG   D2A64818   5.752  19.766  15.131 -0.0326  0.1319  0.2096
 3580DOPG   C3A64819   6.024  19.389  15.247 -0.2109 -0.2908 -0.2185
 3580DOPG   C4A64820   6.223  19.048  15.555 -0.0530 -0.1171 -0.0119
 3580DOPG   C1B64821   6.078  20.022  15.549  0.0934 -0.0617  0.1084
 3580DOPG   D2B64822   6.366  19.865  15.190 -0.1680  0.0797  0.1486
 3580DOPG   C3B64823   6.500  19.401  15.107  0.2294 -0.1624  0.0512
 3580DOPG   C4B64824   6.641  19.038  15.380 -0.0751  0.2233 -0.1066
 3581DOPG   GL064825  15.846  16.661  14.715  0.1640 -0.2901  0.2359
 3581DOPG   PO464826  15.367  16.658  14.650  0.2391  0.3577 -0.0368
 3581DOPG   GL164827  15.423  16.288  14.453  0.1132 -0.1703 -0.1004
 3581DOPG   GL264828  15.137  16.031  14.635  0.2849  0.0719  0.0925
 3581DOPG   C1A64829  15.581  16.191  13.984 -0.1355  0.1179  0.1222
 3581DOPG   D2A64830  15.760  16.132  13.506  0.0531  0.0748 -0.0845
 3581DOPG   C3A64831  15.504  15.786  13.272  0.1989 -0.0893  0.1048
 3581DOPG   C4A64832  15.204  15.614  13.002 -0.1114 -0.2920 -0.0325
 3581DOPG   C1B64833  14.893  15.560  14.525 -0.1558 -0.0338 -0.1300
 3581DOPG   D2B64834  14.714  15.166  14.610 -0.0744  0.1499  0.2423
 3581DOPG   C3B64835  14.674  14.959  14.317 -0.1175 -0.1911 -0.0792
 3581DOPG   C4B64836  15.003  14.698  14.064  0.0885 -0.0785  0.0562
 3582DOPG   GL064837  16.000  12.933  16.524  0.1232 -0.1296 -0.1780
 3582DOPG   PO464838  16.262  12.788  16.183  0.3480  0.1938 -0.1363
 3582DOPG   GL164839  16.480  12.529  15.814  0.0138 -0.4172  0.0270
 3582DOPG   GL264840  16.489  12.225  15.752  0.0606 -0.2696 -0.1612
 3582DOPG   C1A64841  16.872  12.362  15.491  0.1621 -0.1897  0.3100
 3582DOPG   D2A64842  17.270  12.224  15.310 -0.0237  0.2589 -0.1166
 3582DOPG   C3A64843  17.292  12.021  14.978  0.3632 -0.1440  0.0515
 3582DOPG   C4A64844  17.254  11.651  14.793  0.3739 -0.1949 -0.1489
 3582DOPG   C1B64845  16.612  11.782  15.700  0.0435  0.0516 -0.2430
 3582DOPG   D2B64846  17.062  11.666  15.458  0.1792  0.0319 -0.0450
 3582DOPG   C3B64847  17.163  11.328  15.170  0.1961  0.1547  0.0112
 3582DOPG   C4B64848  17.344  10.967  15.186  0.3917 -0.0028  0.0389
 3583DOPG   GL064849   8.917  15.153  16.856  0.0764 -0.2827  0.1701
 3583DOPG   PO464850   8.970  15.585  16.995 -0.3868  0.1605 -0.2512
 3583DOPG   GL164851   8.765  15.875  16.697  0.3363 -0.1919 -0.1324
 3583DOPG   GL264852   8.467  16.138  16.679  0.1308  0.0178 -0.0495
 3583DOPG   C1A64853   8.757  16.062  16.258 -0.2872 -0.0402 -0.2733
 3583DOPG   D2A64854   9.135  16.184  16.079  0.3139 -0.1738  0.2135
 3583DOPG   C3A64855   9.331  16.085  15.688 -0.1612  0.0036  0.1236
 3583DOPG   C4A64856   9.322  15.825  15.299  0.0157  0.4090  0.1585
 3583DOPG   C1B64857   8.218  15.905  16.386  0.0931 -0.2050 -0.0429
 3583DOPG   D2B64858   8.015  15.445  16.391  0.0199  0.0888 -0.0704
 3583DOPG   C3B64859   8.154  15.290  15.959 -0.2066  0.0664 -0.0849
 3583DOPG   C4B64860   8.419  15.057  15.694  0.1401  0.0895 -0.4950
 3584DOPG   GL064861  15.261  19.823  16.288  0.0719  0.0493 -0.1908
 3584DOPG   PO464862  15.587  19.813  15.928  0.1707 -0.0829  0.2391
 3584DOPG   GL164863  15.990  19.843  15.678  0.1479  0.1836 -0.0369
 3584DOPG   GL264864  16.119  19.938  15.805 -0.0417  0.1084 -0.0484
 3584DOPG   C1A64865  16.000  19.987  15.252  0.1109 -0.2804 -0.0506
 3584DOPG   D2A64866  16.138  20.345  15.046  0.0035 -0.0065 -0.2632
 3584DOPG   C3A64867  16.509  20.343  15.065  0.0565  0.0550  0.0034
 3584DOPG   C4A64868  16.981  20.470  15.038 -0.1452 -0.4241 -0.3397
 3584DOPG   C1B64869  16.464  20.032  15.457 -0.1067 -0.1923  0.2494
 3584DOPG   D2B64870  16.798  19.898  15.082 -0.1370  0.1702 -0.1895
 3584DOPG   C3B64871  17.071  20.075  14.810  0.2471  0.0225  0.0915
 3584DOPG   C4B64872  17.120  20.284  14.442 -0.1235 -0.0863 -0.1984
 3585DOPG   GL064873  17.740  17.063  15.229  0.1107  0.0425 -0.0759
 3585DOPG   PO464874  17.599  16.639  15.066  0.0721  0.0684 -0.5334
 3585DOPG   GL164875  17.920  16.533  15.325  0.0507 -0.2111  0.0173
 3585DOPG   GL264876  17.870  16.784  15.641 -0.0601  0.0308 -0.0240
 3585DOPG   C1A64877  18.191  16.443  15.675  0.1071 -0.0676  0.4234
 3585DOPG   D2A64878  18.102  16.019  15.942  0.2583 -0.2133  0.1508
 3585DOPG   C3A64879  18.445  15.749  16.056 -0.1219  0.2288 -0.0239
 3585DOPG   C4A64880  18.847  15.756  15.943 -0.0675 -0.1218  0.1762
 3585DOPG   C1B64881  17.907  16.682  16.107 -0.0445 -0.0018  0.3020
 3585DOPG   D2B64882  18.152  16.553  16.546 -0.1609 -0.0975  0.0409
 3585DOPG   C3B64883  18.097  16.660  16.964 -0.1448  0.3836 -0.5889
 3585DOPG   C4B64884  18.203  16.705  17.331 -0.1368  0.3249  0.0978
 3586DOPG   GL064885  23.014  19.504  16.561 -0.1381 -0.0203  0.0039
 3586DOPG   PO464886  23.302  19.674  16.826 -0.2322  0.0751  0.1209
 3586DOPG   GL164887  23.570  20.011  16.718  0.1587 -0.1251 -0.1156
 3586DOPG   GL264888  23.790  19.860  16.498 -0.0923  0.0073  0.0304
 3586DOPG   C1A64889  23.888  20.314  16.510  0.1441  0.0853 -0.3005
 3586DOPG   D2A64890  24.228  20.456  16.429 -0.3488  0.2180 -0.0932
 3586DOPG   C3A64891  24.408  20.874  16.262  0.0333 -0.4649  0.2486
 3586DOPG   C4A64892  24.452  21.249  16.044  0.2000  0.2042  0.0637
 3586DOPG   C1B64893  23.927  19.924  16.068  0.2049 -0.0920 -0.0259
 3586DOPG   D2B64894  23.812  20.357  15.940 -0.0197  0.3760 -0.0183
 3586DOPG   C3B64895  23.861  20.726  15.865 -0.1422  0.0833 -0.0636
 3586DOPG   C4B64896  23.940  20.895  15.541  0.2329 -0.0055  0.0707
 3587DOPG   GL064897  12.743  16.009  14.600 -0.1857 -0.1150  0.1055
 3587DOPG   PO464898  12.795  15.780  14.264  0.0138 -0.1364 -0.1888
 3587DOPG   GL164899  12.646  15.397  14.002  0.2165 -0.1376 -0.1121
 3587DOPG   GL264900  12.305  15.470  14.016  0.0882  0.0335  0.3117
 3587DOPG   C1A64901  12.535  15.651  13.521  0.1574  0.0687  0.0616
 3587DOPG   D2A64902  12.513  15.965  13.174  0.4563  0.2412  0.3896
 3587DOPG   C3A64903  12.744  15.879  12.675  0.0873 -0.3245 -0.1639
 3587DOPG   C4A64904  13.038  15.931  12.314  0.2121  0.0927  0.1140
 3587DOPG   C1B64905  12.007  15.536  13.678 -0.2711  0.0100 -0.0659
 3587DOPG   D2B64906  11.707  15.553  13.306 -0.0668  0.3224 -0.2387
 3587DOPG   C3B64907  11.919  15.858  13.104  0.2323  0.1415  0.0296
 3587DOPG   C4B64908  12.074  16.206  13.131 -0.1516  0.0607 -0.1326
 3588DOPG   GL064909  19.226  15.741  19.258  0.0192  0.1328 -0.0557
 3588DOPG   PO464910  19.137  16.026  18.971 -0.0332  0.3402  0.0232
 3588DOPG   GL164911  18.868  16.190  18.699  0.1415 -0.1322  0.0565
 3588DOPG   GL264912  19.043  16.016  18.433  0.4330  0.0810 -0.4525
 3588DOPG   C1A64913  18.644  16.422  18.484 -0.0427  0.2970 -0.1263
 3588DOPG   D2A64914  18.543  16.763  18.135  0.1088 -0.1355  0.0132
 3588DOPG   C3A64915  18.809  17.077  18.112  0.1140  0.0905  0.3847
 3588DOPG   C4A64916  19.098  17.064  17.705  0.1772 -0.0217  0.3848
 3588DOPG   C1B64917  18.901  16.156  18.066 -0.0228 -0.1156  0.0695
 3588DOPG   D2B64918  18.855  16.549  17.781 -0.0611  0.1398  0.0988
 3588DOPG   C3B64919  18.597  16.432  17.465  0.1369  0.2011 -0.0912
 3588DOPG   C4B64920  18.429  16.195  17.186  0.1405 -0.5938  0.3574
 3589DOPG   GL064921  11.678  11.635  16.095 -0.0436  0.0820 -0.2858
 3589DOPG   PO464922  11.732  11.324  15.860  0.0399 -0.3229 -0.0170
 3589DOPG   GL164923  11.471  11.313  15.488  0.3762  0.0480  0.0528
 3589DOPG   GL264924  11.221  11.391  15.485 -0.0803 -0.0080 -0.2435
 3589DOPG   C1A64925  11.735  11.290  15.108  0.0443  0.2024 -0.2722
 3589DOPG   D2A64926  11.882  10.953  14.876 -0.1470 -0.1567  0.0689
 3589DOPG   C3A64927  11.836  10.894  14.444 -0.3864  0.1808  0.0994
 3589DOPG   C4A64928  11.502  10.765  14.112  0.0919  0.1250  0.2414
 3589DOPG   C1B64929  11.242  11.330  15.015 -0.0269  0.2045  0.2529
 3589DOPG   D2B64930  10.948  11.372  14.625  0.2166  0.0592  0.1313
 3589DOPG   C3B64931  10.496  11.259  14.695  0.2882 -0.0848  0.2230
 3589DOPG   C4B64932  10.143  11.026  14.702  0.0242 -0.2967  0.0192
 3590DOPG   GL064933   7.598  21.455  16.896 -0.2057 -0.0721 -0.0941
 3590DOPG   PO464934   7.813  21.845  16.772 -0.3091 -0.1331  0.3069
 3590DOPG   GL164935   7.961  21.963  16.422  0.2081 -0.5438 -0.0448
 3590DOPG   GL264936   8.247  21.868  16.258  0.1113 -0.0450 -0.0252
 3590DOPG   C1A64937   8.008  22.399  16.132 -0.0959 -0.0741 -0.1120
 3590DOPG   D2A64938   8.067  22.574  15.741  0.2873 -0.1114  0.0740
 3590DOPG   C3A64939   8.238  22.436  15.387 -0.1611 -0.0322  0.2517
 3590DOPG   C4A64940   8.186  22.146  15.117  0.1994  0.2612  0.0506
 3590DOPG   C1B64941   8.611  22.055  16.121 -0.0344  0.1915  0.0514
 3590DOPG   D2B64942   8.645  22.473  15.739 -0.1823 -0.0150  0.0221
 3590DOPG   C3B64943   8.553  22.874  15.890  0.2384  0.0766  0.1268
 3590DOPG   C4B64944   8.393  23.201  15.988  0.1543  0.1247 -0.0679
 3591DOPG   GL064945  12.686  19.547  14.886  0.0543  0.0909 -0.4657
 3591DOPG   PO464946  12.674  19.109  14.946  0.2657 -0.1745 -0.2092
 3591DOPG   GL164947  12.286  19.251  14.937  0.2506 -0.3018 -0.3830
 3591DOPG   GL264948  12.060  19.085  14.879 -0.2325 -0.1678 -0.0935
 3591DOPG   C1A64949  11.923  19.634  14.966 -0.0801  0.1885 -0.2128
 3591DOPG   D2A64950  11.550  19.947  15.072  0.0364 -0.0689 -0.0560
 3591DOPG   C3A64951  11.205  20.185  14.866 -0.4314 -0.0146  0.1404
 3591DOPG   C4A64952  10.944  20.462  14.662  0.0894 -0.0362 -0.1240
 3591DOPG   C1B64953  11.706  19.184  14.723 -0.1412 -0.2825 -0.3173
 3591DOPG   D2B64954  11.290  19.209  14.691  0.2421  0.0397  0.0327
 3591DOPG   C3B64955  11.039  19.571  14.924 -0.1008 -0.0156  0.1530
 3591DOPG   C4B64956  10.762  19.868  14.724  0.2767 -0.0243 -0.0185
 3592DOPG   GL064957  23.300  18.371  16.995  0.2121  0.1207 -0.1042
 3592DOPG   PO464958  23.467  18.101  16.788  0.1655 -0.2956  0.1539
 3592DOPG   GL164959  23.722  17.977  16.471 -0.1605  0.2386  0.0982
 3592DOPG   GL264960  24.112  18.014  16.574  0.0290 -0.0013  0.0041
 3592DOPG   C1A64961  23.937  17.939  16.069  0.3573  0.2167 -0.0603
 3592DOPG   D2A64962  23.654  18.091  15.717 -0.1968 -0.1382 -0.1386
 3592DOPG   C3A64963  23.674  18.309  15.387  0.0108  0.1306  0.0327
 3592DOPG   C4A64964  23.533  18.471  15.008 -0.1518 -0.3396  0.1335
 3592DOPG   C1B64965  24.337  17.710  16.304  0.1944  0.1687 -0.1426
 3592DOPG   D2B64966  24.314  17.488  15.846  0.0143 -0.0918 -0.1674
 3592DOPG   C3B64967  24.206  17.067  15.729  0.3675 -0.0637 -0.1376
 3592DOPG   C4B64968  24.036  16.785  15.379  0.0024 -0.1021  0.1732
 3593DOPG   GL064969  11.516  11.225  16.352  0.0434 -0.2046 -0.2863
 3593DOPG   PO464970  11.478  11.006  16.118  0.4748 -0.0632  0.1420
 3593DOPG   GL164971  11.328  10.906  15.790  0.0661 -0.0470 -0.1434
 3593DOPG   GL264972  11.053  11.011  15.723  0.0595  0.2391  0.2712
 3593DOPG   C1A64973  11.391  10.896  15.196 -0.2567  0.2165  0.0345
 3593DOPG   D2A64974  10.932  10.955  14.978 -0.3570  0.0191  0.1510
 3593DOPG   C3A64975  10.960  10.909  14.453 -0.1099  0.1649 -0.1709
 3593DOPG   C4A64976  10.957  10.956  14.113  0.0118  0.1692 -0.2248
 3593DOPG   C1B64977  10.848  10.806  15.481  0.2265  0.1179  0.1077
 3593DOPG   D2B64978  10.937  10.437  15.316 -0.1999  0.0841  0.3875
 3593DOPG   C3B64979  10.902  10.137  15.033  0.1690 -0.0048 -0.3585
 3593DOPG   C4B64980  10.853  10.061  14.592 -0.0673  0.0318 -0.4529
 3594DOPG   GL064981  10.546  19.370  17.197 -0.1257 -0.1930 -0.2574
 3594DOPG   PO464982  10.866  19.589  17.275  0.0394 -0.1059  0.3468
 3594DOPG   GL164983  11.018  19.432  16.846 -0.1016 -0.2197 -0.0172
 3594DOPG   GL264984  10.728  19.391  16.629 -0.0731 -0.1291  0.1752
 3594DOPG   C1A64985  11.342  19.239  16.490  0.1530  0.5146  0.2009
 3594DOPG   D2A64986  11.478  19.263  16.091  0.1162 -0.1423  0.1214
 3594DOPG   C3A64987  11.332  19.297  15.720  0.0634  0.1504 -0.0448
 3594DOPG   C4A64988  11.042  19.495  15.460  0.2175 -0.1887 -0.0956
 3594DOPG   C1B64989  10.900  19.191  16.212 -0.0761 -0.0351 -0.1139
 3594DOPG   D2B64990  10.882  18.958  15.930 -0.2309  0.0320 -0.3665
 3594DOPG   C3B64991  11.311  18.765  15.845  0.0415  0.2828  0.1047
 3594DOPG   C4B64992  11.537  18.373  15.936 -0.0371 -0.2212  0.0530
 3595DOPG   GL064993   8.823  17.943  16.756  0.2124  0.0322  0.1196
 3595DOPG   PO464994   9.225  18.060  16.583  0.1949 -0.1207 -0.4365
 3595DOPG   GL164995   9.030  17.784  16.338  0.0197 -0.0127  0.3121
 3595DOPG   GL264996   8.942  17.834  16.080 -0.1379 -0.0830  0.1016
 3595DOPG   C1A64997   9.261  17.481  16.020 -0.1053 -0.2441 -0.0056
 3595DOPG   D2A64998   9.242  17.061  15.735  0.0995  0.2285  0.2388
 3595DOPG   C3A64999   9.520  16.744  15.991 -0.3831  0.0246 -0.0637
 3595DOPG   C4A65000   9.908  16.710  15.930 -0.2162  0.0850 -0.2385
 3595DOPG   C1B65001   9.047  17.926  15.622  0.1406  0.0478 -0.2859
 3595DOPG   D2B65002   8.997  18.312  15.406  0.0237 -0.3121  0.1261
 3595DOPG   C3B65003   9.283  18.572  15.255  0.2864 -0.3221 -0.0392
 3595DOPG   C4B65004   9.252  18.821  14.882 -0.3058 -0.0687 -0.3321
 3596DOPG   GL065005  13.091  20.279  15.872 -0.2254  0.0845  0.1121
 3596DOPG   PO465006  13.054  20.703  15.966  0.2056 -0.1246 -0.0334
 3596DOPG   GL165007  12.747  20.998  15.763  0.1733 -0.1477 -0.0313
 3596DOPG   GL265008  12.413  20.646  15.681 -0.0162 -0.1617  0.3378
 3596DOPG   C1A65009  12.607  21.236  15.330 -0.0415 -0.2492 -0.0501
 3596DOPG   D2A65010  12.623  21.372  14.845  0.1828 -0.2552  0.3049
 3596DOPG   C3A65011  12.851  21.689  14.660 -0.1045  0.4905 -0.0235
 3596DOPG   C4A65012  13.204  21.883  14.690  0.0149 -0.1199  0.0079
 3596DOPG   C1B65013  12.418  20.632  15.280 -0.2202  0.0816  0.1678
 3596DOPG   D2B65014  12.537  20.875  14.950 -0.2079 -0.0142  0.0142
 3596DOPG   C3B65015  12.087  20.979  14.686  0.3242  0.0454  0.1501
 3596DOPG   C4B65016  11.926  20.637  14.388  0.1003  0.1011 -0.1734
 3597DOPG   GL065017  13.265  13.478  15.492  0.0323 -0.0169  0.3622
 3597DOPG   PO465018  12.769  13.379  15.510  0.0484 -0.0259 -0.1878
 3597DOPG   GL165019  12.374  13.451  15.616  0.2445  0.1818 -0.0894
 3597DOPG   GL265020  12.094  13.512  15.524 -0.1185 -0.2060  0.1068
 3597DOPG   C1A65021  11.914  13.461  15.965 -0.2499 -0.1781 -0.1902
 3597DOPG   D2A65022  11.515  13.568  16.010 -0.2301  0.0396  0.1639
 3597DOPG   C3A65023  11.334  13.187  16.147 -0.0133  0.0521  0.3309
 3597DOPG   C4A65024  11.283  12.817  15.955 -0.3511  0.0756  0.1422
 3597DOPG   C1B65025  11.600  13.727  15.570 -0.2421  0.0327 -0.1714
 3597DOPG   D2B65026  11.695  14.143  15.365  0.1549  0.0140  0.3052
 3597DOPG   C3B65027  11.434  14.344  15.040  0.0088  0.0095 -0.1580
 3597DOPG   C4B65028  11.540  14.408  14.576 -0.1796 -0.0128  0.1374
 3598DOPG   GL065029  22.491  20.181  17.321  0.0327 -0.1335 -0.0391
 3598DOPG   PO465030  22.813  20.414  17.234 -0.0707  0.2272 -0.0914
 3598DOPG   GL165031  22.904  20.747  16.947 -0.1401  0.0312 -0.2538
 3598DOPG   GL265032  22.808  21.107  16.995  0.1258  0.1023  0.2283
 3598DOPG   C1A65033  23.023  20.876  16.489  0.2023 -0.1048 -0.2370
 3598DOPG   D2A65034  23.432  21.300  16.323  0.1192  0.0174 -0.0716
 3598DOPG   C3A65035  23.670  21.366  16.690 -0.1280  0.0325  0.2662
 3598DOPG   C4A65036  24.042  21.325  16.937 -0.0672 -0.1266  0.4362
 3598DOPG   C1B65037  23.092  21.324  16.725 -0.1294  0.2870  0.2801
 3598DOPG   D2B65038  23.150  21.694  16.384  0.0888 -0.0898  0.1268
 3598DOPG   C3B65039  22.804  21.778  16.141  0.1691  0.1023  0.1831
 3598DOPG   C4B65040  22.518  22.086  15.925  0.0971  0.2266  0.0863
 3599DOPG   GL065041  23.832  19.646  16.986 -0.1300 -0.0674  0.1578
 3599DOPG   PO465042  24.096  19.519  16.677 -0.2245 -0.1099  0.1089
 3599DOPG   GL165043  24.326  19.729  16.327 -0.1217 -0.3284  0.1857
 3599DOPG   GL265044  24.643  19.638  16.522 -0.0585  0.4689  0.2233
 3599DOPG   C1A65045  24.386  20.079  16.036 -0.0720  0.2509 -0.1816
 3599DOPG   D2A65046  24.309  20.311  15.667 -0.0995  0.0818  0.1210
 3599DOPG   C3A65047  23.937  20.395  15.444  0.0030 -0.3618 -0.2374
 3599DOPG   C4A65048  23.501  20.297  15.138 -0.0326 -0.0267 -0.0634
 3599DOPG   C1B65049  24.996  19.542  16.345  0.0309  0.1068 -0.1216
 3599DOPG   D2B65050  25.372  19.563  16.051 -0.1509  0.0272 -0.3385
 3599DOPG   C3B65051  25.432  19.156  15.741  0.0129  0.3448  0.2988
 3599DOPG   C4B65052  25.680  19.148  15.342 -0.1149  0.0844 -0.0229
 3600DOPG   GL065053  13.207  12.971  15.499 -0.0384 -0.1462 -0.0774
 3600DOPG   PO465054  13.116  13.055  15.953 -0.2290 -0.0930 -0.2275
 3600DOPG   GL165055  12.744  13.341  16.133 -0.1882  0.1440 -0.1715
 3600DOPG   GL265056  12.686  13.667  15.962 -0.1572 -0.0802  0.1300
 3600DOPG   C1A65057  12.618  13.657  16.509 -0.0310 -0.2687  0.4013
 3600DOPG   D2A65058  12.405  13.659  16.897  0.0039  0.1318 -0.2332
 3600DOPG   C3A65059  11.950  13.526  16.988 -0.0733  0.0036  0.1935
 3600DOPG   C4A65060  11.538  13.579  17.052 -0.1822 -0.1696 -0.0762
 3600DOPG   C1B65061  12.211  13.895  16.026  0.1086 -0.1713 -0.0629
 3600DOPG   D2B65062  11.928  14.155  15.808 -0.3189 -0.1436  0.1172
 3600DOPG   C3B65063  11.492  14.198  15.921  0.1062 -0.2050  0.1463
 3600DOPG   C4B65064  11.231  13.955  16.143  0.1374 -0.2091  0.0037
 3601DOPG   GL065065  13.233  17.273  14.324  0.0886 -0.2082 -0.1417
 3601DOPG   PO465066  13.042  17.180  13.989 -0.1750 -0.0669 -0.2994
 3601DOPG   GL165067  13.159  17.244  13.587  0.0518 -0.4200 -0.0324
 3601DOPG   GL265068  13.015  17.020  13.457 -0.1023 -0.0425  0.3141
 3601DOPG   C1A65069  12.964  17.504  13.238 -0.2234  0.0603  0.0606
 3601DOPG   D2A65070  12.658  17.470  12.837  0.3655 -0.1009 -0.3909
 3601DOPG   C3A65071  12.711  17.652  12.500  0.1921 -0.1060  0.2952
 3601DOPG   C4A65072  12.438  17.970  12.365  0.3218  0.6781 -0.0351
 3601DOPG   C1B65073  13.308  16.697  13.269 -0.0304 -0.0514 -0.0209
 3601DOPG   D2B65074  13.540  16.276  13.384 -0.0524  0.4747 -0.0595
 3601DOPG   C3B65075  13.497  15.937  13.160 -0.0092 -0.2892 -0.0230
 3601DOPG   C4B65076  13.300  15.696  12.781  0.0301 -0.0595 -0.0024
 3602DOPG   GL065077  12.211  11.204  17.417 -0.1499  0.0446  0.2560
 3602DOPG   PO465078  12.297  10.956  17.024 -0.3798  0.0197  0.0160
 3602DOPG   GL165079  12.334  10.498  16.936 -0.1131 -0.2148  0.1170
 3602DOPG   GL265080  12.668  10.350  17.138 -0.1222 -0.0929 -0.2058
 3602DOPG   C1A65081  12.283  10.172  16.639  0.0040  0.0328 -0.1085
 3602DOPG   D2A65082  12.322   9.624  16.696 -0.2320 -0.2337  0.2749
 3602DOPG   C3A65083  12.415   9.323  16.529 -0.0512 -0.1263  0.2882
 3602DOPG   C4A65084  12.590   9.164  16.181 -0.0195 -0.0633  0.0863
 3602DOPG   C1B65085  12.505   9.951  17.085  0.3183 -0.0558  0.1385
 3602DOPG   D2B65086  12.269   9.454  17.122 -0.3671  0.0483  0.0209
 3602DOPG   C3B65087  12.363   9.112  16.997 -0.0014 -0.0311 -0.1765
 3602DOPG   C4B65088  12.522   8.747  17.058 -0.1268  0.1679 -0.1150
 3603DOPG   GL065089  12.809  13.178  15.086  0.0290  0.1310 -0.0751
 3603DOPG   PO465090  12.475  13.024  15.253  0.1179 -0.1549 -0.0068
 3603DOPG   GL165091  12.028  12.973  15.174 -0.1884 -0.0015  0.3719
 3603DOPG   GL265092  11.946  13.366  15.080 -0.1548 -0.1068  0.3007
 3603DOPG   C1A65093  11.569  12.969  14.992  0.0749 -0.1064 -0.2309
 3603DOPG   D2A65094  11.337  13.253  14.642 -0.1493 -0.0956 -0.2140
 3603DOPG   C3A65095  11.047  13.458  14.618  0.0574  0.1759 -0.0541
 3603DOPG   C4A65096  10.952  13.780  14.362  0.0142  0.0365  0.1568
 3603DOPG   C1B65097  11.487  13.483  15.142  0.0722 -0.1216 -0.2898
 3603DOPG   D2B65098  11.149  13.599  15.426 -0.4121  0.0047 -0.0998
 3603DOPG   C3B65099  11.107  13.912  15.683  0.2509 -0.1419 -0.0851
 3603DOPG   C4B65100  10.993  14.319  15.938 -0.1087 -0.1587  0.0755
 3604DOPG   GL065101  19.541  17.965  15.657 -0.0022 -0.0610 -0.0710
 3604DOPG   PO465102  19.398  17.650  15.706 -0.1328 -0.2926  0.2553
 3604DOPG   GL165103  19.253  17.525  16.054 -0.1361  0.1408 -0.0381
 3604DOPG   GL265104  18.989  17.784  16.107 -0.0532  0.0929 -0.2410
 3604DOPG   C1A65105  19.125  17.194  16.273 -0.0413  0.0044  0.4261
 3604DOPG   D2A65106  18.971  17.008  16.708  0.1131 -0.1659 -0.2599
 3604DOPG   C3A65107  19.099  16.713  16.744 -0.1601 -0.2047 -0.0627
 3604DOPG   C4A65108  19.388  16.517  16.508 -0.1092 -0.2405 -0.2244
 3604DOPG   C1B65109  18.991  17.509  16.603 -0.0475  0.0527 -0.2377
 3604DOPG   D2B65110  18.937  17.488  17.107  0.1528 -0.2634 -0.1030
 3604DOPG   C3B65111  18.668  17.802  17.278  0.2263  0.0370 -0.1402
 3604DOPG   C4B65112  18.337  17.971  17.555 -0.1151  0.1227 -0.0624
 3605DOPG   GL065113  13.300  15.711  14.192  0.0975 -0.1834  0.1863
 3605DOPG   PO465114  13.478  15.627  13.738  0.1424  0.0687 -0.0871
 3605DOPG   GL165115  13.255  15.579  13.377 -0.2648 -0.0909  0.0080
 3605DOPG   GL265116  13.422  15.334  13.239  0.0466  0.1290  0.0020
 3605DOPG   C1A65117  12.915  15.609  13.095 -0.0631  0.0628  0.0007
 3605DOPG   D2A65118  12.442  15.551  12.961 -0.1465  0.0272  0.1106
 3605DOPG   C3A65119  12.309  15.571  12.647  0.5571  0.4793 -0.0706
 3605DOPG   C4A65120  11.887  15.673  12.422  0.1490  0.0696  0.0042
 3605DOPG   C1B65121  13.828  15.543  13.016  0.0595 -0.2258 -0.1390
 3605DOPG   D2B65122  14.038  15.745  12.859 -0.0298  0.1733  0.1489
 3605DOPG   C3B65123  14.223  15.671  12.416 -0.3232  0.2938  0.0587
 3605DOPG   C4B65124  14.267  15.804  11.989  0.0420 -0.1032  0.0317
 3606DOPG   GL065125  20.035  15.715  19.182  0.0023 -0.0687 -0.0589
 3606DOPG   PO465126  19.690  15.852  18.859 -0.1032  0.0043  0.1200
 3606DOPG   GL165127  19.554  16.198  18.642  0.0773  0.0270  0.2608
 3606DOPG   GL265128  19.454  16.187  18.217  0.1175  0.0071 -0.3037
 3606DOPG   C1A65129  19.236  16.519  18.513 -0.2938 -0.0426  0.0645
 3606DOPG   D2A65130  19.196  16.697  18.139  0.0967  0.2988  0.1517
 3606DOPG   C3A65131  19.447  17.098  18.096 -0.1202  0.1257  0.2071
 3606DOPG   C4A65132  19.546  17.490  17.950 -0.0171  0.0349 -0.2818
 3606DOPG   C1B65133  19.355  16.268  17.760  0.1310  0.0202 -0.0958
 3606DOPG   D2B65134  18.951  16.145  17.447 -0.2727  0.1696 -0.0382
 3606DOPG   C3B65135  18.981  16.227  17.156  0.2320 -0.0475  0.0866
 3606DOPG   C4B65136  19.386  16.247  16.904  0.1664 -0.2154 -0.1693
 3607DOPG   GL065137  21.810  18.687  16.792 -0.0989  0.2499 -0.1974
 3607DOPG   PO465138  21.510  18.608  16.538 -0.0126  0.0811  0.0277
 3607DOPG   GL165139  21.597  18.746  16.098  0.0925 -0.1432 -0.0621
 3607DOPG   GL265140  21.504  19.037  16.274 -0.0591 -0.0213  0.2284
 3607DOPG   C1A65141  21.553  18.567  15.735  0.0361  0.0103  0.0395
 3607DOPG   D2A65142  21.514  18.131  15.583  0.0585 -0.4992  0.2268
 3607DOPG   C3A65143  21.676  18.151  15.177 -0.0847 -0.0887  0.0889
 3607DOPG   C4A65144  21.532  18.304  14.714  0.0145 -0.1594 -0.1263
 3607DOPG   C1B65145  21.341  19.189  15.860  0.2580  0.1221 -0.1342
 3607DOPG   D2B65146  21.567  19.002  15.548 -0.0140  0.0467  0.1949
 3607DOPG   C3B65147  21.846  19.310  15.353  0.1049  0.1705  0.1611
 3607DOPG   C4B65148  22.158  19.663  15.091  0.0220 -0.0648  0.1141
 3608DOPG   GL065149  14.728  20.866  16.585  0.1815 -0.0724 -0.1996
 3608DOPG   PO465150  14.375  21.130  16.627 -0.1118  0.0126  0.0769
 3608DOPG   GL165151  14.270  21.444  16.336  0.4440  0.4788  0.0837
 3608DOPG   GL265152  14.079  21.731  16.134 -0.2326 -0.0899  0.1624
 3608DOPG   C1A65153  14.565  21.669  16.086  0.2125 -0.1666 -0.0422
 3608DOPG   D2A65154  14.883  22.013  16.107 -0.0932 -0.0371  0.1994
 3608DOPG   C3A65155  14.769  22.422  16.354  0.2763 -0.2051 -0.0900
 3608DOPG   C4A65156  14.582  22.680  16.680 -0.1141  0.0814  0.3370
 3608DOPG   C1B65157  14.351  22.114  16.229 -0.5711  0.1929  0.1185
 3608DOPG   D2B65158  14.352  22.591  16.171 -0.1334  0.0965  0.2548
 3608DOPG   C3B65159  13.961  22.778  15.998  0.4142  0.0029 -0.2285
 3608DOPG   C4B65160  13.659  22.536  15.731  0.2360 -0.0380 -0.3910
 3609DOPG   GL065161  13.911  14.199  15.725  0.3786 -0.1726  0.1548
 3609DOPG   PO465162  13.710  14.024  16.174 -0.1776  0.3194  0.0123
 3609DOPG   GL165163  13.902  14.441  16.173 -0.2501 -0.3062  0.0282
 3609DOPG   GL265164  14.274  14.490  16.213  0.2358 -0.0224 -0.0976
 3609DOPG   C1A65165  14.008  14.906  16.362  0.2477  0.3925  0.3625
 3609DOPG   D2A65166  14.149  15.057  16.656  0.2121 -0.3025  0.0369
 3609DOPG   C3A65167  14.328  15.495  16.642 -0.3641  0.0656  0.0372
 3609DOPG   C4A65168  14.521  15.823  16.515 -0.0776  0.3354 -0.2305
 3609DOPG   C1B65169  14.255  14.535  16.638 -0.1049  0.0912  0.0453
 3609DOPG   D2B65170  14.393  14.774  16.971  0.2046  0.0040  0.1950
 3609DOPG   C3B65171  14.493  15.167  17.011  0.1894  0.0763  0.0173
 3609DOPG   C4B65172  14.512  15.638  17.126 -0.0755 -0.0700 -0.0336
 3610DOPG   GL065173  22.910  16.796  16.799  0.0962 -0.0657  0.1036
 3610DOPG   PO465174  23.237  17.030  16.933  0.2973 -0.3697 -0.0901
 3610DOPG   GL165175  23.326  17.099  16.628  0.1588  0.2493  0.2333
 3610DOPG   GL265176  23.576  17.047  16.563  0.0877  0.2479  0.1772
 3610DOPG   C1A65177  23.392  17.297  16.130  0.1306 -0.1001  0.1732
 3610DOPG   D2A65178  23.745  17.567  15.771  0.1823  0.0066  0.1929
 3610DOPG   C3A65179  24.058  17.508  15.405  0.1433 -0.3496  0.2196
 3610DOPG   C4A65180  24.388  17.489  15.094  0.0042  0.2159  0.0111
 3610DOPG   C1B65181  23.627  16.790  16.295  0.0548 -0.0287 -0.1618
 3610DOPG   D2B65182  23.938  16.625  15.984  0.2678  0.2337  0.1094
 3610DOPG   C3B65183  24.323  16.617  15.931  0.1815  0.2088  0.0911
 3610DOPG   C4B65184  24.677  16.663  15.619  0.0375  0.1308  0.1139
 3611DOPG   GL065185  13.750  13.418  15.346  0.0416 -0.0367  0.5231
 3611DOPG   PO465186  13.503  13.779  15.187 -0.0635 -0.0787 -0.0575
 3611DOPG   GL165187  13.538  13.608  14.769  0.0615 -0.0469  0.1470
 3611DOPG   GL265188  13.372  13.869  14.597  0.0581  0.0146 -0.0635
 3611DOPG   C1A65189  13.579  13.498  14.344 -0.1937 -0.4269  0.0594
 3611DOPG   D2A65190  13.811  13.673  13.992 -0.2109  0.0736  0.3447
 3611DOPG   C3A65191  14.104  13.558  13.671  0.1977 -0.3112  0.0533
 3611DOPG   C4A65192  14.201  13.109  13.284  0.0181  0.0980  0.2668
 3611DOPG   C1B65193  13.759  13.952  14.393  0.1417 -0.1109  0.1012
 3611DOPG   D2B65194  14.076  13.973  14.328  0.1531 -0.0995  0.0586
 3611DOPG   C3B65195  14.274  14.311  14.200 -0.1570  0.0014 -0.0285
 3611DOPG   C4B65196  14.317  14.647  14.531 -0.2785 -0.2292  0.0744
 3612DOPG   GL065197  12.654  18.279  15.099  0.2975 -0.1355 -0.3012
 3612DOPG   PO465198  12.273  18.260  15.323 -0.1161 -0.2227 -0.2280
 3612DOPG   GL165199  11.868  18.058  15.404  0.1367 -0.2245 -0.1423
 3612DOPG   GL265200  11.683  18.036  15.130 -0.1357  0.0545  0.1743
 3612DOPG   C1A65201  11.510  18.045  15.639  0.1370  0.1927  0.1085
 3612DOPG   D2A65202  11.165  18.260  15.605 -0.2593 -0.0507  0.1082
 3612DOPG   C3A65203  10.996  18.707  15.468  0.2203  0.2242  0.1067
 3612DOPG   C4A65204  11.221  18.833  15.070 -0.3329 -0.1406  0.0023
 3612DOPG   C1B65205  11.409  18.361  15.030 -0.0131  0.1766 -0.3128
 3612DOPG   D2B65206  10.897  18.388  15.139 -0.0501 -0.1936  0.0838
 3612DOPG   C3B65207  10.542  18.743  15.156 -0.1799 -0.0142  0.0940
 3612DOPG   C4B65208  10.192  18.824  14.821 -0.3564  0.0823  0.3152
 3613DOPG   GL065209   8.444  20.352  16.651 -0.2349  0.2644  0.5213
 3613DOPG   PO465210   8.747  20.527  16.484 -0.0468  0.1461  0.2956
 3613DOPG   GL165211   8.460  20.827  16.217 -0.1462 -0.0267  0.1148
 3613DOPG   GL265212   8.199  20.596  16.185  0.1441 -0.0491  0.0733
 3613DOPG   C1A65213   8.515  21.035  15.752 -0.1592 -0.2755  0.1862
 3613DOPG   D2A65214   8.466  21.184  15.350 -0.0477 -0.0537  0.0233
 3613DOPG   C3A65215   8.401  21.708  15.270 -0.1133 -0.1958  0.0531
 3613DOPG   C4A65216   8.563  22.006  15.375  0.2540  0.1625 -0.0075
 3613DOPG   C1B65217   8.352  20.560  15.781  0.3310  0.1301 -0.0098
 3613DOPG   D2B65218   8.560  20.678  15.279 -0.0344  0.2107 -0.1354
 3613DOPG   C3B65219   8.401  20.894  14.934 -0.1310 -0.1402  0.0463
 3613DOPG   C4B65220   8.333  20.962  14.470 -0.2738  0.2134  0.1203
 3614DOPG   GL065221  17.250  20.888  16.658 -0.1665 -0.0716  0.2483
 3614DOPG   PO465222  17.706  20.871  16.716 -0.2436 -0.0667 -0.1657
 3614DOPG   GL165223  17.655  21.124  16.354  0.0175 -0.1567 -0.0251
 3614DOPG   GL265224  17.630  20.901  16.198 -0.2043  0.3823  0.0253
 3614DOPG   C1A65225  17.366  21.385  16.028  0.0671  0.0511  0.2269
 3614DOPG   D2A65226  17.036  21.471  15.838  0.1559  0.0516 -0.0790
 3614DOPG   C3A65227  17.091  21.478  15.455 -0.1325 -0.0391  0.2007
 3614DOPG   C4A65228  17.168  21.431  15.041  0.0770 -0.0785  0.1098
 3614DOPG   C1B65229  17.660  21.066  15.717 -0.0794  0.1411  0.0551
 3614DOPG   D2B65230  17.695  21.158  15.353  0.4034 -0.1889  0.2783
 3614DOPG   C3B65231  17.684  21.452  15.046 -0.0884 -0.2146 -0.0892
 3614DOPG   C4B65232  17.939  21.422  14.654  0.1137  0.1039  0.2036
 3615DOPG   GL065233  19.547  19.279  15.701 -0.1647 -0.2424 -0.2322
 3615DOPG   PO465234  19.901  19.349  15.606  0.2112 -0.1309 -0.1770
 3615DOPG   GL165235  20.213  19.155  15.272  0.0723 -0.0055 -0.5501
 3615DOPG   GL265236  20.151  19.223  15.034 -0.1836 -0.2020  0.2099
 3615DOPG   C1A65237  20.657  19.453  15.189  0.0775 -0.0259  0.0533
 3615DOPG   D2A65238  21.036  19.635  15.042 -0.0305 -0.0243  0.0280
 3615DOPG   C3A65239  21.033  19.875  14.611  0.4828  0.0695  0.1084
 3615DOPG   C4A65240  20.763  20.071  14.485 -0.2595 -0.0790 -0.1681
 3615DOPG   C1B65241  20.140  19.095  14.685  0.3571 -0.0283  0.0314
 3615DOPG   D2B65242  20.037  19.202  14.280  0.0458  0.0912 -0.0922
 3615DOPG   C3B65243  20.055  18.854  13.946 -0.3917 -0.1304  0.0435
 3615DOPG   C4B65244  19.911  18.455  13.631 -0.1431 -0.0127  0.0172
 3616DOPG   GL065245  13.322  15.860  14.831 -0.0721  0.2501  0.4371
 3616DOPG   PO465246  13.543  15.534  14.588 -0.0259  0.1023  0.0939
 3616DOPG   GL165247  13.589  15.066  14.412  0.0149  0.0590  0.2212
 3616DOPG   GL265248  13.686  14.838  14.605 -0.0869  0.0727  0.1018
 3616DOPG   C1A65249  13.641  14.797  14.071  0.0526 -0.3751 -0.0371
 3616DOPG   D2A65250  13.307  14.628  13.837  0.2441  0.2372  0.0409
 3616DOPG   C3A65251  13.198  14.863  13.483 -0.2360  0.2419  0.0859
 3616DOPG   C4A65252  13.067  15.013  13.059  0.1137 -0.3757 -0.0798
 3616DOPG   C1B65253  13.901  14.493  14.364  0.4027 -0.1903  0.3029
 3616DOPG   D2B65254  13.696  14.299  14.027  0.0374 -0.0793  0.2140
 3616DOPG   C3B65255  13.961  14.198  13.803 -0.0003 -0.0055  0.1982
 3616DOPG   C4B65256  14.123  14.018  13.393 -0.2165  0.0710  0.3145
 3617DOPG   GL065257  12.283  17.314  15.608  0.0721 -0.0493  0.2844
 3617DOPG   PO465258  12.655  17.523  15.649 -0.1265 -0.0105 -0.1508
 3617DOPG   GL165259  12.675  17.441  16.170  0.0297 -0.1563 -0.0844
 3617DOPG   GL265260  12.606  17.057  16.189 -0.0805 -0.0837  0.2269
 3617DOPG   C1A65261  12.844  17.603  16.458 -0.2257 -0.0552  0.0868
 3617DOPG   D2A65262  12.675  17.769  16.894 -0.0420 -0.1117  0.1473
 3617DOPG   C3A65263  13.015  17.986  17.162  0.0730  0.3195 -0.1331
 3617DOPG   C4A65264  12.984  18.470  17.335 -0.0961  0.0182  0.2146
 3617DOPG   C1B65265  12.634  17.175  16.609 -0.2911  0.0180 -0.0336
 3617DOPG   D2B65266  12.619  17.327  17.087 -0.1014  0.0148 -0.0549
 3617DOPG   C3B65267  12.184  17.507  17.358  0.2253  0.1160 -0.3254
 3617DOPG   C4B65268  11.735  17.605  17.226  0.1318  0.1765  0.0314
 3618DOPG   GL065269  19.822  15.522  18.486 -0.1663 -0.2788 -0.1176
 3618DOPG   PO465270  19.457  15.669  18.199 -0.0182  0.0524 -0.0409
 3618DOPG   GL165271  19.132  15.717  17.965 -0.1516 -0.1520 -0.0928
 3618DOPG   GL265272  19.299  15.528  17.766 -0.0944  0.1511 -0.1448
 3618DOPG   C1A65273  18.744  15.737  17.692 -0.1260  0.1945  0.1371
 3618DOPG   D2A65274  18.677  15.777  17.265  0.0411 -0.2165 -0.0673
 3618DOPG   C3A65275  18.521  15.538  16.987 -0.1913 -0.0159 -0.1326
 3618DOPG   C4A65276  18.353  15.083  17.045  0.0016 -0.2798 -0.2837
 3618DOPG   C1B65277  19.689  15.364  17.438  0.1945  0.0474 -0.0923
 3618DOPG   D2B65278  19.917  15.024  17.460  0.3649 -0.4463  0.0274
 3618DOPG   C3B65279  19.732  14.909  17.038 -0.0520  0.0768  0.1381
 3618DOPG   C4B65280  19.682  14.749  16.555  0.0878 -0.1401 -0.1294
 3619DOPG   GL065281  11.869  11.196  16.794  0.1871  0.3440  0.1050
 3619DOPG   PO465282  11.840  11.638  16.586 -0.1947  0.0987 -0.1624
 3619DOPG   GL165283  12.117  11.934  16.768  0.0111 -0.1389 -0.1726
 3619DOPG   GL265284  12.461  11.896  16.751  0.0256  0.3175 -0.2371
 3619DOPG   C1A65285  12.146  12.288  16.548 -0.2485 -0.1334 -0.2382
 3619DOPG   D2A65286  12.218  12.577  16.283  0.1240  0.0491 -0.0114
 3619DOPG   C3A65287  12.412  12.916  16.134 -0.1160  0.2183 -0.0365
 3619DOPG   C4A65288  12.248  13.382  16.331 -0.0110 -0.0149 -0.1198
 3619DOPG   C1B65289  12.533  12.298  16.846 -0.3212  0.0831 -0.1350
 3619DOPG   D2B65290  12.375  12.618  17.192  0.0622  0.0287  0.1163
 3619DOPG   C3B65291  11.977  12.477  17.376 -0.0207 -0.1381  0.1348
 3619DOPG   C4B65292  11.667  12.762  17.567 -0.0535  0.0569  0.0305
 3620DOPG   GL065293  14.536  12.500  15.634  0.2853 -0.0644  0.1769
 3620DOPG   PO465294  14.559  12.149  15.910  0.1666 -0.0179  0.0819
 3620DOPG   GL165295  14.681  11.907  15.622 -0.1354 -0.0766  0.3640
 3620DOPG   GL265296  14.942  11.849  15.749  0.1571 -0.1627 -0.0705
 3620DOPG   C1A65297  14.810  11.666  15.234  0.0169 -0.0432  0.1093
 3620DOPG   D2A65298  14.623  11.493  14.861 -0.0650  0.1816  0.1490
 3620DOPG   C3A65299  14.866  11.359  14.452 -0.0300  0.1460  0.0737
 3620DOPG   C4A65300  15.219  11.289  14.263 -0.0214 -0.1879 -0.1499
 3620DOPG   C1B65301  15.229  11.635  15.507  0.2909 -0.3695  0.0323
 3620DOPG   D2B65302  15.481  11.473  15.164  0.2014  0.0356 -0.0948
 3620DOPG   C3B65303  15.210  11.301  14.854 -0.1970  0.0546  0.2185
 3620DOPG   C4B65304  14.891  10.948  14.691  0.2325 -0.0498 -0.1888
 3621DOPG   GL065305  11.850  12.197  15.910 -0.1453  0.0058  0.1890
 3621DOPG   PO465306  12.187  12.140  15.434  0.1605  0.1679 -0.1774
 3621DOPG   GL165307  11.811  12.087  15.341  0.2770  0.0800  0.4528
 3621DOPG   GL265308  11.835  12.421  15.201  0.1827 -0.1141  0.2419
 3621DOPG   C1A65309  11.403  12.297  15.461  0.2490 -0.1458 -0.0071
 3621DOPG   D2A65310  11.014  12.382  15.624 -0.1459 -0.2109 -0.0562
 3621DOPG   C3A65311  10.802  12.625  15.302 -0.0306 -0.0728 -0.1061
 3621DOPG   C4A65312  10.584  12.734  14.992 -0.0906 -0.0083  0.5079
 3621DOPG   C1B65313  11.838  12.617  14.814  0.1584  0.1707  0.1246
 3621DOPG   D2B65314  11.410  12.615  14.515  0.0412  0.3510  0.3231
 3621DOPG   C3B65315  11.174  12.894  14.269  0.3841  0.2568  0.3378
 3621DOPG   C4B65316  10.918  13.243  14.115 -0.5504  0.1825 -0.1817
 3622DOPG   GL065317  13.466  15.155  15.477 -0.2215  0.0601 -0.0886
 3622DOPG   PO465318  13.767  14.844  15.303  0.2042 -0.2355 -0.0339
 3622DOPG   GL165319  14.210  14.743  15.399  0.2880 -0.0434 -0.1171
 3622DOPG   GL265320  14.256  14.563  15.740  0.1611  0.2194 -0.2278
 3622DOPG   C1A65321  14.445  14.522  15.021  0.2326 -0.0703 -0.2170
 3622DOPG   D2A65322  14.740  14.644  14.815 -0.0076  0.1266 -0.1289
 3622DOPG   C3A65323  15.103  15.080  14.934 -0.0184  0.0329  0.0213
 3622DOPG   C4A65324  15.477  15.159  14.771  0.1497 -0.2607 -0.0151
 3622DOPG   C1B65325  14.708  14.588  15.837  0.0060 -0.2322  0.0826
 3622DOPG   D2B65326  14.809  14.408  16.120  0.1197  0.0229 -0.0221
 3622DOPG   C3B65327  14.700  14.556  16.472  0.2541 -0.0015  0.1453
 3622DOPG   C4B65328  14.786  14.877  16.712  0.0166  0.1616  0.6293
 3623DOPG   GL065329  17.145  20.001  17.007  0.2262 -0.1004 -0.0066
 3623DOPG   PO465330  17.395  19.949  16.681  0.0477 -0.3403  0.3128
 3623DOPG   GL165331  17.499  19.906  16.165 -0.2944 -0.1129 -0.1612
 3623DOPG   GL265332  17.754  20.206  16.012  0.1571  0.0625  0.0439
 3623DOPG   C1A65333  17.236  19.961  15.889 -0.2002  0.1773  0.0901
 3623DOPG   D2A65334  16.867  19.816  15.913 -0.1076 -0.0248  0.0396
 3623DOPG   C3A65335  16.469  19.733  16.041 -0.0117  0.0612 -0.0855
 3623DOPG   C4A65336  16.119  19.636  16.217  0.1452 -0.1397 -0.0540
 3623DOPG   C1B65337  17.673  20.047  15.619 -0.1691  0.1996 -0.1707
 3623DOPG   D2B65338  17.442  20.072  15.174 -0.2799 -0.0543 -0.2609
 3623DOPG   C3B65339  17.497  20.398  14.781 -0.0475 -0.0645  0.1541
 3623DOPG   C4B65340  17.294  20.777  14.505 -0.1341 -0.0593 -0.2674
 3624DOPG   GL065341  14.873  16.703  14.260  0.1128 -0.1308  0.0007
 3624DOPG   PO465342  14.781  16.389  14.533 -0.0553  0.2040 -0.0679
 3624DOPG   GL165343  14.752  16.165  14.200 -0.1838 -0.0686  0.2773
 3624DOPG   GL265344  15.110  16.284  14.057 -0.1170  0.0559  0.2452
 3624DOPG   C1A65345  14.848  15.798  13.892 -0.2256 -0.0788 -0.2568
 3624DOPG   D2A65346  14.798  15.325  13.941  0.1185  0.2722 -0.0264
 3624DOPG   C3A65347  14.580  14.995  13.789 -0.1048 -0.0389 -0.1411
 3624DOPG   C4A65348  14.251  14.881  13.495 -0.0003  0.0506  0.1472
 3624DOPG   C1B65349  15.209  15.874  14.190  0.0947 -0.0381 -0.0640
 3624DOPG   D2B65350  15.345  15.580  14.475 -0.0519 -0.3818  0.2530
 3624DOPG   C3B65351  15.272  15.674  14.988  0.2580  0.1290 -0.0441
 3624DOPG   C4B65352  15.210  15.859  15.347 -0.0411  0.1650 -0.0136
 3625DOPG   GL065353   6.413  24.224  16.962 -0.1950  0.0585  0.2047
 3625DOPG   PO465354   6.130  23.923  16.797  0.0966  0.1523  0.0498
 3625DOPG   GL165355   6.557  23.834  16.692  0.1194  0.1885 -0.1777
 3625DOPG   GL265356   6.711  24.091  16.485  0.1565  0.1502 -0.1036
 3625DOPG   C1A65357   6.962  23.656  16.594 -0.1931 -0.0331 -0.2295
 3625DOPG   D2A65358   7.177  23.682  16.911 -0.1604 -0.0465  0.0683
 3625DOPG   C3A65359   7.547  23.377  17.068  0.0960 -0.0868  0.1179
 3625DOPG   C4A65360   7.943  23.311  17.070 -0.1497  0.0304  0.2098
 3625DOPG   C1B65361   6.997  24.082  16.230 -0.0529 -0.2556 -0.0178
 3625DOPG   D2B65362   7.230  23.982  15.834 -0.2794  0.2363 -0.2268
 3625DOPG   C3B65363   7.623  23.668  15.856 -0.2163 -0.2234  0.0619
 3625DOPG   C4B65364   8.015  23.514  15.803  0.2387 -0.1486  0.0366
 3626DOPG   GL065365  13.547  12.622  15.783 -0.1151  0.1779  0.0585
 3626DOPG   PO465366  13.749  12.894  15.508  0.0696 -0.1536 -0.1906
 3626DOPG   GL165367  13.843  12.882  15.156  0.1798 -0.1446 -0.1436
 3626DOPG   GL265368  13.887  13.111  14.881  0.2906 -0.1674  0.3121
 3626DOPG   C1A65369  13.714  12.620  14.826 -0.0058  0.0234 -0.2109
 3626DOPG   D2A65370  13.844  12.408  14.459  0.1272  0.1452 -0.1189
 3626DOPG   C3A65371  14.075  11.977  14.517  0.1118  0.3027 -0.0700
 3626DOPG   C4A65372  14.121  11.606  14.803 -0.2236  0.2412 -0.1370
 3626DOPG   C1B65373  14.091  12.944  14.469  0.0378  0.0341  0.0665
 3626DOPG   D2B65374  14.477  12.798  14.287 -0.1447  0.1556 -0.3353
 3626DOPG   C3B65375  14.671  13.079  13.998  0.2306  0.0606 -0.1290
 3626DOPG   C4B65376  14.589  13.420  13.672  0.0284 -0.1486 -0.0467
 3627DOPG   GL065377  16.727  12.599  16.968  0.1967  0.1061  0.0821
 3627DOPG   PO465378  16.703  12.180  17.096  0.0092  0.1095  0.1825
 3627DOPG   GL165379  16.790  11.771  17.175  0.1370  0.2282 -0.1617
 3627DOPG   GL265380  17.099  11.824  17.167  0.0943 -0.1273  0.0488
 3627DOPG   C1A65381  16.904  11.417  16.902  0.2950  0.1008 -0.0683
 3627DOPG   D2A65382  16.887  11.106  16.959  0.1009  0.3956  0.1474
 3627DOPG   C3A65383  17.096  10.754  16.641 -0.0783  0.1696 -0.2361
 3627DOPG   C4A65384  17.068  10.451  16.379 -0.1552 -0.0886 -0.0800
 3627DOPG   C1B65385  17.428  11.767  17.346 -0.1390  0.0578 -0.1412
 3627DOPG   D2B65386  17.770  11.610  17.660 -0.0599 -0.3098 -0.0270
 3627DOPG   C3B65387  17.573  11.254  17.828  0.3323 -0.3129 -0.2022
 3627DOPG   C4B65388  17.622  10.851  17.699  0.0459  0.0089  0.0416
 3628DOPG   GL065389  17.142  17.946  15.108 -0.0549  0.1926  0.0830
 3628DOPG   PO465390  17.022  18.362  14.973  0.2752 -0.0087 -0.0584
 3628DOPG   GL165391  17.239  18.712  14.818 -0.1654  0.1569  0.0659
 3628DOPG   GL265392  17.439  18.821  14.656 -0.0913 -0.0287 -0.1584
 3628DOPG   C1A65393  17.085  19.237  14.806 -0.1583  0.3018  0.2660
 3628DOPG   D2A65394  17.212  19.635  14.954  0.2157 -0.0260 -0.1357
 3628DOPG   C3A65395  17.503  19.871  14.693  0.0110 -0.0072  0.1917
 3628DOPG   C4A65396  17.799  19.971  14.496  0.1839 -0.1573 -0.1355
 3628DOPG   C1B65397  17.177  19.010  14.219 -0.0675 -0.3008 -0.0784
 3628DOPG   D2B65398  17.114  18.929  13.775  0.2668  0.1429  0.1750
 3628DOPG   C3B65399  17.318  19.158  13.465 -0.3375  0.1388  0.2530
 3628DOPG   C4B65400  17.556  19.364  13.116  0.1127  0.0036  0.2120
 3629DOPG   GL065401  18.643  19.933  16.021 -0.2440  0.0916  0.3400
 3629DOPG   PO465402  18.650  20.402  15.952 -0.2971 -0.0890  0.1730
 3629DOPG   GL165403  18.455  20.503  15.584  0.3605  0.1020 -0.3782
 3629DOPG   GL265404  18.555  20.122  15.445 -0.1510 -0.1778 -0.2828
 3629DOPG   C1A65405  18.497  20.827  15.355 -0.0051  0.1008  0.2866
 3629DOPG   D2A65406  18.591  21.180  15.231 -0.1322 -0.2405 -0.0328
 3629DOPG   C3A65407  18.422  21.487  14.930  0.1900 -0.2916 -0.3117
 3629DOPG   C4A65408  18.284  21.813  14.586 -0.0394 -0.0066  0.4714
 3629DOPG   C1B65409  18.805  19.954  15.109  0.1153 -0.0740  0.1761
 3629DOPG   D2B65410  18.740  20.186  14.681 -0.4710  0.0467 -0.1210
 3629DOPG   C3B65411  18.783  20.482  14.404  0.1609 -0.3481  0.0046
 3629DOPG   C4B65412  18.642  20.691  14.715 -0.2022  0.1077 -0.0313
 3630DOPG   GL065413  10.772  10.790  17.433 -0.2430 -0.1215  0.2814
 3630DOPG   PO465414  10.678  10.701  17.051 -0.0105  0.0625 -0.1251
 3630DOPG   GL165415  10.429  10.426  17.309  0.0599 -0.1003 -0.0422
 3630DOPG   GL265416  10.588  10.270  17.496 -0.2740  0.0985  0.1505
 3630DOPG   C1A65417  10.045  10.224  17.615 -0.2729 -0.1647 -0.0216
 3630DOPG   D2A65418   9.935   9.879  17.403 -0.0750 -0.0239  0.1644
 3630DOPG   C3A65419   9.797   9.569  17.636 -0.3941  0.1194  0.3330
 3630DOPG   C4A65420   9.430   9.399  17.687  0.1393  0.1282 -0.0651
 3630DOPG   C1B65421  10.405   9.841  17.531 -0.0434 -0.0430  0.1249
 3630DOPG   D2B65422  10.336   9.401  17.726  0.0567 -0.4529  0.0093
 3630DOPG   C3B65423  10.067   9.068  17.539  0.0721 -0.1456  0.1139
 3630DOPG   C4B65424   9.667   8.963  17.326 -0.2535 -0.1632  0.0157
 3631DOPG   GL065425  10.510  21.241  16.292 -0.0914  0.2723  0.2732
 3631DOPG   PO465426  10.298  20.892  15.926  0.2154 -0.3693 -0.3303
 3631DOPG   GL165427  10.747  20.959  15.907 -0.0899  0.0070  0.0875
 3631DOPG   GL265428  10.847  21.227  15.905  0.2218  0.1597 -0.2819
 3631DOPG   C1A65429  11.145  20.819  15.718 -0.4072 -0.0914 -0.0349
 3631DOPG   D2A65430  11.556  20.837  15.568 -0.0068 -0.2411  0.2448
 3631DOPG   C3A65431  11.658  20.932  15.069  0.0123 -0.1703 -0.1171
 3631DOPG   C4A65432  11.723  20.550  14.941  0.1095  0.0203  0.2219
 3631DOPG   C1B65433  10.700  21.349  15.503 -0.0679  0.3409  0.0777
 3631DOPG   D2B65434  10.475  21.627  15.301  0.2981 -0.1470 -0.0300
 3631DOPG   C3B65435  10.076  21.593  15.141  0.1325 -0.1441 -0.1831
 3631DOPG   C4B65436   9.791  21.857  14.881 -0.2244  0.1389  0.1409
 3632DOPG   GL065437  13.197  12.203  16.767  0.0385  0.2191 -0.0803
 3632DOPG   PO465438  12.961  12.160  16.385 -0.2284 -0.1147 -0.0293
 3632DOPG   GL165439  12.770  12.604  16.411 -0.3622 -0.0694  0.2634
 3632DOPG   GL265440  12.970  12.931  16.359  0.1564  0.2561  0.1124
 3632DOPG   C1A65441  12.454  12.804  16.678 -0.2672 -0.1710 -0.2160
 3632DOPG   D2A65442  12.370  13.096  17.026  0.0502  0.0405  0.0184
 3632DOPG   C3A65443  11.911  13.070  17.248 -0.1341 -0.0081  0.1828
 3632DOPG   C4A65444  11.562  13.046  16.954  0.1107  0.1806  0.2661
 3632DOPG   C1B65445  12.803  13.206  16.656 -0.1000 -0.0264  0.0699
 3632DOPG   D2B65446  12.986  13.477  16.944 -0.0082 -0.2343 -0.3167
 3632DOPG   C3B65447  13.220  13.549  16.623  0.0580 -0.1365  0.1362
 3632DOPG   C4B65448  13.436  13.446  16.415 -0.1856 -0.1690  0.2598
 3633DOPG   GL065449  13.423  15.972  15.706 -0.2952  0.2540  0.0303
 3633DOPG   PO465450  13.140  15.790  15.671  0.0244  0.1752 -0.1149
 3633DOPG   GL165451  13.093  15.795  16.039 -0.1782 -0.1203 -0.2036
 3633DOPG   GL265452  13.391  16.024  16.224  0.0632  0.0289 -0.0451
 3633DOPG   C1A65453  12.923  16.084  16.377  0.0707 -0.2389  0.0966
 3633DOPG   D2A65454  12.820  16.551  16.558  0.0736 -0.1080  0.1384
 3633DOPG   C3A65455  13.014  16.694  16.875 -0.0296  0.1094 -0.0365
 3633DOPG   C4A65456  13.407  16.552  17.115  0.0450  0.0089  0.2096
 3633DOPG   C1B65457  13.569  15.662  16.375 -0.1531 -0.0029  0.2402
 3633DOPG   D2B65458  13.776  15.328  16.311  0.2041 -0.2250  0.1397
 3633DOPG   C3B65459  14.198  15.445  16.167 -0.0081  0.0335 -0.3353
 3633DOPG   C4B65460  14.631  15.636  16.101  0.3546  0.0689  0.0216
 3634DOPG   GL065461  12.034  16.739  14.788 -0.0294  0.3503 -0.0529
 3634DOPG   PO465462  11.722  16.787  14.998 -0.0023 -0.0965  0.0504
 3634DOPG   GL165463  11.360  16.559  14.725 -0.0754 -0.0078  0.0317
 3634DOPG   GL265464  11.345  16.660  14.436 -0.3009  0.0973  0.2029
 3634DOPG   C1A65465  10.934  16.617  14.613 -0.1213 -0.2126  0.0545
 3634DOPG   D2A65466  10.473  16.512  14.745  0.1544  0.1249 -0.0122
 3634DOPG   C3A65467  10.263  16.256  14.501 -0.2913  0.2184  0.0911
 3634DOPG   C4A65468  10.168  15.953  14.092 -0.4125 -0.1505  0.0266
 3634DOPG   C1B65469  11.133  16.833  14.101  0.0897 -0.3027 -0.0803
 3634DOPG   D2B65470  11.450  16.973  13.818 -0.0816  0.5904  0.0077
 3634DOPG   C3B65471  11.668  16.717  13.422  0.1648 -0.1992  0.1736
 3634DOPG   C4B65472  11.636  16.395  13.056  0.3144  0.0587  0.1546
 3635DOPG   GL065473  11.321  10.842  16.990 -0.1047  0.0169  0.1718
 3635DOPG   PO465474  11.237  10.579  16.677  0.0991  0.0922  0.2185
 3635DOPG   GL165475  11.296  10.260  16.350 -0.0494  0.4401 -0.0486
 3635DOPG   GL265476  11.447  10.524  16.094  0.3634  0.0949 -0.1233
 3635DOPG   C1A65477  11.254   9.798  16.115 -0.1721  0.0903  0.0079
 3635DOPG   D2A65478  11.314   9.341  16.063 -0.2629 -0.1631  0.1049
 3635DOPG   C3A65479  11.663   9.188  16.206 -0.0318  0.3196  0.0241
 3635DOPG   C4A65480  12.058   9.093  16.130 -0.2996 -0.0513 -0.0378
 3635DOPG   C1B65481  11.479  10.141  15.798 -0.0912 -0.1617  0.1337
 3635DOPG   D2B65482  11.432   9.758  15.513  0.1130  0.0472 -0.3945
 3635DOPG   C3B65483  11.443   9.303  15.533 -0.2883  0.0658 -0.2116
 3635DOPG   C4B65484  11.328   8.828  15.476 -0.2053 -0.0448  0.1069
 3636DOPG   GL065485   7.414  22.206  16.983  0.3068  0.0836 -0.0496
 3636DOPG   PO465486   7.408  22.203  17.445  0.1336 -0.0461  0.0519
 3636DOPG   GL165487   7.834  22.320  17.361 -0.0058 -0.1269 -0.0386
 3636DOPG   GL265488   8.046  22.182  17.095  0.1442  0.1599 -0.3435
 3636DOPG   C1A65489   8.116  22.525  17.477  0.0262 -0.0857  0.0074
 3636DOPG   D2A65490   8.441  22.818  17.456 -0.0032  0.0163  0.2835
 3636DOPG   C3A65491   8.682  22.869  17.180 -0.1678 -0.3533 -0.0434
 3636DOPG   C4A65492   9.041  22.957  16.973  0.2057  0.1462 -0.0264
 3636DOPG   C1B65493   8.471  22.383  17.128 -0.0704  0.0314  0.3092
 3636DOPG   D2B65494   8.911  22.478  16.988 -0.0617 -0.0276  0.0702
 3636DOPG   C3B65495   9.018  22.619  16.615  0.2404 -0.0089  0.1388
 3636DOPG   C4B65496   9.072  22.603  16.118  0.2359 -0.1031 -0.1961
 3637DOPG   GL065497  19.075  18.340  15.329  0.2286 -0.4554  0.1082
 3637DOPG   PO465498  19.221  18.381  15.803 -0.0277  0.2009 -0.0610
 3637DOPG   GL165499  19.095  18.372  16.242  0.0290  0.2883 -0.1393
 3637DOPG   GL265500  19.372  18.529  16.381  0.1454  0.1276 -0.1199
 3637DOPG   C1A65501  18.718  18.099  16.388 -0.1535 -0.2971  0.4395
 3637DOPG   D2A65502  18.496  17.693  16.453  0.2438  0.0989  0.0879
 3637DOPG   C3A65503  18.507  17.639  16.859 -0.0101 -0.4535 -0.0526
 3637DOPG   C4A65504  18.185  17.578  17.166  0.1186 -0.3577  0.0078
 3637DOPG   C1B65505  19.318  18.120  16.597 -0.1111 -0.0805  0.2920
 3637DOPG   D2B65506  19.321  17.752  16.811  0.0444 -0.2774 -0.3530
 3637DOPG   C3B65507  19.398  17.657  17.241  0.0416  0.0473 -0.2643
 3637DOPG   C4B65508  19.807  17.655  17.604  0.1168 -0.1743 -0.0568
 3638DOPG   GL065509   8.445  15.078  16.900  0.3224  0.1036 -0.1858
 3638DOPG   PO465510   8.439  15.263  16.524  0.0645  0.0456 -0.0841
 3638DOPG   GL165511   8.483  14.890  16.221 -0.0348  0.2684 -0.1548
 3638DOPG   GL265512   8.112  14.840  16.045  0.0548 -0.0142 -0.3143
 3638DOPG   C1A65513   8.787  14.750  15.934 -0.0992 -0.0159 -0.1826
 3638DOPG   D2A65514   8.977  14.977  15.465 -0.4024  0.1775  0.1670
 3638DOPG   C3A65515   9.374  14.734  15.300  0.0785 -0.1519 -0.2213
 3638DOPG   C4A65516   9.821  14.759  15.328  0.0776 -0.3704 -0.2304
 3638DOPG   C1B65517   7.899  14.903  15.609  0.0065  0.0664  0.0609
 3638DOPG   D2B65518   8.087  14.801  15.233 -0.1336  0.1694  0.1273
 3638DOPG   C3B65519   7.806  14.551  14.969  0.2229 -0.3026 -0.2007
 3638DOPG   C4B65520   7.337  14.615  14.914 -0.0283 -0.1035  0.0826
 3639DOPG   GL065521   8.201  19.542  17.117  0.0423 -0.0959  0.2926
 3639DOPG   PO465522   8.549  19.423  16.766  0.0135 -0.0831  0.1268
 3639DOPG   GL165523   8.368  19.375  16.266 -0.1220 -0.0018  0.2492
 3639DOPG   GL265524   8.613  19.203  16.167  0.1327  0.2843  0.0890
 3639DOPG   C1A65525   8.259  19.097  15.924  0.2368  0.0022  0.1325
 3639DOPG   D2A65526   8.150  18.821  15.670  0.0017  0.0043  0.2047
 3639DOPG   C3A65527   7.934  19.019  15.215  0.1227  0.1219 -0.3330
 3639DOPG   C4A65528   7.527  18.845  15.131  0.1772  0.0430 -0.1054
 3639DOPG   C1B65529   8.947  19.207  15.896 -0.2759  0.2081 -0.3101
 3639DOPG   D2B65530   8.949  19.576  15.590  0.0445 -0.1267 -0.1760
 3639DOPG   C3B65531   8.796  20.035  15.752 -0.2465  0.0358 -0.1002
 3639DOPG   C4B65532   8.852  20.461  15.633 -0.1605  0.0791  0.0556
 3640DOPG   GL065533   9.855  11.903  16.163  0.3005 -0.0279  0.1452
 3640DOPG   PO465534   9.762  11.534  16.010 -0.1344  0.2025 -0.1405
 3640DOPG   GL165535   9.402  11.279  15.899  0.1591  0.1737  0.0332
 3640DOPG   GL265536   9.311  11.041  16.092 -0.2727 -0.1132  0.2104
 3640DOPG   C1A65537   9.071  10.958  15.659 -0.2571 -0.0150 -0.2079
 3640DOPG   D2A65538   9.255  10.582  15.378 -0.2710 -0.1824  0.0912
 3640DOPG   C3A65539   9.322  10.275  15.519  0.0379  0.0845 -0.3397
 3640DOPG   C4A65540   9.094  10.039  15.874  0.0992 -0.0250 -0.0251
 3640DOPG   C1B65541   9.331  10.578  15.935 -0.2248  0.0409 -0.0468
 3640DOPG   D2B65542   9.584  10.110  15.954 -0.2129  0.1857  0.0324
 3640DOPG   C3B65543   9.641   9.939  15.638  0.2007 -0.0111 -0.0382
 3640DOPG   C4B65544  10.077  10.175  15.405  0.2432 -0.3135 -0.0455
 3641DOPG   GL065545   5.259  21.177  15.487 -0.0956 -0.0816  0.0505
 3641DOPG   PO465546   5.645  21.050  15.474  0.1614 -0.2416  0.1696
 3641DOPG   GL165547   5.908  20.619  15.411  0.2596  0.1895  0.1064
 3641DOPG   GL265548   6.138  20.641  15.766  0.2832 -0.1371  0.0271
 3641DOPG   C1A65549   6.012  20.266  15.098 -0.3679 -0.0346  0.0799
 3641DOPG   D2A65550   6.207  20.097  14.682 -0.0740 -0.1202  0.0406
 3641DOPG   C3A65551   6.360  19.695  14.567  0.2363  0.0939  0.0386
 3641DOPG   C4A65552   6.346  19.324  14.384  0.0033  0.1781 -0.3406
 3641DOPG   C1B65553   6.375  20.473  15.443 -0.4539 -0.1441 -0.1417
 3641DOPG   D2B65554   6.492  20.415  14.947 -0.1558 -0.1404  0.0155
 3641DOPG   C3B65555   6.702  20.102  14.893  0.3237 -0.0361 -0.1923
 3641DOPG   C4B65556   6.851  19.727  14.868  0.2733 -0.0806  0.2947
 3642DOPG   GL065557  20.519  15.620  18.170  0.1195 -0.2535  0.1429
 3642DOPG   PO465558  20.093  15.582  18.062  0.1757  0.1308  0.2335
 3642DOPG   GL165559  20.076  15.982  18.053  0.1831  0.2214  0.4734
 3642DOPG   GL265560  20.175  15.989  17.807 -0.0324 -0.0459 -0.1500
 3642DOPG   C1A65561  19.823  16.372  17.984 -0.1448  0.0791 -0.2224
 3642DOPG   D2A65562  19.735  16.642  18.216 -0.0534  0.1787  0.1768
 3642DOPG   C3A65563  19.902  17.014  18.201 -0.0264  0.1879  0.0044
 3642DOPG   C4A65564  20.025  17.267  17.988  0.0626  0.0645 -0.0604
 3642DOPG   C1B65565  19.739  15.923  17.648  0.5494  0.0800 -0.0016
 3642DOPG   D2B65566  19.364  15.906  17.362  0.3052  0.1134  0.1359
 3642DOPG   C3B65567  19.599  15.810  16.945 -0.0340  0.0115 -0.0906
 3642DOPG   C4B65568  19.616  15.637  16.611 -0.0653  0.0552  0.1240
 3643DOPG   GL065569  18.389  15.546  14.753  0.1741 -0.1109  0.1551
 3643DOPG   PO465570  18.133  15.363  15.047 -0.1407 -0.1093 -0.2991
 3643DOPG   GL165571  18.449  14.956  14.948 -0.2396 -0.2799  0.0926
 3643DOPG   GL265572  18.476  15.115  15.203 -0.1033 -0.1882  0.1271
 3643DOPG   C1A65573  18.897  14.770  14.844  0.1321 -0.0234 -0.1071
 3643DOPG   D2A65574  19.361  15.027  14.771  0.2906  0.1318  0.2906
 3643DOPG   C3A65575  19.568  14.712  14.438  0.6115 -0.0712  0.0719
 3643DOPG   C4A65576  19.923  14.373  14.383  0.0719 -0.2172 -0.1443
 3643DOPG   C1B65577  18.837  15.137  15.330 -0.2370  0.2198  0.1332
 3643DOPG   D2B65578  19.191  15.310  15.109  0.2364 -0.0262  0.0957
 3643DOPG   C3B65579  19.641  15.125  15.238 -0.0415  0.4320  0.1198
 3643DOPG   C4B65580  20.106  15.001  15.440 -0.0285  0.0450 -0.0394
 3644DOPG   GL065581  21.999  20.301  16.860  0.1349  0.1236 -0.2856
 3644DOPG   PO465582  22.456  20.151  16.765  0.0232 -0.1025  0.1105
 3644DOPG   GL165583  22.702  20.525  16.575  0.0666 -0.1806 -0.0989
 3644DOPG   GL265584  22.917  20.372  16.323 -0.2121  0.2035 -0.0210
 3644DOPG   C1A65585  22.543  21.023  16.580 -0.0246 -0.0882  0.2812
 3644DOPG   D2A65586  22.514  21.494  16.443  0.1945  0.1904 -0.0313
 3644DOPG   C3A65587  22.420  21.516  15.909 -0.0070 -0.2650 -0.1912
 3644DOPG   C4A65588  22.375  21.531  15.426  0.0885  0.1672  0.0119
 3644DOPG   C1B65589  23.095  20.466  15.926 -0.2921 -0.2641  0.0227
 3644DOPG   D2B65590  23.370  20.432  15.699  0.1114 -0.0505  0.0237
 3644DOPG   C3B65591  23.468  20.760  15.455 -0.3608  0.1783 -0.2006
 3644DOPG   C4B65592  23.154  21.178  15.390  0.3072 -0.0908  0.4636
 3645DOPG   GL065593  18.779  17.969  14.157 -0.0219  0.2304 -0.1225
 3645DOPG   PO465594  18.520  17.683  13.890 -0.0914  0.3278 -0.0103
 3645DOPG   GL165595  18.578  17.506  13.550 -0.1238 -0.1333 -0.1001
 3645DOPG   GL265596  18.304  17.473  13.447 -0.0098  0.2694  0.0532
 3645DOPG   C1A65597  18.893  17.210  13.389 -0.0663 -0.0209 -0.1935
 3645DOPG   D2A65598  19.201  17.057  13.290 -0.2341 -0.0117  0.1681
 3645DOPG   C3A65599  19.279  16.995  12.879 -0.2086 -0.0382 -0.0607
 3645DOPG   C4A65600  19.674  17.230  12.793 -0.0292 -0.0329  0.3637
 3645DOPG   C1B65601  18.296  17.145  13.056  0.1977  0.3999 -0.0527
 3645DOPG   D2B65602  18.164  16.841  12.822 -0.2226 -0.2817 -0.0101
 3645DOPG   C3B65603  18.110  16.907  12.420  0.0856  0.0415  0.1143
 3645DOPG   C4B65604  17.766  16.917  12.287 -0.0852  0.2526  0.0336
 3646DOPG   GL065605  15.605  19.709  15.392  0.1587  0.2161 -0.2021
 3646DOPG   PO465606  15.199  19.916  15.366 -0.3408  0.2843  0.2493
 3646DOPG   GL165607  15.178  20.093  15.020  0.1246 -0.3668 -0.1064
 3646DOPG   GL265608  14.915  20.457  15.000 -0.1437  0.0956 -0.2247
 3646DOPG   C1A65609  15.360  20.298  14.664 -0.0694 -0.0772 -0.1097
 3646DOPG   D2A65610  15.574  20.465  14.354  0.1474 -0.0055  0.2818
 3646DOPG   C3A65611  15.269  20.536  13.968  0.0914 -0.3085  0.0872
 3646DOPG   C4A65612  15.088  20.846  13.748 -0.2214  0.4280 -0.0154
 3646DOPG   C1B65613  14.955  20.910  15.050 -0.0952  0.3920  0.0150
 3646DOPG   D2B65614  15.043  21.317  15.080  0.0147  0.0499  0.2483
 3646DOPG   C3B65615  15.443  21.603  15.124  0.1662  0.0228  0.0098
 3646DOPG   C4B65616  15.739  21.533  14.892  0.0788 -0.2140 -0.0182
 3647DOPG   GL065617   9.546  11.854  17.179  0.0000 -0.0397 -0.2761
 3647DOPG   PO465618   9.491  11.486  16.929  0.3276 -0.1423  0.1509
 3647DOPG   GL165619   9.204  11.197  16.905 -0.2458 -0.5481 -0.1225
 3647DOPG   GL265620   9.202  10.954  16.646 -0.0378 -0.0180 -0.2690
 3647DOPG   C1A65621   8.822  11.212  16.944  0.0674 -0.4453 -0.1992
 3647DOPG   D2A65622   8.587  11.551  17.119  0.1648  0.2315  0.1115
 3647DOPG   C3A65623   8.194  11.574  17.286 -0.0402 -0.2325  0.0549
 3647DOPG   C4A65624   7.733  11.411  17.339 -0.0668  0.1598 -0.2038
 3647DOPG   C1B65625   8.968  10.816  16.299 -0.0038 -0.3713  0.0574
 3647DOPG   D2B65626   8.805  10.629  15.979 -0.3044 -0.1991 -0.1478
 3647DOPG   C3B65627   8.547  10.313  15.912  0.2253  0.1565 -0.0086
 3647DOPG   C4B65628   8.091  10.167  16.099 -0.4078 -0.0442  0.2789
 3648DOPG   GL065629  12.101  14.547  15.239  0.0836 -0.0533  0.0750
 3648DOPG   PO465630  11.910  14.797  14.876  0.1069  0.2035  0.3086
 3648DOPG   GL165631  11.478  14.931  14.786 -0.2593  0.1866 -0.0961
 3648DOPG   GL265632  11.187  14.858  15.116  0.0276 -0.0473  0.0575
 3648DOPG   C1A65633  11.099  14.868  14.592 -0.0127 -0.3020 -0.0602
 3648DOPG   D2A65634  10.669  14.615  14.559  0.0460 -0.1507  0.0108
 3648DOPG   C3A65635  10.322  14.748  14.692 -0.2735 -0.2666  0.3319
 3648DOPG   C4A65636   9.992  14.713  14.887  0.1169 -0.1105 -0.1381
 3648DOPG   C1B65637  10.938  14.578  14.993 -0.1824 -0.1039  0.1866
 3648DOPG   D2B65638  10.599  14.339  14.988  0.0454  0.1625 -0.2101
 3648DOPG   C3B65639  10.443  13.994  14.744 -0.0521 -0.1698 -0.4217
 3648DOPG   C4B65640  10.499  13.552  14.534 -0.0414  0.1093 -0.0033
 3649DOPG   GL065641  20.604  19.739  16.160 -0.1011 -0.4045  0.1960
 3649DOPG   PO465642  20.455  20.066  16.035 -0.1747 -0.2701 -0.0671
 3649DOPG   GL165643  20.381  19.947  15.612  0.0838  0.2037 -0.1155
 3649DOPG   GL265644  20.425  19.716  15.600  0.1267  0.0933  0.2210
 3649DOPG   C1A65645  20.374  20.296  15.242  0.1676 -0.1026 -0.1658
 3649DOPG   D2A65646  20.180  20.559  14.945 -0.0186  0.2537 -0.1007
 3649DOPG   C3A65647  20.233  20.716  14.524 -0.1501  0.3146 -0.1068
 3649DOPG   C4A65648  20.069  21.082  14.292  0.0512  0.0633  0.0057
 3649DOPG   C1B65649  20.224  19.778  15.184  0.0852  0.0394 -0.3669
 3649DOPG   D2B65650  20.069  20.080  14.840 -0.1920  0.0673 -0.5284
 3649DOPG   C3B65651  20.232  20.231  14.451  0.1345  0.0579 -0.0953
 3649DOPG   C4B65652  20.361  19.978  14.150  0.0542 -0.0810  0.0978
 3650DOPG   GL065653  15.843  13.238  15.465 -0.2142 -0.0283 -0.2608
 3650DOPG   PO465654  16.416  13.316  15.424 -0.1202 -0.0617  0.2552
 3650DOPG   GL165655  16.351  13.123  15.218  0.2656  0.0829 -0.0909
 3650DOPG   GL265656  16.081  12.892  15.238 -0.1849  0.2373 -0.1213
 3650DOPG   C1A65657  16.357  13.112  14.805  0.0124 -0.1456 -0.1118
 3650DOPG   D2A65658  16.398  13.347  14.430 -0.2011  0.0962  0.0271
 3650DOPG   C3A65659  16.639  13.269  14.125  0.0321 -0.1274 -0.1395
 3650DOPG   C4A65660  16.975  13.175  13.933  0.1005 -0.2122 -0.1492
 3650DOPG   C1B65661  15.923  12.645  14.903  0.0250 -0.0964  0.1965
 3650DOPG   D2B65662  15.764  12.540  14.555  0.0759  0.1473 -0.1988
 3650DOPG   C3B65663  15.336  12.678  14.419 -0.1353 -0.0611 -0.1161
 3650DOPG   C4B65664  14.915  12.758  14.561 -0.1158  0.0452  0.2149
 3651DOPG   GL065665  17.194  15.518  15.363  0.0408  0.1166  0.2167
 3651DOPG   PO465666  16.965  15.244  15.157  0.0595  0.0644  0.3741
 3651DOPG   GL165667  16.449  15.250  15.076 -0.1815  0.1082 -0.0160
 3651DOPG   GL265668  16.086  15.210  15.125 -0.1728  0.1697  0.1850
 3651DOPG   C1A65669  16.362  15.381  14.532 -0.3171 -0.0121 -0.0877
 3651DOPG   D2A65670  16.185  15.582  14.158  0.1834  0.0901 -0.1087
 3651DOPG   C3A65671  15.892  15.350  13.957 -0.0918 -0.1309 -0.0211
 3651DOPG   C4A65672  15.520  15.237  13.943 -0.0842 -0.0488  0.1971
 3651DOPG   C1B65673  16.003  14.892  14.839 -0.4554  0.1694  0.2043
 3651DOPG   D2B65674  15.540  14.626  14.814  0.3251  0.2658  0.0706
 3651DOPG   C3B65675  15.186  14.782  14.524  0.0044  0.2631  0.1724
 3651DOPG   C4B65676  15.142  15.133  14.285  0.1308 -0.0953  0.0994
 3652DOPG   GL065677  19.639  18.807  15.842  0.2137  0.1202 -0.1878
 3652DOPG   PO465678  20.083  18.837  15.699 -0.1429 -0.1403 -0.1936
 3652DOPG   GL165679  20.434  18.731  15.451 -0.0303 -0.2189  0.1323
 3652DOPG   GL265680  20.238  18.520  15.239 -0.1852  0.1388  0.0265
 3652DOPG   C1A65681  20.653  18.971  15.161  0.2088 -0.2445  0.0578
 3652DOPG   D2A65682  20.557  19.250  14.744 -0.5779  0.1106  0.0108
 3652DOPG   C3A65683  20.613  19.646  14.786  0.3179  0.0421  0.0063
 3652DOPG   C4A65684  20.695  20.016  14.974 -0.0441 -0.1736  0.2456
 3652DOPG   C1B65685  20.453  18.610  14.884 -0.2171 -0.2687  0.1745
 3652DOPG   D2B65686  20.868  18.719  14.707  0.0311  0.3745 -0.4114
 3652DOPG   C3B65687  21.049  18.559  14.401  0.0122  0.0743  0.1719
 3652DOPG   C4B65688  21.276  18.233  14.318 -0.1644 -0.2849 -0.1903
 3653DOPG   GL065689  16.555  16.982  14.418  0.0255 -0.1962 -0.1297
 3653DOPG   PO465690  16.209  16.921  14.456 -0.2260  0.4374 -0.1411
 3653DOPG   GL165691  16.213  17.057  14.033 -0.1281 -0.4703 -0.2533
 3653DOPG   GL265692  16.242  17.316  13.967  0.1348  0.0686 -0.1617
 3653DOPG   C1A65693  16.153  16.937  13.641 -0.2378 -0.3129  0.0050
 3653DOPG   D2A65694  16.544  16.747  13.456 -0.1021  0.1792 -0.0387
 3653DOPG   C3A65695  16.490  16.561  13.055  0.2992 -0.0162 -0.3035
 3653DOPG   C4A65696  16.515  16.576  12.658  0.1281  0.0787 -0.0258
 3653DOPG   C1B65697  16.080  17.450  13.612  0.1107  0.1776 -0.0272
 3653DOPG   D2B65698  16.141  17.838  13.483  0.2232 -0.4159  0.2391
 3653DOPG   C3B65699  16.423  17.861  13.156  0.0364 -0.1396  0.0861
 3653DOPG   C4B65700  16.413  17.790  12.783  0.0024 -0.1631  0.1060
 3654DOPG   GL065701  22.946  17.365  16.736 -0.1992  0.0059  0.2068
 3654DOPG   PO465702  22.480  17.161  16.689 -0.2615 -0.1394 -0.3686
 3654DOPG   GL165703  22.751  17.053  16.399  0.2252 -0.0445 -0.0973
 3654DOPG   GL265704  22.940  17.142  16.219  0.2567  0.0520  0.0045
 3654DOPG   C1A65705  23.119  16.668  16.383 -0.0566 -0.0322  0.1257
 3654DOPG   D2A65706  23.366  16.253  16.342 -0.3433  0.0819 -0.2601
 3654DOPG   C3A65707  23.347  16.006  16.011  0.5198 -0.2218 -0.2120
 3654DOPG   C4A65708  23.307  15.719  15.694  0.3008 -0.0380 -0.2322
 3654DOPG   C1B65709  23.041  16.953  15.908 -0.2613  0.1262  0.2737
 3654DOPG   D2B65710  23.145  16.508  15.848 -0.0709  0.2532  0.0656
 3654DOPG   C3B65711  23.555  16.313  15.685 -0.1268  0.2644 -0.0924
 3654DOPG   C4B65712  24.010  16.273  15.631  0.0742  0.2017  0.0899
 3655DOPG   GL065713  13.418  11.411  16.196  0.1373  0.1487  0.1953
 3655DOPG   PO465714  13.767  11.618  15.996 -0.0711 -0.2497  0.0865
 3655DOPG   GL165715  13.904  11.365  15.648  0.1750 -0.1581  0.1307
 3655DOPG   GL265716  14.205  11.317  15.682  0.0630 -0.0493 -0.2589
 3655DOPG   C1A65717  13.960  11.346  15.246  0.0303 -0.0510  0.2085
 3655DOPG   D2A65718  13.911  11.067  14.930 -0.1922  0.1948  0.0243
 3655DOPG   C3A65719  13.902  11.232  14.535  0.1181  0.0838 -0.1792
 3655DOPG   C4A65720  13.875  11.556  14.291  0.0543  0.1065 -0.0408
 3655DOPG   C1B65721  14.105  10.904  15.403 -0.1409 -0.0412  0.4858
 3655DOPG   D2B65722  14.034  10.615  15.048  0.2490 -0.2614  0.0225
 3655DOPG   C3B65723  13.974  10.413  14.731 -0.1672  0.2684  0.2900
 3655DOPG   C4B65724  14.306  10.139  14.660 -0.0701 -0.3500 -0.0720
 3656DOPG   GL065725  14.432  13.130  16.079  0.0376  0.2779 -0.1362
 3656DOPG   PO465726  14.651  12.948  16.385 -0.1910  0.1369  0.1216
 3656DOPG   GL165727  14.482  13.361  16.492 -0.1450 -0.3013 -0.1933
 3656DOPG   GL265728  14.695  13.564  16.740 -0.2380  0.0716 -0.2284
 3656DOPG   C1A65729  14.227  13.690  16.802  0.0971 -0.0786 -0.1080
 3656DOPG   D2A65730  14.049  14.092  16.579  0.0960  0.1405  0.2141
 3656DOPG   C3A65731  13.853  14.173  16.943 -0.3179 -0.3410  0.0245
 3656DOPG   C4A65732  13.885  14.563  17.213  0.2222 -0.0543 -0.1816
 3656DOPG   C1B65733  14.623  13.722  17.172  0.1495  0.1753 -0.1702
 3656DOPG   D2B65734  14.772  13.943  17.464  0.2922  0.2701  0.0618
 3656DOPG   C3B65735  14.619  14.351  17.444  0.0399  0.0886 -0.1706
 3656DOPG   C4B65736  14.536  14.774  17.467 -0.1083 -0.4411 -0.2090
 3657DOPG   GL065737  17.839  20.158  16.492 -0.1843  0.0641  0.0811
 3657DOPG   PO465738  18.273  19.960  16.547  0.1716  0.1282  0.0605
 3657DOPG   GL165739  18.141  19.697  16.340 -0.0349 -0.1731 -0.0874
 3657DOPG   GL265740  18.298  19.372  16.302 -0.2075  0.2885  0.2643
 3657DOPG   C1A65741  17.882  19.730  15.918 -0.0597 -0.1049  0.2604
 3657DOPG   D2A65742  17.612  19.508  15.713  0.0145  0.3675 -0.3075
 3657DOPG   C3A65743  17.630  19.577  15.294 -0.0052  0.2210 -0.0509
 3657DOPG   C4A65744  17.901  19.636  14.952  0.2931  0.2951 -0.1923
 3657DOPG   C1B65745  18.644  19.064  16.469  0.0938 -0.0978  0.3474
 3657DOPG   D2B65746  18.784  18.624  16.490 -0.3602 -0.0265  0.2232
 3657DOPG   C3B65747  18.966  18.435  16.763 -0.1399  0.0200 -0.1595
 3657DOPG   C4B65748  18.890  18.000  16.814 -0.3677  0.0539  0.2437
 3658DOPG   GL065749   5.771  21.905  15.689  0.0719 -0.0812 -0.1516
 3658DOPG   PO465750   5.723  21.534  15.364  0.1019 -0.0865  0.0943
 3658DOPG   GL165751   6.006  21.613  14.997  0.0318 -0.1366  0.1258
 3658DOPG   GL265752   6.088  21.983  14.911 -0.2111 -0.0062  0.2537
 3658DOPG   C1A65753   6.331  21.497  14.764 -0.0665  0.2971 -0.3101
 3658DOPG   D2A65754   6.618  21.194  14.784 -0.2174 -0.0955  0.2272
 3658DOPG   C3A65755   6.785  20.765  14.675  0.1569 -0.0636 -0.0634
 3658DOPG   C4A65756   6.875  20.374  14.482 -0.3252  0.1008  0.1382
 3658DOPG   C1B65757   6.084  21.817  14.468  0.0552 -0.0694  0.1990
 3658DOPG   D2B65758   6.399  21.673  14.192  0.0561 -0.0043 -0.0637
 3658DOPG   C3B65759   6.584  21.324  14.256  0.0293 -0.0076  0.1568
 3658DOPG   C4B65760   6.977  21.148  14.410  0.1241  0.0820  0.2374
 3659DOPG   GL065761  16.471  17.394  15.354 -0.0371 -0.2422 -0.1688
 3659DOPG   PO465762  16.689  17.704  15.129 -0.0842 -0.0878  0.0335
 3659DOPG   GL165763  16.606  18.030  15.454 -0.2928  0.1628 -0.0122
 3659DOPG   GL265764  16.387  17.854  15.599  0.2044  0.1146  0.1599
 3659DOPG   C1A65765  16.623  18.287  15.872 -0.1460  0.0137  0.2068
 3659DOPG   D2A65766  16.791  18.420  16.315 -0.0559 -0.0505 -0.3059
 3659DOPG   C3A65767  16.944  18.100  16.538  0.1753 -0.1041 -0.0292
 3659DOPG   C4A65768  17.042  17.691  16.415  0.2014  0.2602  0.2084
 3659DOPG   C1B65769  16.144  18.093  15.861  0.1738 -0.0048 -0.0927
 3659DOPG   D2B65770  15.877  18.221  16.188  0.2091  0.0862 -0.0438
 3659DOPG   C3B65771  15.664  18.199  16.581  0.1950 -0.0757 -0.1182
 3659DOPG   C4B65772  15.668  18.002  16.944 -0.3228  0.1035  0.1840
 3660DOPG   GL065773  12.848  11.438  16.097 -0.1072  0.0736 -0.0305
 3660DOPG   PO465774  13.079  11.753  16.118  0.2230  0.1831 -0.0863
 3660DOPG   GL165775  13.298  11.552  15.698 -0.2177  0.0509 -0.3063
 3660DOPG   GL265776  13.419  11.154  15.759 -0.2735  0.0533  0.1513
 3660DOPG   C1A65777  13.461  11.349  15.302 -0.0729 -0.4741 -0.1231
 3660DOPG   D2A65778  13.609  10.875  15.282 -0.0280  0.3613  0.0240
 3660DOPG   C3A65779  13.510  10.641  15.008  0.0480 -0.0690  0.0080
 3660DOPG   C4A65780  13.521  10.540  14.571  0.0064  0.0180  0.0653
 3660DOPG   C1B65781  13.297  10.736  15.699 -0.0011  0.2741 -0.3144
 3660DOPG   D2B65782  13.212  10.401  15.348 -0.3146  0.2845  0.3529
 3660DOPG   C3B65783  13.015   9.997  15.522  0.1493 -0.0416 -0.1514
 3660DOPG   C4B65784  12.657   9.783  15.614 -0.2257  0.0159  0.1271
 3661DOPG   GL065785  15.504  18.285  19.650 -0.1684 -0.3123  0.0304
 3661DOPG   PO465786  15.680  18.267  19.193 -0.2560 -0.3545  0.2396
 3661DOPG   GL165787  15.758  18.348  18.758 -0.0611  0.1398  0.0907
 3661DOPG   GL265788  16.014  18.179  18.572  0.0654 -0.1596 -0.0439
 3661DOPG   C1A65789  15.646  18.393  18.368 -0.0727  0.1518 -0.0779
 3661DOPG   D2A65790  15.718  17.945  18.227  0.2001  0.1025 -0.0204
 3661DOPG   C3A65791  15.837  17.919  17.805  0.2116 -0.1968  0.0964
 3661DOPG   C4A65792  15.822  17.814  17.353 -0.0393 -0.0731 -0.0883
 3661DOPG   C1B65793  16.185  18.257  18.165  0.4092 -0.1038  0.0683
 3661DOPG   D2B65794  16.202  18.231  17.723 -0.3699 -0.0311 -0.0439
 3661DOPG   C3B65795  15.874  18.376  17.418  0.4626  0.1490 -0.0341
 3661DOPG   C4B65796  15.844  18.523  17.038 -0.1595  0.1663 -0.0891
 3662DOPG   GL065797  14.692  11.328  17.078 -0.1877  0.0697 -0.2341
 3662DOPG   PO465798  14.657  10.943  17.085  0.1268  0.0429 -0.1145
 3662DOPG   GL165799  14.583  10.534  16.977  0.1952 -0.2535 -0.3161
 3662DOPG   GL265800  14.322  10.385  16.798  0.0013 -0.1953  0.3038
 3662DOPG   C1A65801  14.745  10.356  16.590 -0.1171 -0.1811 -0.0457
 3662DOPG   D2A65802  15.043  10.107  16.294  0.2483  0.4672 -0.0014
 3662DOPG   C3A65803  14.888   9.756  16.025  0.3231  0.1454  0.1454
 3662DOPG   C4A65804  14.632   9.363  16.080  0.1011  0.0566 -0.0585
 3662DOPG   C1B65805  14.342   9.974  16.691 -0.0669  0.2298 -0.2453
 3662DOPG   D2B65806  14.700   9.752  16.472  0.1219  0.1045 -0.1427
 3662DOPG   C3B65807  15.062   9.540  16.525 -0.0565 -0.0173 -0.1945
 3662DOPG   C4B65808  15.201   9.063  16.350 -0.3084 -0.0669 -0.0435
 3663DOPG   GL065809   6.682  20.685  16.381 -0.0707 -0.0458 -0.0188
 3663DOPG   PO465810   7.099  20.724  16.517  0.0466  0.5282  0.0698
 3663DOPG   GL165811   7.319  20.660  16.247  0.3436 -0.1852  0.3584
 3663DOPG   GL265812   7.700  20.710  16.239  0.0136  0.0888 -0.0928
 3663DOPG   C1A65813   7.309  20.430  15.868  0.2119 -0.2345 -0.1482
 3663DOPG   D2A65814   7.282  20.402  15.451  0.1315 -0.0854  0.1436
 3663DOPG   C3A65815   7.621  20.554  15.231  0.0947 -0.0238 -0.0589
 3663DOPG   C4A65816   7.852  20.284  15.283 -0.0939 -0.2746 -0.1434
 3663DOPG   C1B65817   7.789  20.523  15.808  0.2323  0.0246  0.1689
 3663DOPG   D2B65818   8.082  20.768  15.342  0.0799  0.1079 -0.0236
 3663DOPG   C3B65819   7.869  20.889  15.031 -0.3688 -0.1128  0.1670
 3663DOPG   C4B65820   7.833  21.146  14.684  0.0470 -0.1614  0.1905
 3664DOPG   GL065821  15.022  19.198  18.617  0.2383  0.0569  0.1480
 3664DOPG   PO465822  14.829  19.600  18.390 -0.0546 -0.0100  0.2427
 3664DOPG   GL165823  14.890  19.375  18.018  0.0200  0.2828 -0.0488
 3664DOPG   GL265824  15.177  19.425  17.902  0.1578 -0.0345 -0.1598
 3664DOPG   C1A65825  14.954  18.975  17.881 -0.1685 -0.0612 -0.1069
 3664DOPG   D2A65826  14.759  18.671  17.584 -0.0247  0.1468  0.1696
 3664DOPG   C3A65827  14.711  18.774  17.167  0.3782 -0.2572  0.1360
 3664DOPG   C4A65828  14.411  18.471  17.051  0.0464  0.0567  0.0541
 3664DOPG   C1B65829  15.540  19.302  17.666 -0.3145  0.0751 -0.1802
 3664DOPG   D2B65830  15.974  19.153  17.774  0.0798 -0.3061  0.2121
 3664DOPG   C3B65831  15.940  18.747  18.004  0.4215  0.0706  0.1786
 3664DOPG   C4B65832  15.749  18.433  17.875 -0.2528 -0.2118  0.1554
 3665DOPG   GL065833  16.584  17.796  13.718  0.0673 -0.1939 -0.0485
 3665DOPG   PO465834  16.813  17.838  14.100 -0.0423 -0.3246 -0.2100
 3665DOPG   GL165835  16.905  18.243  13.841  0.2484  0.0708  0.0607
 3665DOPG   GL265836  16.801  18.560  14.053  0.0983 -0.0040  0.1914
 3665DOPG   C1A65837  16.644  18.197  13.438 -0.4295  0.0418 -0.2369
 3665DOPG   D2A65838  16.604  18.411  13.100 -0.0546 -0.1642  0.0390
 3665DOPG   C3A65839  16.273  18.312  12.834 -0.1658 -0.0101  0.2159
 3665DOPG   C4A65840  16.306  18.335  12.431  0.0412 -0.2053  0.2143
 3665DOPG   C1B65841  16.441  18.897  13.929 -0.1385 -0.1817  0.0402
 3665DOPG   D2B65842  16.281  19.297  13.803  0.3008 -0.1447 -0.0186
 3665DOPG   C3B65843  16.519  19.613  13.670  0.0350 -0.2516  0.1598
 3665DOPG   C4B65844  16.454  20.096  13.757  0.0819  0.0093  0.2241
 3666DOPG   GL065845  12.355  10.294  18.243 -0.2790 -0.0853 -0.0496
 3666DOPG   PO465846  12.156   9.947  18.379 -0.0383 -0.1120 -0.0119
 3666DOPG   GL165847  11.985   9.669  18.550  0.0208 -0.3645  0.1283
 3666DOPG   GL265848  11.649   9.841  18.434  0.1047 -0.1528  0.0894
 3666DOPG   C1A65849  11.825   9.479  18.879  0.1738  0.0612 -0.3624
 3666DOPG   D2A65850  11.980   9.210  19.140  0.0052 -0.0627 -0.0702
 3666DOPG   C3A65851  11.770   8.857  19.345  0.1596  0.0672  0.3835
 3666DOPG   C4A65852  11.441   8.710  19.589 -0.1790  0.0344  0.0069
 3666DOPG   C1B65853  11.452   9.399  18.532 -0.1841  0.1503 -0.0333
 3666DOPG   D2B65854  11.516   9.131  18.945  0.0393 -0.3360 -0.1216
 3666DOPG   C3B65855  11.548   9.381  19.343 -0.0685  0.0863 -0.0406
 3666DOPG   C4B65856  11.897   9.472  19.555 -0.2046  0.2558  0.1862
 3667DOPG   GL065857  12.029  17.667  14.856 -0.2814  0.0132 -0.2759
 3667DOPG   PO465858  11.640  17.691  14.768  0.0265 -0.0816  0.1769
 3667DOPG   GL165859  11.688  17.699  14.414 -0.2053 -0.1701 -0.0215
 3667DOPG   GL265860  11.900  17.392  14.308 -0.3195  0.0605 -0.0821
 3667DOPG   C1A65861  11.283  17.852  14.124 -0.1717  0.4813  0.1230
 3667DOPG   D2A65862  11.015  18.111  13.827 -0.1279  0.0899  0.2130
 3667DOPG   C3A65863  10.586  18.033  13.868  0.2156  0.2617 -0.0436
 3667DOPG   C4A65864  10.327  18.144  14.222 -0.2339  0.0874  0.0810
 3667DOPG   C1B65865  11.669  17.476  14.001  0.4177  0.4505  0.2894
 3667DOPG   D2B65866  11.158  17.377  13.815 -0.0030  0.3061  0.3459
 3667DOPG   C3B65867  10.849  17.341  14.198  0.3102  0.3227 -0.1263
 3667DOPG   C4B65868  10.623  17.013  14.288  0.0168 -0.1397  0.5200
 3668DOPG   GL065869  12.744  14.385  15.536  0.1102 -0.2662  0.1662
 3668DOPG   PO465870  12.418  14.383  15.577  0.0586  0.2947  0.0801
 3668DOPG   GL165871  12.470  14.337  16.037 -0.2124 -0.0466  0.2094
 3668DOPG   GL265872  12.754  14.552  16.163  0.1693  0.0953 -0.1611
 3668DOPG   C1A65873  12.552  14.163  16.427  0.3806  0.0398  0.1140
 3668DOPG   D2A65874  12.228  14.018  16.631 -0.1520 -0.3993  0.1736
 3668DOPG   C3A65875  11.833  14.198  16.817 -0.1077 -0.3501 -0.2031
 3668DOPG   C4A65876  11.398  13.965  16.725  0.2503 -0.1589  0.4143
 3668DOPG   C1B65877  12.891  14.640  16.518  0.0970 -0.3395 -0.0412
 3668DOPG   D2B65878  12.921  14.619  16.913 -0.1406  0.6392  0.5409
 3668DOPG   C3B65879  12.800  14.966  17.075  0.0257 -0.1333  0.1578
 3668DOPG   C4B65880  12.786  15.246  17.406 -0.0642  0.0677 -0.0187
 3669DOPG   GL065881  15.222  12.547  15.790 -0.0791 -0.2401  0.1312
 3669DOPG   PO465882  15.463  12.333  16.043 -0.2306 -0.1236  0.3916
 3669DOPG   GL165883  15.664  12.059  15.839  0.0562  0.1358  0.0525
 3669DOPG   GL265884  15.945  12.217  15.704  0.0944  0.1310 -0.2363
 3669DOPG   C1A65885  15.694  11.891  15.382 -0.3421  0.0497 -0.0528
 3669DOPG   D2A65886  15.851  11.914  15.016 -0.1204 -0.0312  0.0902
 3669DOPG   C3A65887  15.694  11.764  14.755 -0.3646 -0.1797 -0.1937
 3669DOPG   C4A65888  15.491  11.661  14.484  0.0478 -0.0752  0.0866
 3669DOPG   C1B65889  16.104  12.345  15.329 -0.0132 -0.0951  0.3421
 3669DOPG   D2B65890  16.367  12.167  15.027  0.1323  0.1053 -0.1701
 3669DOPG   C3B65891  16.185  12.118  14.688  0.0319  0.1802  0.0065
 3669DOPG   C4B65892  15.889  12.022  14.367  0.1203 -0.2525  0.0915
 3670DOPG   GL065893  16.357  20.056  16.424 -0.0268  0.4035  0.1090
 3670DOPG   PO465894  16.082  20.434  16.358 -0.0481 -0.0466 -0.1735
 3670DOPG   GL165895  16.361  20.722  16.313  0.2979 -0.0910 -0.1290
 3670DOPG   GL265896  16.093  20.871  16.102  0.1244 -0.0612 -0.0995
 3670DOPG   C1A65897  16.806  20.823  16.307 -0.0836 -0.0747  0.3687
 3670DOPG   D2A65898  16.946  21.218  16.494 -0.0709 -0.2333  0.2169
 3670DOPG   C3A65899  17.028  21.672  16.290  0.0661  0.1319 -0.3679
 3670DOPG   C4A65900  16.955  22.188  16.237 -0.1610 -0.0213  0.1614
 3670DOPG   C1B65901  16.096  21.339  16.257  0.1398 -0.1186 -0.2885
 3670DOPG   D2B65902  16.113  21.797  16.322 -0.0738 -0.1165  0.0927
 3670DOPG   C3B65903  16.384  22.022  15.976  0.3396 -0.0853  0.0494
 3670DOPG   C4B65904  16.458  22.130  15.553  0.0999 -0.1207 -0.1396
 3671DOPG   GL065905  16.930  14.155  16.018  0.4407 -0.1708  0.0222
 3671DOPG   PO465906  17.035  14.018  15.590  0.0564 -0.1438  0.2241
 3671DOPG   GL165907  17.009  13.773  15.165  0.2225  0.3774  0.3141
 3671DOPG   GL265908  17.376  13.824  15.175 -0.1319  0.0590  0.1485
 3671DOPG   C1A65909  17.057  13.878  14.662 -0.4557 -0.1503  0.0111
 3671DOPG   D2A65910  17.108  13.839  14.123  0.0712 -0.0513 -0.0251
 3671DOPG   C3A65911  16.919  13.636  13.757 -0.1239  0.2101 -0.2472
 3671DOPG   C4A65912  16.712  13.406  13.483  0.2571  0.2010  0.2032
 3671DOPG   C1B65913  17.696  13.625  14.888 -0.3703 -0.0906  0.0067
 3671DOPG   D2B65914  17.871  13.424  14.532 -0.1267 -0.0188 -0.2147
 3671DOPG   C3B65915  17.990  13.609  14.141  0.1761  0.2405 -0.0193
 3671DOPG   C4B65916  17.901  13.531  13.718 -0.0390  0.2151 -0.0896
 3672DOPG   GL065917  14.218  13.952  16.140 -0.0657  0.0791 -0.0612
 3672DOPG   PO465918  14.513  13.633  16.013  0.2052  0.1661  0.1294
 3672DOPG   GL165919  14.530  13.834  15.628  0.0477 -0.0167  0.0206
 3672DOPG   GL265920  14.558  13.716  15.428 -0.2370 -0.1288  0.0545
 3672DOPG   C1A65921  14.706  14.234  15.426 -0.0079  0.2621 -0.2847
 3672DOPG   D2A65922  14.872  14.651  15.307  0.0575  0.0332  0.3733
 3672DOPG   C3A65923  15.336  14.713  15.261  0.2732 -0.0784  0.2038
 3672DOPG   C4A65924  15.574  15.155  15.260 -0.3988  0.1338  0.0908
 3672DOPG   C1B65925  14.685  13.696  15.153 -0.2037  0.1826  0.0720
 3672DOPG   D2B65926  14.768  14.011  14.952  0.1653  0.1361 -0.0218
 3672DOPG   C3B65927  15.053  13.893  14.571 -0.0426  0.2882 -0.2343
 3672DOPG   C4B65928  15.274  13.942  14.183  0.0602 -0.3077  0.3656
 3673DOPG   GL065929  13.579  20.850  15.154  0.0811 -0.0177 -0.1420
 3673DOPG   PO465930  13.690  20.971  15.468 -0.2144 -0.0618 -0.2183
 3673DOPG   GL165931  13.715  21.299  15.176 -0.0419  0.3001  0.4000
 3673DOPG   GL265932  13.437  21.530  15.348  0.1245 -0.0846 -0.1689
 3673DOPG   C1A65933  13.698  21.079  14.714  0.0462  0.0770 -0.0968
 3673DOPG   D2A65934  13.835  21.334  14.361 -0.4164  0.0693  0.4226
 3673DOPG   C3A65935  14.078  21.225  13.875  0.0912 -0.0093  0.1823
 3673DOPG   C4A65936  14.276  21.243  13.412  0.1113 -0.2439 -0.0755
 3673DOPG   C1B65937  12.989  21.565  15.127 -0.2769 -0.1252 -0.2001
 3673DOPG   D2B65938  12.428  21.730  15.136 -0.0890 -0.1306  0.2403
 3673DOPG   C3B65939  12.193  21.832  14.750  0.3786 -0.0984 -0.0737
 3673DOPG   C4B65940  11.925  22.202  14.506  0.3053  0.3404  0.1228
 3674DOPG   GL065941  15.237  13.057  15.838 -0.1316 -0.3405  0.0160
 3674DOPG   PO465942  15.292  13.175  15.344 -0.1636 -0.2139 -0.0289
 3674DOPG   GL165943  15.282  13.536  15.512  0.1605 -0.1573 -0.2003
 3674DOPG   GL265944  15.168  13.592  15.805  0.1920 -0.0447  0.1920
 3674DOPG   C1A65945  15.103  13.880  15.371 -0.1348 -0.1392 -0.3535
 3674DOPG   D2A65946  15.202  14.248  15.318  0.0754 -0.1927 -0.0151
 3674DOPG   C3A65947  15.096  14.381  14.930  0.2563  0.2817 -0.2865
 3674DOPG   C4A65948  15.244  14.324  14.462 -0.0208 -0.4278  0.2574
 3674DOPG   C1B65949  15.061  14.055  15.880 -0.0098 -0.2446  0.0468
 3674DOPG   D2B65950  15.185  14.510  15.705 -0.2582  0.1007 -0.0843
 3674DOPG   C3B65951  15.513  14.774  15.845  0.0358  0.2666  0.2831
 3674DOPG   C4B65952  15.605  15.227  15.851  0.0949  0.0408  0.4903
 3675DOPG   GL065953  14.443  16.756  14.501  0.0227 -0.1684 -0.1030
 3675DOPG   PO465954  14.423  16.561  14.112 -0.1012  0.0117 -0.1849
 3675DOPG   GL165955  14.571  16.635  13.790 -0.2593  0.1353 -0.3984
 3675DOPG   GL265956  14.840  16.524  13.657 -0.0923 -0.0903  0.0688
 3675DOPG   C1A65957  14.624  16.873  13.419  0.0646  0.4087 -0.1927
 3675DOPG   D2A65958  14.395  17.079  13.151  0.1371 -0.1973 -0.1499
 3675DOPG   C3A65959  14.143  16.819  12.912  0.1401  0.3083  0.0397
 3675DOPG   C4A65960  13.629  16.588  12.929  0.0575 -0.1518  0.2903
 3675DOPG   C1B65961  14.937  16.421  13.191 -0.3105  0.2736  0.1088
 3675DOPG   D2B65962  15.246  16.218  12.922  0.0722 -0.3213  0.0205
 3675DOPG   C3B65963  15.375  15.971  12.594 -0.3540  0.2341 -0.0110
 3675DOPG   C4B65964  15.558  15.537  12.528  0.2494 -0.1729 -0.1711
 3676DOPG   GL065965   9.206  16.189  17.485 -0.2743 -0.1057  0.0765
 3676DOPG   PO465966   9.402  15.893  17.246  0.0635  0.0708  0.0009
 3676DOPG   GL165967   9.725  15.946  16.969  0.0152 -0.1075  0.0552
 3676DOPG   GL265968   9.665  15.920  16.622  0.0573 -0.2726  0.0303
 3676DOPG   C1A65969   9.858  16.354  16.772 -0.1046  0.4252  0.1133
 3676DOPG   D2A65970   9.861  16.736  16.499 -0.0009 -0.3691 -0.0241
 3676DOPG   C3A65971  10.060  17.059  16.240 -0.2188  0.2143  0.0938
 3676DOPG   C4A65972  10.163  17.503  16.270 -0.0225  0.3974  0.0239
 3676DOPG   C1B65973   9.330  15.871  16.398  0.1887 -0.1905  0.0537
 3676DOPG   D2B65974   9.254  15.634  15.978  0.3373 -0.1532 -0.4438
 3676DOPG   C3B65975   9.560  15.599  15.652 -0.0629 -0.1812  0.0813
 3676DOPG   C4B65976   9.693  15.530  15.222 -0.1190  0.0758 -0.0072
 3677DOPG   GL065977  10.907  21.337  16.638 -0.1260  0.0237 -0.3656
 3677DOPG   PO465978  10.846  21.638  16.247 -0.1925  0.2980  0.1110
 3677DOPG   GL165979  10.936  22.150  16.258  0.2920 -0.3532  0.0863
 3677DOPG   GL265980  11.188  22.133  15.985 -0.3300  0.1462  0.2360
 3677DOPG   C1A65981  11.030  22.644  16.291 -0.1073 -0.0596 -0.1788
 3677DOPG   D2A65982  11.167  22.835  16.568  0.2103  0.0816  0.1211
 3677DOPG   C3A65983  11.586  22.957  16.438 -0.2370 -0.3376 -0.1272
 3677DOPG   C4A65984  12.005  23.029  16.468  0.2441  0.1592  0.1575
 3677DOPG   C1B65985  11.021  22.455  15.845  0.1156  0.0628 -0.0368
 3677DOPG   D2B65986  10.954  22.887  15.912 -0.3312 -0.0428  0.0515
 3677DOPG   C3B65987  10.982  23.211  15.656  0.4284 -0.3670 -0.0126
 3677DOPG   C4B65988  11.212  23.546  15.347  0.4577  0.1153  0.0027
 3678DOPG   GL065989  11.316  10.694  17.952 -0.0466  0.0024 -0.2618
 3678DOPG   PO465990  10.831  10.822  17.972  0.2088 -0.3091  0.2454
 3678DOPG   GL165991  10.901  10.341  17.904 -0.2514  0.0467  0.2021
 3678DOPG   GL265992  10.603  10.188  18.049 -0.0513 -0.0491  0.5277
 3678DOPG   C1A65993  10.911   9.928  17.656 -0.1120 -0.0208  0.0301
 3678DOPG   D2A65994  10.848   9.567  17.346 -0.0064 -0.0332 -0.0535
 3678DOPG   C3A65995  10.393   9.539  17.098  0.0698 -0.3809 -0.0910
 3678DOPG   C4A65996  10.240   9.211  17.121  0.3660  0.0196 -0.1709
 3678DOPG   C1B65997  10.236   9.943  18.035  0.0560  0.0908  0.3492
 3678DOPG   D2B65998   9.844  10.004  18.017  0.0671 -0.3723  0.1390
 3678DOPG   C3B65999   9.437   9.919  17.836  0.1456 -0.2081  0.0236
 3678DOPG   C4B66000   9.098  10.156  18.038 -0.1612  0.0274  0.0479
 3679DOPG   GL066001  13.909  18.935  14.900  0.0109 -0.1117 -0.0143
 3679DOPG   PO466002  13.947  18.900  14.456 -0.2162  0.1040 -0.1412
 3679DOPG   GL166003  13.819  18.997  14.127 -0.3644 -0.2432 -0.1493
 3679DOPG   GL266004  13.518  18.841  14.049  0.1745 -0.1165  0.0063
 3679DOPG   C1A66005  13.629  19.397  13.848 -0.0434  0.0363  0.3099
 3679DOPG   D2A66006  13.220  19.303  13.722 -0.1757 -0.0833 -0.1044
 3679DOPG   C3A66007  12.970  19.091  13.411  0.2170  0.2611  0.2600
 3679DOPG   C4A66008  12.632  19.225  13.292 -0.3741  0.0090 -0.2552
 3679DOPG   C1B66009  13.623  18.445  13.735 -0.2196  0.3331 -0.1509
 3679DOPG   D2B66010  13.925  18.475  13.396  0.2488 -0.3272 -0.0160
 3679DOPG   C3B66011  14.130  18.319  13.035 -0.0309 -0.0591 -0.1747
 3679DOPG   C4B66012  14.277  17.987  12.747  0.3930 -0.1395 -0.0487
 3680DOPG   GL066013  14.247  11.443  17.303  0.0358  0.0888  0.0299
 3680DOPG   PO466014  14.404  11.587  17.705 -0.0389 -0.0165 -0.1691
 3680DOPG   GL166015  14.626  11.977  17.854  0.2928 -0.3779  0.0344
 3680DOPG   GL266016  14.831  12.094  17.630  0.1211 -0.2014 -0.0426
 3680DOPG   C1A66017  14.632  12.322  18.016 -0.0949  0.0831  0.1390
 3680DOPG   D2A66018  14.887  12.728  17.859 -0.0572 -0.3959 -0.1461
 3680DOPG   C3A66019  14.670  13.045  17.964  0.2600 -0.1581  0.2797
 3680DOPG   C4A66020  14.563  13.313  18.318 -0.0258  0.1140 -0.1367
 3680DOPG   C1B66021  14.372  12.329  17.557 -0.2168 -0.1766 -0.2031
 3680DOPG   D2B66022  14.228  12.605  17.866 -0.0674  0.0440 -0.1810
 3680DOPG   C3B66023  14.402  12.698  18.244 -0.1703 -0.2483  0.3268
 3680DOPG   C4B66024  14.499  12.963  18.674 -0.2883 -0.1195 -0.0153
 3681DOPG   GL066025  10.059  11.363  17.541  0.3337  0.2087 -0.1169
 3681DOPG   PO466026  10.327  10.987  17.536 -0.3038 -0.3038 -0.2824
 3681DOPG   GL166027   9.969  10.814  17.703 -0.0296 -0.1675 -0.0365
 3681DOPG   GL266028   9.933  10.783  17.989  0.0836 -0.0711 -0.0814
 3681DOPG   C1A66029   9.625  10.442  17.814 -0.0257  0.1846 -0.3310
 3681DOPG   D2A66030   9.211  10.514  17.620 -0.2806 -0.0563 -0.0088
 3681DOPG   C3A66031   9.119  10.133  17.491  0.3235  0.0521 -0.0395
 3681DOPG   C4A66032   8.844   9.809  17.654 -0.0372  0.0374  0.0692
 3681DOPG   C1B66033   9.785  10.631  18.285 -0.3732  0.1486  0.1522
 3681DOPG   D2B66034   9.577  10.232  18.382 -0.4607 -0.2779  0.0993
 3681DOPG   C3B66035   9.328  10.101  18.660  0.3480 -0.2932  0.1752
 3681DOPG   C4B66036   8.956  10.208  18.880  0.1628 -0.2758  0.4299
 3682DOPG   GL066037  13.875  19.786  16.009  0.0047  0.0729  0.2729
 3682DOPG   PO466038  13.444  19.854  15.917  0.1445 -0.0375 -0.3093
 3682DOPG   GL166039  13.061  19.569  15.828  0.3974  0.0291  0.2705
 3682DOPG   GL266040  12.724  19.558  15.947  0.4134 -0.1250 -0.1176
 3682DOPG   C1A66041  12.922  19.103  15.777 -0.1146 -0.0256  0.0878
 3682DOPG   D2A66042  12.538  18.829  15.553 -0.3529 -0.1248  0.1676
 3682DOPG   C3A66043  12.181  19.049  15.415  0.3218  0.1990  0.0368
 3682DOPG   C4A66044  11.754  18.962  15.217 -0.1749 -0.4245  0.3501
 3682DOPG   C1B66045  12.490  19.119  16.077  0.0110  0.0362 -0.2072
 3682DOPG   D2B66046  12.098  18.994  16.193 -0.1572 -0.1243 -0.0862
 3682DOPG   C3B66047  11.873  19.276  16.478  0.1497  0.3124 -0.0394
 3682DOPG   C4B66048  11.670  19.534  16.781 -0.0722  0.0542  0.0320
 3683DOPG   GL066049  19.602  20.291  16.564  0.1225  0.0523  0.2038
 3683DOPG   PO466050  19.372  20.605  16.607  0.0630  0.2876  0.3529
 3683DOPG   GL166051  19.446  21.024  16.503  0.0303  0.1542  0.0235
 3683DOPG   GL266052  19.656  21.122  16.549  0.0115 -0.4005 -0.0526
 3683DOPG   C1A66053  19.387  21.545  16.477  0.0199  0.1944 -0.0929
 3683DOPG   D2A66054  19.500  21.944  16.136  0.0816 -0.0260  0.0617
 3683DOPG   C3A66055  19.337  22.361  16.307  0.1966  0.0789 -0.1564
 3683DOPG   C4A66056  18.873  22.532  16.561  0.1168  0.0318 -0.1737
 3683DOPG   C1B66057  19.635  21.403  16.106 -0.1217  0.1242  0.1696
 3683DOPG   D2B66058  19.766  21.539  15.713 -0.1159  0.1726  0.0736
 3683DOPG   C3B66059  19.429  21.603  15.512  0.0363  0.1152 -0.2194
 3683DOPG   C4B66060  19.213  21.954  15.515  0.1400  0.2900 -0.4601
 3684DOPG   GL066061  10.257  19.496  16.836 -0.1001  0.1286 -0.0588
 3684DOPG   PO466062  10.663  19.833  16.881  0.0463  0.0367  0.0324
 3684DOPG   GL166063  10.501  19.935  16.503  0.1758  0.0662  0.2405
 3684DOPG   GL266064  10.100  19.967  16.371 -0.1388 -0.2011 -0.1154
 3684DOPG   C1A66065  10.601  20.001  16.142  0.1888  0.0405  0.2125
 3684DOPG   D2A66066  10.577  19.956  15.652  0.0429 -0.2576 -0.0695
 3684DOPG   C3A66067  10.591  19.680  15.269  0.0991 -0.3586 -0.1536
 3684DOPG   C4A66068  10.601  19.262  15.153 -0.2263  0.0179  0.0932
 3684DOPG   C1B66069  10.257  19.615  16.231  0.0192  0.0697  0.1275
 3684DOPG   D2B66070  10.399  19.241  16.103 -0.0972 -0.2119 -0.2477
 3684DOPG   C3B66071  10.569  18.888  16.469 -0.1574 -0.0199  0.0535
 3684DOPG   C4B66072  10.802  18.484  16.603  0.1661  0.3484  0.1117
 3685DOPG   GL066073   9.082  11.713  16.824  0.0819 -0.2198 -0.2227
 3685DOPG   PO466074   8.963  12.033  17.038 -0.1830  0.2763 -0.1614
 3685DOPG   GL166075   8.581  12.016  17.005 -0.0868  0.2579 -0.2328
 3685DOPG   GL266076   8.590  12.219  16.739  0.1865  0.0152  0.2730
 3685DOPG   C1A66077   8.248  11.978  17.048  0.0443  0.0517  0.2433
 3685DOPG   D2A66078   7.892  11.991  17.292  0.2966 -0.0565  0.0528
 3685DOPG   C3A66079   7.803  11.840  17.776  0.1565 -0.1358 -0.1866
 3685DOPG   C4A66080   7.695  11.814  18.210 -0.0354 -0.2289  0.2939
 3685DOPG   C1B66081   8.331  12.071  16.470 -0.1381 -0.0181  0.0276
 3685DOPG   D2B66082   8.133  12.014  16.035  0.0604 -0.2892  0.0568
 3685DOPG   C3B66083   7.992  12.352  15.923 -0.1616 -0.1629 -0.0768
 3685DOPG   C4B66084   7.686  12.720  16.117  0.2722  0.0744  0.0748
 3686DOPG   GL066085  17.157  12.595  16.524  0.2133 -0.2339 -0.0304
 3686DOPG   PO466086  17.221  12.994  16.397 -0.0393 -0.1570  0.2106
 3686DOPG   GL166087  17.215  12.601  16.026  0.0571  0.1093  0.3791
 3686DOPG   GL266088  17.005  12.316  15.959 -0.0167  0.0164 -0.0533
 3686DOPG   C1A66089  17.382  12.588  15.697 -0.2538  0.0635  0.0901
 3686DOPG   D2A66090  17.811  12.224  15.557  0.2861 -0.2254  0.1709
 3686DOPG   C3A66091  17.925  12.072  15.184 -0.0674  0.0340 -0.3493
 3686DOPG   C4A66092  17.734  12.138  14.795  0.1589  0.0503 -0.0646
 3686DOPG   C1B66093  17.036  11.894  15.938 -0.2593 -0.0282 -0.0480
 3686DOPG   D2B66094  17.273  11.477  15.987 -0.3420  0.0303  0.2251
 3686DOPG   C3B66095  17.429  11.285  15.599  0.1592  0.0295  0.3034
 3686DOPG   C4B66096  17.837  11.186  15.319  0.1049  0.5026  0.1806
 3687DOPG   GL066097  13.815  11.006  16.727 -0.0087  0.2154  0.0126
 3687DOPG   PO466098  13.552  10.974  16.267  0.0045 -0.1901  0.0048
 3687DOPG   GL166099  13.795  10.767  15.886 -0.2671  0.2124 -0.1771
 3687DOPG   GL266100  14.174  10.809  15.893 -0.0116  0.2634  0.0067
 3687DOPG   C1A66101  13.903  10.484  15.542  0.0802  0.1743 -0.3100
 3687DOPG   D2A66102  14.282  10.381  15.531 -0.2832 -0.1249  0.0544
 3687DOPG   C3A66103  14.429  10.081  15.211 -0.1101  0.3067  0.1116
 3687DOPG   C4A66104  14.708   9.908  14.924 -0.3346 -0.2648  0.5101
 3687DOPG   C1B66105  14.575  10.817  15.667  0.1095  0.3573 -0.3904
 3687DOPG   D2B66106  14.669  10.754  15.191 -0.1131  0.1713  0.1593
 3687DOPG   C3B66107  14.649  10.447  14.812 -0.0071 -0.4309  0.0262
 3687DOPG   C4B66108  14.591  10.397  14.383  0.2624 -0.2161 -0.0137
 3688DOPG   GL066109   8.983  14.830  17.282  0.2313  0.2550  0.0196
 3688DOPG   PO466110   9.155  14.723  16.889 -0.1971  0.1460 -0.0879
 3688DOPG   GL166111   9.503  15.039  16.767 -0.0778 -0.1266 -0.0729
 3688DOPG   GL266112   9.412  15.352  16.791  0.2553  0.1176 -0.1137
 3688DOPG   C1A66113   9.905  15.112  16.642  0.1268  0.0364 -0.4030
 3688DOPG   D2A66114  10.288  15.128  16.474  0.1975 -0.1991  0.1601
 3688DOPG   C3A66115  10.676  15.242  16.728 -0.0456  0.3236 -0.1206
 3688DOPG   C4A66116  10.997  15.583  16.689  0.0206  0.0508  0.2091
 3688DOPG   C1B66117   9.611  15.476  16.398 -0.1565  0.1458  0.4524
 3688DOPG   D2B66118   9.811  15.258  16.086  0.4316 -0.2621  0.1337
 3688DOPG   C3B66119  10.166  15.235  16.040  0.1621  0.0556  0.2690
 3688DOPG   C4B66120  10.473  15.629  15.943 -0.0411  0.4101  0.2293
 3689DOPG   GL066121  23.450  18.715  16.556 -0.2831  0.4048  0.0940
 3689DOPG   PO466122  23.799  18.435  16.582 -0.0592  0.5467 -0.0302
 3689DOPG   GL166123  23.956  18.402  16.162  0.4058 -0.0243 -0.0791
 3689DOPG   GL266124  24.296  18.333  16.088  0.0809  0.0424  0.0824
 3689DOPG   C1A66125  24.025  18.486  15.727  0.2969  0.1256 -0.2113
 3689DOPG   D2A66126  24.213  18.537  15.366 -0.2590  0.2535  0.4905
 3689DOPG   C3A66127  24.051  18.431  14.994 -0.1535  0.0313 -0.0640
 3689DOPG   C4A66128  24.229  18.156  14.675 -0.3490 -0.2492 -0.0651
 3689DOPG   C1B66129  24.388  17.985  15.840  0.0657 -0.1372 -0.0102
 3689DOPG   D2B66130  24.137  17.998  15.524 -0.0015  0.2151 -0.1684
 3689DOPG   C3B66131  24.197  17.929  15.154 -0.0912 -0.0749  0.0716
 3689DOPG   C4B66132  24.010  17.655  14.700 -0.1179  0.0007 -0.0709
 3690DOPG   GL066133   9.587  16.018  17.798  0.1042  0.3088  0.0625
 3690DOPG   PO466134   9.892  15.822  17.505 -0.0673  0.0160 -0.1145
 3690DOPG   GL166135  10.189  15.746  17.263 -0.0217 -0.1757 -0.0822
 3690DOPG   GL266136  10.338  15.612  17.417  0.0072 -0.0110  0.0980
 3690DOPG   C1A66137  10.633  15.733  16.982 -0.0967  0.4514 -0.2895
 3690DOPG   D2A66138  10.937  15.541  17.242  0.0464  0.3122 -0.0851
 3690DOPG   C3A66139  11.009  15.785  17.646 -0.0526  0.3661  0.1420
 3690DOPG   C4A66140  11.200  16.075  17.781 -0.2110  0.2184 -0.0294
 3690DOPG   C1B66141  10.593  16.095  17.480  0.0002 -0.3191  0.1745
 3690DOPG   D2B66142  10.918  16.442  17.539  0.2369 -0.0046  0.0131
 3690DOPG   C3B66143  11.370  16.387  17.413  0.0749  0.2499 -0.1995
 3690DOPG   C4B66144  11.713  16.457  17.196 -0.0325 -0.0419  0.1570
 3691DOPG   GL066145  14.046  13.464  15.922 -0.2175 -0.0587 -0.3014
 3691DOPG   PO466146  14.072  13.794  15.510  0.0168  0.2881 -0.0897
 3691DOPG   GL166147  14.180  13.718  15.048 -0.0418 -0.0107 -0.0645
 3691DOPG   GL266148  13.981  13.828  14.921  0.2835  0.1832 -0.1639
 3691DOPG   C1A66149  14.512  13.736  14.673  0.0508  0.3189  0.1491
 3691DOPG   D2A66150  14.861  13.450  14.384 -0.0147 -0.2974 -0.0623
 3691DOPG   C3A66151  14.954  13.669  13.986 -0.0499 -0.0929  0.0183
 3691DOPG   C4A66152  14.877  14.039  13.629  0.1199  0.0009 -0.1383
 3691DOPG   C1B66153  14.051  13.528  14.599 -0.0205 -0.0030 -0.1002
 3691DOPG   D2B66154  14.024  13.320  14.187 -0.0625  0.0965  0.0997
 3691DOPG   C3B66155  13.746  13.128  13.918  0.1399  0.0503 -0.2985
 3691DOPG   C4B66156  13.744  13.104  13.500  0.0581 -0.1043 -0.0132
 3692DOPG   GL066157  16.462  14.023  15.949 -0.0884  0.0096 -0.0744
 3692DOPG   PO466158  16.349  14.373  16.057  0.0331 -0.0489  0.0500
 3692DOPG   GL166159  15.955  14.618  16.226 -0.0038 -0.2910  0.2790
 3692DOPG   GL266160  16.062  14.893  16.143 -0.2509  0.3519  0.0308
 3692DOPG   C1A66161  15.546  14.859  16.312 -0.0197  0.3657 -0.0695
 3692DOPG   D2A66162  15.211  15.080  16.553 -0.0081 -0.0351 -0.2269
 3692DOPG   C3A66163  15.324  15.332  16.990 -0.0614  0.3206  0.0582
 3692DOPG   C4A66164  15.681  15.378  17.060 -0.0853 -0.0654 -0.3725
 3692DOPG   C1B66165  15.816  15.275  16.284 -0.2709 -0.2433 -0.0103
 3692DOPG   D2B66166  15.568  15.644  16.351 -0.1573 -0.1680 -0.0186
 3692DOPG   C3B66167  15.572  15.817  16.810 -0.0173 -0.0418  0.0967
 3692DOPG   C4B66168  15.533  15.819  17.222  0.1969 -0.2148 -0.0914
 3693DOPG   GL066169  12.301  11.451  16.409 -0.0148 -0.0447 -0.1189
 3693DOPG   PO466170  12.317  11.353  15.919 -0.2842  0.2350 -0.4578
 3693DOPG   GL166171  12.730  11.301  15.581 -0.2409 -0.0629  0.0213
 3693DOPG   GL266172  12.765  11.537  15.329  0.1154  0.0083 -0.1477
 3693DOPG   C1A66173  12.904  10.958  15.375  0.0033  0.2561  0.0397
 3693DOPG   D2A66174  12.955  10.788  14.927  0.1898 -0.1367 -0.1386
 3693DOPG   C3A66175  12.879  10.690  14.465 -0.2528 -0.4504  0.1362
 3693DOPG   C4A66176  12.816  10.613  14.070 -0.0072  0.1217 -0.0143
 3693DOPG   C1B66177  12.565  11.265  15.074 -0.1015  0.2606 -0.1695
 3693DOPG   D2B66178  12.225  11.348  14.760  0.0845 -0.2010 -0.2777
 3693DOPG   C3B66179  11.770  11.417  14.670 -0.0392 -0.4001  0.1082
 3693DOPG   C4B66180  11.440  11.169  14.561 -0.2918  0.1101  0.0923
 3694DOPG   GL066181  13.287  15.567  15.203  0.1944 -0.1695 -0.2306
 3694DOPG   PO466182  13.633  15.745  15.297 -0.0400  0.0088  0.1036
 3694DOPG   GL166183  13.958  15.521  15.541 -0.0292 -0.2458  0.0853
 3694DOPG   GL266184  13.910  15.183  15.690  0.1207 -0.1147 -0.4193
 3694DOPG   C1A66185  14.313  15.392  15.443  0.5803  0.1695 -0.0763
 3694DOPG   D2A66186  14.607  15.314  15.677  0.0666  0.3501 -0.3002
 3694DOPG   C3A66187  14.916  15.621  15.752  0.0253  0.0408  0.1219
 3694DOPG   C4A66188  14.966  16.154  15.724  0.1104 -0.0635 -0.3572
 3694DOPG   C1B66189  14.367  14.972  15.914 -0.1096  0.2254  0.0400
 3694DOPG   D2B66190  14.509  14.975  16.289  0.3475  0.2690  0.1807
 3694DOPG   C3B66191  14.766  15.244  16.276 -0.2259 -0.1128  0.2540
 3694DOPG   C4B66192  15.123  15.374  16.202 -0.0682  0.0617 -0.1658
 3695DOPG   GL066193  17.596  13.790  17.322  0.0333  0.1858 -0.0932
 3695DOPG   PO466194  17.604  13.829  16.861 -0.3562  0.0255  0.0541
 3695DOPG   GL166195  17.325  14.173  17.012  0.2261  0.0455 -0.1885
 3695DOPG   GL266196  17.064  14.395  16.792  0.1226  0.0510  0.1550
 3695DOPG   C1A66197  17.212  14.283  17.360  0.0731 -0.2559 -0.2760
 3695DOPG   D2A66198  17.481  14.549  17.724 -0.0928  0.0278 -0.0132
 3695DOPG   C3A66199  17.362  14.940  17.842  0.1314 -0.0151  0.2211
 3695DOPG   C4A66200  17.238  15.426  17.854  0.0518 -0.1158  0.1603
 3695DOPG   C1B66201  16.854  14.541  17.142  0.0785  0.1357 -0.2407
 3695DOPG   D2B66202  16.476  14.392  17.381  0.0093  0.1887  0.0647
 3695DOPG   C3B66203  16.286  14.266  17.811 -0.2074 -0.0767  0.1535
 3695DOPG   C4B66204  16.308  14.218  18.126  0.1034  0.0615 -0.2820
 3696DOPG   GL066205  21.118  17.557  16.240 -0.1762 -0.1233 -0.0378
 3696DOPG   PO466206  21.252  17.949  15.968 -0.2389 -0.3664  0.0519
 3696DOPG   GL166207  21.288  17.537  15.767 -0.2163  0.0171 -0.2364
 3696DOPG   GL266208  21.087  17.340  15.704 -0.1100  0.0250 -0.1543
 3696DOPG   C1A66209  21.559  17.575  15.432  0.0772  0.3363 -0.4237
 3696DOPG   D2A66210  21.616  17.670  15.018  0.0061 -0.1083 -0.1620
 3696DOPG   C3A66211  21.590  17.451  14.704  0.0633  0.0740  0.0797
 3696DOPG   C4A66212  21.538  17.081  14.469  0.4492 -0.0631  0.1021
 3696DOPG   C1B66213  21.293  17.027  15.559  0.3135 -0.1519  0.1360
 3696DOPG   D2B66214  21.551  16.725  15.418  0.0499 -0.1573 -0.3255
 3696DOPG   C3B66215  21.266  16.441  15.253  0.0682  0.1212  0.0677
 3696DOPG   C4B66216  20.962  16.297  15.123 -0.0674  0.2489  0.1368
 3697DOPG   GL066217   9.047  14.262  16.678  0.0547 -0.0033 -0.0535
 3697DOPG   PO466218   9.363  14.152  16.365 -0.1433  0.2673  0.3574
 3697DOPG   GL166219   9.335  14.333  16.008  0.0239  0.1101  0.0643
 3697DOPG   GL266220   9.231  14.241  15.831 -0.3112 -0.2446 -0.1888
 3697DOPG   C1A66221   9.348  14.733  15.859  0.3077 -0.0956  0.3188
 3697DOPG   D2A66222   9.614  15.146  15.630  0.2436  0.2235 -0.1871
 3697DOPG   C3A66223   9.999  15.214  15.594  0.1303 -0.3900 -0.3078
 3697DOPG   C4A66224  10.149  15.197  15.242 -0.3152  0.1731  0.1263
 3697DOPG   C1B66225   9.067  14.408  15.570 -0.2790 -0.0834  0.0102
 3697DOPG   D2B66226   8.834  14.536  15.298 -0.3077  0.0975  0.3030
 3697DOPG   C3B66227   8.475  14.608  15.569 -0.1473 -0.3249  0.1719
 3697DOPG   C4B66228   8.223  14.451  15.747 -0.1230 -0.3847 -0.0094
 3698DOPG   GL066229  13.177  16.319  15.343  0.4123 -0.1814  0.4149
 3698DOPG   PO466230  13.190  16.793  15.566  0.0398 -0.0949 -0.1625
 3698DOPG   GL166231  13.197  16.921  15.970  0.0664  0.1960  0.1755
 3698DOPG   GL266232  13.080  16.759  16.204  0.2143  0.1283 -0.3176
 3698DOPG   C1A66233  13.124  17.186  16.406  0.1541 -0.2754 -0.1389
 3698DOPG   D2A66234  13.049  17.173  16.866  0.2910 -0.1665 -0.0250
 3698DOPG   C3A66235  13.289  17.034  17.149 -0.2948  0.1116  0.0752
 3698DOPG   C4A66236  13.689  17.062  17.493  0.1658  0.1458 -0.0821
 3698DOPG   C1B66237  13.274  16.464  16.434 -0.1826 -0.2973 -0.0601
 3698DOPG   D2B66238  13.161  16.212  16.749 -0.2745  0.4129  0.2909
 3698DOPG   C3B66239  12.834  15.976  16.883 -0.2252  0.0588 -0.1395
 3698DOPG   C4B66240  12.533  15.719  16.623 -0.1003 -0.0191 -0.0356
 3699DOPG   GL066241  13.163  18.236  13.933 -0.0424  0.0458 -0.4481
 3699DOPG   PO466242  13.042  18.403  14.328 -0.0029 -0.0413  0.0702
 3699DOPG   GL166243  12.696  18.698  14.203  0.0649 -0.0969 -0.0714
 3699DOPG   GL266244  13.013  18.811  13.922  0.0187  0.1004  0.0653
 3699DOPG   C1A66245  12.346  18.673  13.929  0.0310  0.1036 -0.3743
 3699DOPG   D2A66246  12.125  18.582  13.557 -0.0952 -0.2652 -0.3634
 3699DOPG   C3A66247  12.387  18.277  13.247 -0.3847 -0.1424 -0.1415
 3699DOPG   C4A66248  12.568  18.441  12.831 -0.0603  0.0003  0.1747
 3699DOPG   C1B66249  13.100  18.573  13.560 -0.1751 -0.0130  0.1095
 3699DOPG   D2B66250  13.022  18.393  13.089  0.0413  0.0574 -0.3903
 3699DOPG   C3B66251  13.280  18.080  12.926  0.1894 -0.1726  0.1130
 3699DOPG   C4B66252  13.445  17.968  12.555  0.3315  0.0260 -0.2409
 3700DOPG   GL066253  17.842  17.968  14.800  0.1488  0.2664  0.0868
 3700DOPG   PO466254  18.086  18.049  15.180 -0.3545  0.2179 -0.1268
 3700DOPG   GL166255  18.092  18.361  15.543 -0.2383  0.1090  0.2102
 3700DOPG   GL266256  17.913  18.527  15.524  0.1605 -0.0209  0.0578
 3700DOPG   C1A66257  18.177  18.693  15.830  0.1683  0.2379 -0.1402
 3700DOPG   D2A66258  18.117  18.876  16.250 -0.0333 -0.3417 -0.2242
 3700DOPG   C3A66259  17.792  19.358  16.244 -0.5671 -0.0697 -0.0735
 3700DOPG   C4A66260  17.356  19.460  16.314 -0.0461  0.0869  0.1503
 3700DOPG   C1B66261  17.591  18.660  15.187  0.0854 -0.3060 -0.2490
 3700DOPG   D2B66262  17.488  19.125  15.150 -0.0479 -0.3198  0.0323
 3700DOPG   C3B66263  17.153  19.262  15.352 -0.0548 -0.4822  0.1040
 3700DOPG   C4B66264  17.096  19.440  15.852 -0.3621  0.1938  0.0268
 3701DOPG   GL066265  16.080  18.395  14.430 -0.4032 -0.2022  0.0163
 3701DOPG   PO466266  16.036  18.821  14.638 -0.1088 -0.0617  0.1106
 3701DOPG   GL166267  15.940  19.211  14.751  0.1320  0.2019 -0.0804
 3701DOPG   GL266268  16.015  19.627  14.883  0.3363 -0.1309  0.3418
 3701DOPG   C1A66269  16.124  19.540  14.388  0.1104 -0.0437 -0.0762
 3701DOPG   D2A66270  16.004  19.858  14.199 -0.0622 -0.0276 -0.2270
 3701DOPG   C3A66271  16.097  19.730  13.881  0.2387  0.0854 -0.0373
 3701DOPG   C4A66272  15.939  19.603  13.432 -0.2130  0.0298  0.3296
 3701DOPG   C1B66273  16.355  19.959  14.793 -0.2496 -0.0950 -0.0472
 3701DOPG   D2B66274  16.645  20.227  14.609 -0.1563  0.1832 -0.2558
 3701DOPG   C3B66275  16.760  20.679  14.601  0.1437  0.1614 -0.1624
 3701DOPG   C4B66276  16.697  21.107  14.612 -0.0372  0.2392  0.0952
 3702DOPG   GL066277  19.045  19.737  17.008 -0.1151  0.2420  0.1298
 3702DOPG   PO466278  18.756  19.855  17.321  0.2375  0.1109 -0.0318
 3702DOPG   GL166279  18.520  19.607  17.118 -0.1391  0.1359  0.1644
 3702DOPG   GL266280  18.324  19.526  16.791  0.2560  0.4514  0.1659
 3702DOPG   C1A66281  18.480  19.145  17.123  0.2271 -0.0878  0.2262
 3702DOPG   D2A66282  18.470  18.716  17.269 -0.1826  0.0684 -0.2584
 3702DOPG   C3A66283  18.167  18.335  17.243 -0.0378  0.0349 -0.0422
 3702DOPG   C4A66284  17.756  18.224  17.082 -0.2433 -0.2742 -0.0496
 3702DOPG   C1B66285  18.222  19.145  16.720  0.0097 -0.1523 -0.0748
 3702DOPG   D2B66286  18.307  18.774  16.769  0.1133  0.0259  0.0523
 3702DOPG   C3B66287  17.966  18.486  16.733 -0.0151  0.0920 -0.2028
 3702DOPG   C4B66288  17.551  18.358  16.675 -0.0712 -0.1774  0.0881
 3703DOPG   GL066289  15.772  18.367  14.797  0.2410  0.0925  0.0555
 3703DOPG   PO466290  15.568  18.400  14.437  0.0387  0.3714  0.0129
 3703DOPG   GL166291  15.833  18.708  14.190 -0.1249 -0.2228  0.1215
 3703DOPG   GL266292  15.661  19.003  14.185  0.0756 -0.0599 -0.0671
 3703DOPG   C1A66293  15.911  18.899  13.698 -0.1444 -0.1795  0.1106
 3703DOPG   D2A66294  16.213  18.865  13.421  0.2081  0.0826  0.3130
 3703DOPG   C3A66295  16.347  18.917  12.956  0.0154  0.2061 -0.2154
 3703DOPG   C4A66296  16.453  18.787  12.581  0.0159  0.0097  0.0217
 3703DOPG   C1B66297  15.800  19.327  14.009 -0.0887 -0.0973 -0.5470
 3703DOPG   D2B66298  15.517  19.677  13.830 -0.0415  0.0175 -0.1520
 3703DOPG   C3B66299  15.637  20.110  13.708 -0.0072 -0.0976 -0.0243
 3703DOPG   C4B66300  15.964  20.169  13.387  0.0307  0.0827 -0.0627
 3704DOPG   GL066301  15.102  19.866  14.585 -0.3145 -0.2991 -0.1382
 3704DOPG   PO466302  14.841  19.813  14.413  0.0856  0.3505 -0.0780
 3704DOPG   GL166303  14.441  19.699  14.218  0.2062  0.0806  0.0846
 3704DOPG   GL266304  14.140  19.515  14.203  0.3608 -0.2704 -0.0391
 3704DOPG   C1A66305  14.148  20.007  14.167 -0.3522  0.0344 -0.1102
 3704DOPG   D2A66306  14.309  20.358  14.065  0.0273 -0.2360  0.0503
 3704DOPG   C3A66307  14.165  20.668  14.257 -0.4208  0.1974  0.1125
 3704DOPG   C4A66308  14.148  20.985  14.455  0.2304 -0.3375  0.0892
 3704DOPG   C1B66309  14.184  19.649  13.780 -0.1555  0.1480 -0.0175
 3704DOPG   D2B66310  14.553  20.010  13.784 -0.0769  0.3464  0.0556
 3704DOPG   C3B66311  14.422  20.360  13.467  0.3545  0.0127 -0.0055
 3704DOPG   C4B66312  14.368  20.765  13.183  0.0861 -0.1308 -0.3363
 3705DOPG   GL066313  15.448  17.512  14.281  0.2033 -0.0671 -0.0842
 3705DOPG   PO466314  15.314  17.985  14.149  0.2320 -0.0731  0.3721
 3705DOPG   GL166315  15.231  18.405  14.000  0.0047 -0.3300 -0.0396
 3705DOPG   GL266316  14.995  18.473  13.782 -0.1694 -0.0418 -0.0691
 3705DOPG   C1A66317  15.433  18.773  13.817  0.0730 -0.1779  0.0098
 3705DOPG   D2A66318  15.531  18.897  13.409  0.0668  0.3058  0.0329
 3705DOPG   C3A66319  15.852  19.128  13.117  0.1160  0.0530 -0.3163
 3705DOPG   C4A66320  16.081  19.396  12.914  0.1999  0.2109  0.0271
 3705DOPG   C1B66321  15.007  18.868  13.510  0.2589 -0.3246  0.0886
 3705DOPG   D2B66322  14.668  19.184  13.348 -0.0719  0.1433  0.2851
 3705DOPG   C3B66323  14.600  19.655  13.338 -0.0513 -0.0182 -0.1092
 3705DOPG   C4B66324  14.797  20.104  13.231 -0.2108 -0.1424  0.0523
 3706DOPG   GL066325  21.490  17.461  16.548 -0.0976 -0.0785 -0.1070
 3706DOPG   PO466326  21.542  17.014  16.711  0.0725 -0.0623 -0.1207
 3706DOPG   GL166327  21.484  16.660  16.548 -0.1699 -0.1607 -0.2363
 3706DOPG   GL266328  21.769  16.615  16.261  0.1053 -0.0928 -0.2695
 3706DOPG   C1A66329  21.449  16.243  16.313 -0.1012 -0.0532  0.1533
 3706DOPG   D2A66330  21.384  15.912  16.099 -0.3319  0.0330 -0.1882
 3706DOPG   C3A66331  21.422  15.574  16.158  0.1153  0.3577 -0.0819
 3706DOPG   C4A66332  21.552  15.089  15.956 -0.0781 -0.4068  0.0225
 3706DOPG   C1B66333  21.859  16.059  15.962  0.1054 -0.1551  0.1771
 3706DOPG   D2B66334  21.749  15.717  15.786 -0.2735  0.0554  0.3551
 3706DOPG   C3B66335  21.394  15.689  15.573  0.0069 -0.2804 -0.1465
 3706DOPG   C4B66336  20.967  15.565  15.543  0.0599  0.2535 -0.1944
 3707DOPG   GL066337  17.930  14.447  15.278 -0.2872  0.1098 -0.0050
 3707DOPG   PO466338  18.007  14.888  15.410 -0.0281  0.1089  0.2345
 3707DOPG   GL166339  18.375  14.605  15.271  0.2393 -0.0985 -0.1179
 3707DOPG   GL266340  18.451  14.339  15.100  0.1398  0.0921  0.1887
 3707DOPG   C1A66341  18.794  14.584  15.437 -0.1702  0.1561  0.4239
 3707DOPG   D2A66342  19.220  14.791  15.283  0.0279 -0.2221 -0.0194
 3707DOPG   C3A66343  19.702  14.665  15.251  0.4223  0.0832  0.1300
 3707DOPG   C4A66344  19.943  14.328  15.229 -0.2285  0.1211  0.0471
 3707DOPG   C1B66345  18.549  14.365  14.630  0.0173  0.1887 -0.1796
 3707DOPG   D2B66346  18.961  14.445  14.433  0.0691  0.1726 -0.1786
 3707DOPG   C3B66347  19.004  14.843  14.179  0.0799  0.2153 -0.0056
 3707DOPG   C4B66348  19.120  15.188  13.836 -0.2029  0.0814  0.5341
 3708DOPG   GL066349  12.376  16.023  14.233 -0.2585 -0.2433  0.2636
 3708DOPG   PO466350  11.968  16.033  14.046 -0.0788 -0.0705 -0.0146
 3708DOPG   GL166351  11.503  15.989  13.955  0.2144  0.0893 -0.0616
 3708DOPG   GL266352  11.212  16.128  14.172 -0.3220  0.0582  0.0591
 3708DOPG   C1A66353  11.213  15.972  13.658 -0.1764 -0.0841  0.0260
 3708DOPG   D2A66354  11.118  16.270  13.239 -0.1488 -0.2135  0.4428
 3708DOPG   C3A66355  11.198  16.171  12.803  0.4510 -0.0878  0.3931
 3708DOPG   C4A66356  11.334  16.466  12.550 -0.3329  0.1038 -0.1825
 3708DOPG   C1B66357  11.039  15.679  14.275  0.1967  0.0232  0.0694
 3708DOPG   D2B66358  10.843  15.243  14.466  0.3955  0.1587 -0.2303
 3708DOPG   C3B66359  10.578  14.974  14.213  0.1023 -0.1692 -0.1973
 3708DOPG   C4B66360  10.223  14.958  14.049  0.1099  0.1514  0.1916
 3709DOPG   GL066361  11.330  15.374  19.201  0.1139  0.1006  0.0834
 3709DOPG   PO466362  11.582  15.159  18.862  0.0952 -0.0590 -0.1917
 3709DOPG   GL166363  11.606  14.869  18.527 -0.2378  0.3028 -0.3644
 3709DOPG   GL266364  11.564  14.629  18.674 -0.1722 -0.0344 -0.0976
 3709DOPG   C1A66365  11.701  14.668  18.106 -0.1235 -0.2625  0.3319
 3709DOPG   D2A66366  11.892  14.443  17.878  0.1056 -0.1989 -0.4476
 3709DOPG   C3A66367  12.114  14.563  17.550  0.0233 -0.3774 -0.0807
 3709DOPG   C4A66368  12.031  14.540  17.160  0.2692  0.0393 -0.1220
 3709DOPG   C1B66369  11.237  14.563  18.314  0.0569 -0.1975  0.0508
 3709DOPG   D2B66370  11.340  14.414  17.949  0.1611  0.0736  0.2700
 3709DOPG   C3B66371  11.537  14.640  17.554 -0.1398 -0.1017 -0.0441
 3709DOPG   C4B66372  11.632  14.336  17.244  0.4440 -0.2684  0.1595
 3710DOPG   GL066373  15.816  18.501  15.232  0.4090 -0.2812  0.1100
 3710DOPG   PO466374  15.757  18.862  15.169  0.1418  0.4308  0.1095
 3710DOPG   GL166375  16.153  18.801  15.387 -0.1219 -0.0218  0.0386
 3710DOPG   GL266376  16.292  19.065  15.192  0.0886 -0.0724 -0.0507
 3710DOPG   C1A66377  16.602  18.622  15.523  0.2831  0.0631  0.2332
 3710DOPG   D2A66378  17.003  18.381  15.500 -0.1815 -0.2587  0.4863
 3710DOPG   C3A66379  17.429  18.330  15.519 -0.0904 -0.1929 -0.0273
 3710DOPG   C4A66380  17.616  18.247  15.864  0.0483  0.1214 -0.2296
 3710DOPG   C1B66381  16.475  19.509  15.104  0.1266  0.2138  0.0365
 3710DOPG   D2B66382  16.640  19.564  14.664  0.2120  0.0095  0.1337
 3710DOPG   C3B66383  16.584  19.776  14.313 -0.2298 -0.0162 -0.0123
 3710DOPG   C4B66384  16.845  19.919  14.035  0.0863  0.1082  0.2011
 3711DOPG   GL066385  12.016  15.604  15.240  0.0494  0.0835 -0.1357
 3711DOPG   PO466386  12.269  15.804  15.510  0.1376 -0.2811  0.1801
 3711DOPG   GL166387  11.829  15.591  15.712 -0.0873 -0.0737  0.1830
 3711DOPG   GL266388  11.919  15.407  16.006  0.0403  0.2381 -0.0702
 3711DOPG   C1A66389  11.493  15.423  15.810 -0.1846 -0.0995 -0.1546
 3711DOPG   D2A66390  11.008  15.641  15.658 -0.2407  0.2005 -0.0117
 3711DOPG   C3A66391  10.683  15.596  15.399 -0.3910 -0.0141  0.0620
 3711DOPG   C4A66392  10.188  15.654  15.364  0.0495  0.1357 -0.0615
 3711DOPG   C1B66393  11.735  15.426  16.435  0.0104  0.0041 -0.2394
 3711DOPG   D2B66394  11.740  15.180  16.766  0.4224  0.2510  0.1752
 3711DOPG   C3B66395  11.891  15.189  17.183  0.3130  0.0292 -0.2337
 3711DOPG   C4B66396  11.819  15.552  17.241 -0.0051  0.1652  0.0463
 3712DOPG   GL066397  19.229  15.135  18.077  0.2005  0.1916  0.0539
 3712DOPG   PO466398  19.652  14.831  17.856  0.1018  0.1737 -0.0902
 3712DOPG   GL166399  19.403  14.834  17.506  0.0861  0.1909 -0.1489
 3712DOPG   GL266400  19.168  15.036  17.548 -0.2072  0.1628 -0.0985
 3712DOPG   C1A66401  19.233  14.859  17.083  0.2086  0.0075 -0.0878
 3712DOPG   D2A66402  19.211  14.895  16.666 -0.0177  0.1287 -0.2693
 3712DOPG   C3A66403  19.348  15.073  16.389 -0.1544 -0.1231 -0.1298
 3712DOPG   C4A66404  19.554  15.393  16.082 -0.0352 -0.1202 -0.2984
 3712DOPG   C1B66405  19.116  15.485  17.250 -0.0285 -0.0713  0.0641
 3712DOPG   D2B66406  19.086  15.757  16.930 -0.2194 -0.2630  0.1852
 3712DOPG   C3B66407  18.795  15.758  16.609 -0.2028  0.3123 -0.0654
 3712DOPG   C4B66408  18.372  16.120  16.440 -0.1390  0.0941  0.1397
 3713DOPG   GL066409  10.878  11.024  16.663  0.1324 -0.1439 -0.0051
 3713DOPG   PO466410  11.049  10.882  16.261  0.0822 -0.2190 -0.0078
 3713DOPG   GL166411  10.903  10.596  16.019 -0.4167  0.1433  0.0976
 3713DOPG   GL266412  11.067  10.494  15.711 -0.0956  0.2382  0.0601
 3713DOPG   C1A66413  10.852  10.165  16.146 -0.1210  0.1217  0.3116
 3713DOPG   D2A66414  10.754   9.794  16.374 -0.0194  0.0943 -0.2412
 3713DOPG   C3A66415  10.753   9.441  16.234  0.0730 -0.1042  0.2536
 3713DOPG   C4A66416  10.666   9.139  15.834 -0.2787  0.2575 -0.2926
 3713DOPG   C1B66417  10.948  10.034  15.653 -0.0675 -0.4279 -0.0610
 3713DOPG   D2B66418  10.942   9.683  15.808 -0.0894  0.6176  0.1095
 3713DOPG   C3B66419  10.421   9.663  15.861 -0.2774 -0.0921 -0.0600
 3713DOPG   C4B66420  10.100  10.028  15.906  0.0518  0.0769  0.2756
 3714DOPG   GL066421  19.149  16.579  15.334 -0.0285  0.3780  0.2146
 3714DOPG   PO466422  18.948  16.479  15.037 -0.0193  0.0015  0.4837
 3714DOPG   GL166423  19.091  16.069  15.012 -0.0772 -0.0533 -0.3422
 3714DOPG   GL266424  18.978  15.879  14.647 -0.1544 -0.0150  0.1954
 3714DOPG   C1A66425  19.396  15.762  15.104 -0.4468  0.0521 -0.0148
 3714DOPG   D2A66426  19.843  15.665  15.056  0.2753  0.0752  0.0861
 3714DOPG   C3A66427  20.100  15.513  15.359 -0.1286  0.0009  0.1873
 3714DOPG   C4A66428  20.501  15.365  15.348  0.2509  0.3638 -0.1331
 3714DOPG   C1B66429  19.325  16.215  14.410  0.3409  0.3897 -0.1708
 3714DOPG   D2B66430  19.646  16.005  14.138  0.0033  0.2927  0.0973
 3714DOPG   C3B66431  19.668  16.088  13.660  0.1011  0.1939 -0.1530
 3714DOPG   C4B66432  19.877  16.037  13.177 -0.0679  0.0171  0.1984
 3715DOPG   GL066433  13.036  12.532  15.965 -0.4061 -0.1370 -0.1502
 3715DOPG   PO466434  13.103  12.461  15.506  0.1469 -0.1334  0.0307
 3715DOPG   GL166435  12.886  12.152  15.197  0.3319  0.0309 -0.0463
 3715DOPG   GL266436  12.598  12.001  15.215 -0.2368 -0.0346 -0.0588
 3715DOPG   C1A66437  13.034  11.730  14.918 -0.1825  0.1959 -0.0370
 3715DOPG   D2A66438  12.956  11.361  14.623 -0.0632  0.0427  0.0036
 3715DOPG   C3A66439  12.697  11.128  14.615  0.0256  0.0932  0.0346
 3715DOPG   C4A66440  12.418  10.985  14.266  0.1503  0.1320 -0.0537
 3715DOPG   C1B66441  12.558  11.692  14.838  0.2071 -0.0903  0.0044
 3715DOPG   D2B66442  12.541  11.739  14.448  0.1224 -0.0396  0.1650
 3715DOPG   C3B66443  12.657  11.464  14.228 -0.0524  0.2265  0.5330
 3715DOPG   C4B66444  12.792  11.108  13.986  0.2637 -0.2143 -0.0007
 3716DOPG   GL066445   9.522  12.070  18.571  0.1321  0.2825  0.1527
 3716DOPG   PO466446   9.257  12.358  18.546 -0.1500 -0.2064 -0.0208
 3716DOPG   GL166447   9.032  12.062  18.662 -0.1730 -0.1483  0.0773
 3716DOPG   GL266448   9.104  11.823  18.596 -0.0511 -0.1779  0.2812
 3716DOPG   C1A66449   8.590  11.779  18.634  0.2704  0.0158  0.0656
 3716DOPG   D2A66450   8.228  11.553  18.784  0.0127  0.0868 -0.2168
 3716DOPG   C3A66451   7.879  11.274  18.580 -0.2176  0.1491  0.1655
 3716DOPG   C4A66452   7.472  11.055  18.469 -0.2858  0.1941  0.2217
 3716DOPG   C1B66453   8.980  11.433  18.719  0.3601  0.0399  0.0759
 3716DOPG   D2B66454   8.968  11.349  19.138 -0.0707  0.2337 -0.2389
 3716DOPG   C3B66455   8.680  11.000  19.405 -0.0786 -0.1109  0.2241
 3716DOPG   C4B66456   8.300  10.976  19.540  0.0374 -0.0657  0.0507
 3717DOPG   GL066457  16.652  20.110  17.234  0.0148  0.3418 -0.1154
 3717DOPG   PO466458  16.866  20.398  16.987  0.1598  0.1438  0.0186
 3717DOPG   GL166459  17.048  20.380  16.533  0.0070  0.0062  0.2230
 3717DOPG   GL266460  17.448  20.455  16.403  0.1919 -0.2708 -0.1299
 3717DOPG   C1A66461  16.906  20.265  16.213 -0.1312  0.1136  0.1145
 3717DOPG   D2A66462  16.830  20.520  15.844 -0.0082 -0.2041  0.2421
 3717DOPG   C3A66463  16.804  20.671  15.412 -0.1616 -0.0317 -0.0698
 3717DOPG   C4A66464  16.570  20.877  15.031 -0.0380  0.2680  0.1067
 3717DOPG   C1B66465  17.308  20.554  16.086  0.1268 -0.3988  0.2862
 3717DOPG   D2B66466  17.166  20.905  15.885 -0.0633  0.0201  0.3479
 3717DOPG   C3B66467  17.201  20.995  15.455  0.1922 -0.0293 -0.1225
 3717DOPG   C4B66468  17.150  20.938  14.982 -0.1650  0.2794 -0.1986
 3718DOPG   GL066469  11.068  10.394  17.292  0.1578 -0.2054 -0.1930
 3718DOPG   PO466470  10.720  10.159  17.066  0.1543  0.2146 -0.1114
 3718DOPG   GL166471  10.981  10.131  16.758 -0.0315 -0.2675  0.3333
 3718DOPG   GL266472  10.785  10.415  16.556  0.1061  0.0602 -0.0078
 3718DOPG   C1A66473  11.249   9.812  16.598  0.2774 -0.3473  0.2955
 3718DOPG   D2A66474  11.446   9.457  16.606  0.1136  0.1408  0.0849
 3718DOPG   C3A66475  11.300   9.080  16.705 -0.2549  0.0981  0.3511
 3718DOPG   C4A66476  11.541   8.953  17.010 -0.0042  0.1285  0.1287
 3718DOPG   C1B66477  10.389  10.221  16.540 -0.0871  0.0299  0.0109
 3718DOPG   D2B66478  10.254   9.788  16.408 -0.3141 -0.3647  0.2376
 3718DOPG   C3B66479  10.446   9.471  16.589 -0.3412  0.1738 -0.0682
 3718DOPG   C4B66480  10.913   9.459  16.777  0.0354 -0.1073 -0.0700
 3719DOPG   GL066481  16.556  12.898  16.574  0.2356 -0.1295  0.4245
 3719DOPG   PO466482  16.702  12.415  16.353  0.4584  0.0119 -0.1022
 3719DOPG   GL166483  16.656  11.993  16.281 -0.2501  0.1131 -0.0163
 3719DOPG   GL266484  16.829  11.983  16.620  0.0623 -0.0294 -0.1790
 3719DOPG   C1A66485  16.676  11.605  16.206  0.0408  0.3226 -0.0319
 3719DOPG   D2A66486  16.379  11.358  15.879  0.2778  0.0408 -0.2861
 3719DOPG   C3A66487  16.088  11.116  15.901  0.2325 -0.1797 -0.0458
 3719DOPG   C4A66488  16.176  10.940  15.377  0.0281 -0.0497 -0.0698
 3719DOPG   C1B66489  17.162  11.754  16.503  0.0280 -0.1318 -0.3268
 3719DOPG   D2B66490  17.592  11.796  16.427 -0.2322  0.0817  0.0467
 3719DOPG   C3B66491  17.775  11.377  16.260 -0.2992  0.0807  0.1437
 3719DOPG   C4B66492  18.139  11.078  16.245  0.1151  0.1313  0.0105
 3720DOPG   GL066493  10.683  20.668  17.196  0.0876 -0.1754 -0.0954
 3720DOPG   PO466494  10.999  20.556  16.849  0.2388 -0.2591 -0.0218
 3720DOPG   GL166495  10.974  20.300  16.456 -0.2034 -0.0851 -0.3661
 3720DOPG   GL266496  10.858  20.451  16.148  0.0720 -0.1920  0.1486
 3720DOPG   C1A66497  11.260  20.196  16.050  0.1007 -0.1442 -0.3678
 3720DOPG   D2A66498  11.095  20.192  15.711 -0.2854  0.0797  0.0760
 3720DOPG   C3A66499  11.068  19.991  15.292  0.2078 -0.1701 -0.3785
 3720DOPG   C4A66500  10.779  20.221  15.073 -0.0615  0.2859 -0.1188
 3720DOPG   C1B66501  10.668  20.420  15.793 -0.0231  0.0091  0.0160
 3720DOPG   D2B66502  10.516  20.800  15.475  0.1293  0.2771 -0.3134
 3720DOPG   C3B66503  10.676  20.889  15.109  0.0484 -0.0135  0.1167
 3720DOPG   C4B66504  10.897  21.059  14.784  0.1368  0.0306  0.1505
 3721DOPG   GL066505  15.533  17.919  15.090  0.1288  0.3904 -0.0202
 3721DOPG   PO466506  15.596  18.112  15.466  0.3137  0.4003  0.0382
 3721DOPG   GL166507  15.816  18.483  15.769 -0.1499 -0.2240 -0.0026
 3721DOPG   GL266508  15.772  18.869  15.641  0.2339  0.0144 -0.2554
 3721DOPG   C1A66509  16.105  18.719  15.959 -0.1164 -0.1131  0.1502
 3721DOPG   D2A66510  16.471  18.821  16.156  0.2100  0.2211 -0.1255
 3721DOPG   C3A66511  16.619  18.986  15.850 -0.0306 -0.0167 -0.1638
 3721DOPG   C4A66512  16.683  19.131  15.509  0.1111 -0.4049 -0.0107
 3721DOPG   C1B66513  16.110  19.154  15.736 -0.2788  0.1005 -0.1574
 3721DOPG   D2B66514  16.359  19.532  15.601  0.0081 -0.0999  0.3743
 3721DOPG   C3B66515  16.792  19.597  15.479 -0.1996 -0.3440 -0.0473
 3721DOPG   C4B66516  17.177  19.730  15.457 -0.2993  0.0775 -0.0336
 3722DOPG   GL066517  16.072  18.079  15.285 -0.0799  0.1036 -0.2110
 3722DOPG   PO466518  16.015  17.534  15.169 -0.1693  0.1684 -0.1741
 3722DOPG   GL166519  15.921  17.611  15.519 -0.0763  0.0567 -0.2947
 3722DOPG   GL266520  16.047  17.380  15.694 -0.0496  0.0157  0.0876
 3722DOPG   C1A66521  15.821  17.513  16.101  0.3360 -0.1378  0.1773
 3722DOPG   D2A66522  16.102  17.795  16.429 -0.2692 -0.0214 -0.1803
 3722DOPG   C3A66523  16.463  17.569  16.599  0.0122 -0.0878  0.1187
 3722DOPG   C4A66524  16.421  17.173  16.783  0.0897  0.4228  0.1918
 3722DOPG   C1B66525  16.322  17.593  15.999  0.0685 -0.0711  0.0132
 3722DOPG   D2B66526  16.621  17.863  16.147  0.1845 -0.0518  0.0404
 3722DOPG   C3B66527  17.075  18.061  15.976 -0.1247  0.2720 -0.0474
 3722DOPG   C4B66528  17.409  18.136  16.299 -0.1633  0.0707  0.3984
 3723DOPG   GL066529  16.939  17.339  19.354 -0.1489 -0.3889 -0.2734
 3723DOPG   PO466530  16.791  17.016  19.542  0.0806  0.1551 -0.0870
 3723DOPG   GL166531  16.838  16.956  19.012 -0.0527  0.0909 -0.1161
 3723DOPG   GL266532  16.554  16.964  19.050  0.1509  0.1899  0.1969
 3723DOPG   C1A66533  16.865  16.561  18.734 -0.1320 -0.0310  0.1336
 3723DOPG   D2A66534  17.127  16.708  18.262  0.0897  0.0690  0.0831
 3723DOPG   C3A66535  16.763  16.774  17.963 -0.1862  0.0231 -0.1544
 3723DOPG   C4A66536  16.303  16.560  17.695  0.2468  0.0314 -0.1846
 3723DOPG   C1B66537  16.442  16.861  18.672  0.0706  0.0525  0.0019
 3723DOPG   D2B66538  16.352  16.700  18.270 -0.0866 -0.1089  0.1402
 3723DOPG   C3B66539  15.976  16.648  18.093  0.1977  0.1296 -0.0353
 3723DOPG   C4B66540  15.496  16.488  18.050  0.1222  0.4696  0.1944
 3724DOPG   GL066541   9.998  17.850  17.706 -0.4721  0.0291 -0.3392
 3724DOPG   PO466542  10.217  17.543  17.688  0.0189 -0.3493 -0.0555
 3724DOPG   GL166543  10.421  17.458  17.280 -0.1206 -0.0809  0.0590
 3724DOPG   GL266544  10.294  17.350  16.990 -0.0045  0.0949  0.0029
 3724DOPG   C1A66545  10.812  17.369  17.135  0.0321 -0.3890 -0.1386
 3724DOPG   D2A66546  11.262  17.470  17.110 -0.0017  0.3942  0.2207
 3724DOPG   C3A66547  11.656  17.235  16.812  0.1073  0.0582  0.0749
 3724DOPG   C4A66548  11.831  16.974  16.513 -0.2423 -0.1041 -0.1262
 3724DOPG   C1B66549  10.613  17.456  16.659 -0.0034  0.1708  0.1397
 3724DOPG   D2B66550  10.733  17.342  16.241 -0.1748 -0.2412 -0.1603
 3724DOPG   C3B66551  10.519  17.088  15.976  0.2416  0.0403 -0.4000
 3724DOPG   C4B66552  10.262  16.878  15.671 -0.1544 -0.2222  0.2699
 3725DOPG   GL066553  16.861  16.688  14.830 -0.1249 -0.0297  0.1701
 3725DOPG   PO466554  17.101  16.547  15.162  0.3739  0.0137 -0.0919
 3725DOPG   GL166555  17.019  16.488  15.632  0.2148 -0.2763 -0.1814
 3725DOPG   GL266556  16.892  16.818  15.840 -0.0316  0.2920  0.0730
 3725DOPG   C1A66557  17.337  16.574  15.953  0.0359  0.0605  0.0580
 3725DOPG   D2A66558  17.464  16.587  16.389  0.1575  0.0273  0.0609
 3725DOPG   C3A66559  17.634  16.890  16.742 -0.0593 -0.3485  0.2735
 3725DOPG   C4A66560  18.054  17.111  16.984 -0.0635 -0.0409  0.2015
 3725DOPG   C1B66561  16.781  16.483  16.142  0.1608 -0.2064  0.1652
 3725DOPG   D2B66562  16.730  16.057  16.221  0.1388  0.1071 -0.0604
 3725DOPG   C3B66563  16.954  15.780  16.467 -0.0754  0.2211  0.1955
 3725DOPG   C4B66564  17.291  15.697  16.327  0.2201  0.3229  0.0089
 3726DOPG   GL066565  16.667  15.924  13.929  0.2286  0.1824  0.0207
 3726DOPG   PO466566  17.008  15.839  14.236  0.0500 -0.0094  0.1387
 3726DOPG   GL166567  17.189  15.663  13.929  0.0299 -0.2621  0.1031
 3726DOPG   GL266568  17.471  15.848  14.021 -0.0700  0.1009 -0.4958
 3726DOPG   C1A66569  17.061  15.309  13.627 -0.1933  0.2233 -0.1074
 3726DOPG   D2A66570  16.777  15.072  13.388  0.2321  0.1135 -0.1047
 3726DOPG   C3A66571  16.486  14.666  13.415  0.0814 -0.1620  0.1585
 3726DOPG   C4A66572  16.433  14.261  13.463 -0.0275 -0.2313  0.4454
 3726DOPG   C1B66573  17.542  16.121  13.675  0.1113  0.2001 -0.3000
 3726DOPG   D2B66574  17.385  16.593  13.424 -0.0565 -0.3830 -0.1755
 3726DOPG   C3B66575  17.019  16.525  13.160  0.2563  0.0380  0.1729
 3726DOPG   C4B66576  16.923  16.749  12.741 -0.3221 -0.0222  0.2694
 3727DOPG   GL066577  17.290  14.799  14.954 -0.1810  0.1482  0.1748
 3727DOPG   PO466578  17.468  14.950  14.594 -0.2524 -0.0796  0.1258
 3727DOPG   GL166579  17.667  14.725  14.241  0.1495  0.1380 -0.3314
 3727DOPG   GL266580  17.863  14.839  13.945 -0.5629 -0.3283 -0.0450
 3727DOPG   C1A66581  17.916  14.348  14.240  0.0237 -0.1768  0.1584
 3727DOPG   D2A66582  18.157  14.037  14.296 -0.2055 -0.0300  0.0945
 3727DOPG   C3A66583  18.537  13.990  14.335 -0.1700 -0.0848 -0.1450
 3727DOPG   C4A66584  18.984  13.913  14.506  0.1100  0.2785  0.1121
 3727DOPG   C1B66585  17.572  15.203  13.837 -0.0225  0.0637  0.0018
 3727DOPG   D2B66586  17.543  15.661  13.596 -0.0168  0.2701  0.0006
 3727DOPG   C3B66587  17.908  15.809  13.555 -0.0931  0.0823  0.3736
 3727DOPG   C4B66588  18.257  15.966  13.341  0.0106  0.0268 -0.0190
 3728DOPG   GL066589  11.249  10.860  17.460  0.0098 -0.0365 -0.2257
 3728DOPG   PO466590  11.603  10.544  17.319  0.1270  0.3118 -0.2361
 3728DOPG   GL166591  11.484  10.210  17.042 -0.0529  0.1474  0.0103
 3728DOPG   GL266592  11.580  10.187  16.725  0.1884 -0.0349 -0.1750
 3728DOPG   C1A66593  11.448   9.754  17.152  0.0371 -0.0590 -0.1554
 3728DOPG   D2A66594  11.273   9.322  17.160  0.1343  0.0777  0.1724
 3728DOPG   C3A66595  11.409   9.040  17.442 -0.3936 -0.0728 -0.1380
 3728DOPG   C4A66596  11.193   8.725  17.584  0.2992  0.1253  0.0717
 3728DOPG   C1B66597  11.843  10.068  16.436 -0.1214 -0.0453  0.0870
 3728DOPG   D2B66598  12.189   9.954  16.067 -0.2466 -0.2689 -0.4367
 3728DOPG   C3B66599  12.329   9.509  15.988  0.2274  0.3470 -0.0741
 3728DOPG   C4B66600  12.373   9.257  15.705 -0.2477  0.2924  0.1710
 3729DOPG   GL066601  19.869  20.663  16.780  0.0587  0.0149  0.3847
 3729DOPG   PO466602  19.872  20.758  16.348 -0.0542 -0.3884  0.1102
 3729DOPG   GL166603  20.120  21.076  16.168  0.5087  0.0653  0.0949
 3729DOPG   GL266604  20.087  21.340  16.349 -0.2620  0.2420 -0.1465
 3729DOPG   C1A66605  20.155  21.197  15.761  0.0184  0.2321  0.3368
 3729DOPG   D2A66606  20.479  21.489  15.640 -0.0866  0.0176 -0.4178
 3729DOPG   C3A66607  20.931  21.362  15.395  0.0737 -0.0159 -0.2481
 3729DOPG   C4A66608  21.384  21.275  15.440 -0.3373 -0.1138 -0.3291
 3729DOPG   C1B66609  20.205  21.566  16.084 -0.1367 -0.1992 -0.0353
 3729DOPG   D2B66610  20.131  21.910  15.913  0.0482 -0.0348 -0.2401
 3729DOPG   C3B66611  19.983  22.208  16.142  0.1578 -0.2113 -0.0566
 3729DOPG   C4B66612  19.864  22.527  16.481  0.3033 -0.1686  0.1214
 3730DOPG   GL066613  19.250  15.628  18.637  0.1329  0.1350 -0.3411
 3730DOPG   PO466614  19.007  15.345  18.511 -0.0151 -0.6543  0.1921
 3730DOPG   GL166615  18.733  15.369  18.248 -0.1388  0.0003  0.0916
 3730DOPG   GL266616  18.790  15.322  17.890  0.2168 -0.0927  0.0698
 3730DOPG   C1A66617  18.534  15.808  18.122 -0.0167  0.1133 -0.1501
 3730DOPG   D2A66618  18.392  16.223  17.959 -0.3470  0.1900 -0.3490
 3730DOPG   C3A66619  18.073  16.257  17.699  0.2166  0.0878  0.1341
 3730DOPG   C4A66620  17.775  16.430  17.476  0.3084 -0.0524 -0.1937
 3730DOPG   C1B66621  18.525  15.308  17.501  0.0673  0.2216 -0.0235
 3730DOPG   D2B66622  18.067  15.372  17.333 -0.3602 -0.2740  0.0628
 3730DOPG   C3B66623  17.992  15.545  16.918  0.3782  0.1127  0.3108
 3730DOPG   C4B66624  18.256  15.671  16.579  0.3097  0.1083 -0.0746
 3731DOPG   GL066625  13.751  17.532  14.589 -0.2891 -0.2326 -0.0272
 3731DOPG   PO466626  13.561  17.614  14.157  0.1927 -0.0673  0.1229
 3731DOPG   GL166627  13.605  17.967  13.863 -0.1412 -0.0877 -0.0109
 3731DOPG   GL266628  13.860  18.012  13.791  0.2674  0.1122 -0.2915
 3731DOPG   C1A66629  13.331  18.126  13.425 -0.1167 -0.1257  0.1069
 3731DOPG   D2A66630  13.489  18.550  13.161  0.0909 -0.1309  0.2674
 3731DOPG   C3A66631  13.195  18.830  13.048  0.0432  0.3316  0.3465
 3731DOPG   C4A66632  12.782  18.851  12.966 -0.2597 -0.0109  0.4437
 3731DOPG   C1B66633  13.845  17.920  13.346  0.0929  0.1287  0.0050
 3731DOPG   D2B66634  13.853  17.783  12.981  0.1058  0.1576 -0.1340
 3731DOPG   C3B66635  14.035  17.422  12.847 -0.2685 -0.0690  0.1007
 3731DOPG   C4B66636  14.242  17.154  12.575 -0.1559  0.2715  0.0194
 3732DOPG   GL066637  20.008  17.682  14.661  0.1093 -0.0652 -0.1378
 3732DOPG   PO466638  20.292  17.423  14.708 -0.1677  0.0482  0.5395
 3732DOPG   GL166639  20.653  17.379  14.550 -0.0498  0.0552  0.0859
 3732DOPG   GL266640  20.810  17.103  14.721 -0.0817  0.0853  0.0664
 3732DOPG   C1A66641  20.475  17.321  14.006 -0.1125  0.1258  0.1541
 3732DOPG   D2A66642  20.314  17.303  13.516 -0.1587  0.2025  0.0723
 3732DOPG   C3A66643  20.564  17.014  13.202 -0.0706 -0.4440 -0.2259
 3732DOPG   C4A66644  20.670  16.661  13.362  0.1356  0.0039 -0.2983
 3732DOPG   C1B66645  21.107  16.799  14.573 -0.2665  0.0542 -0.1620
 3732DOPG   D2B66646  21.138  16.489  14.168  0.1015  0.1064  0.0856
 3732DOPG   C3B66647  21.457  16.411  13.938  0.1033 -0.4481 -0.0955
 3732DOPG   C4B66648  21.664  16.148  13.551 -0.2312 -0.4303  0.0272
 3733DOPG   GL066649   5.961  21.304  16.325 -0.1591 -0.2808  0.2021
 3733DOPG   PO466650   6.126  20.992  16.122 -0.2042  0.2474 -0.1430
 3733DOPG   GL166651   6.332  21.136  15.874  0.0471 -0.3808 -0.0797
 3733DOPG   GL266652   6.782  20.991  15.964  0.0679 -0.1150 -0.0301
 3733DOPG   C1A66653   6.498  20.970  15.506 -0.2290 -0.0681  0.0667
 3733DOPG   D2A66654   6.854  20.717  15.235  0.0173  0.1360  0.2897
 3733DOPG   C3A66655   6.810  20.215  15.332  0.0384 -0.2220  0.3150
 3733DOPG   C4A66656   6.559  20.023  15.591  0.0929 -0.1937 -0.1369
 3733DOPG   C1B66657   7.077  20.987  15.596  0.0568  0.1750  0.0895
 3733DOPG   D2B66658   7.484  20.992  15.473  0.0979 -0.1693 -0.3738
 3733DOPG   C3B66659   7.516  21.432  15.522 -0.0409  0.1346  0.0139
 3733DOPG   C4B66660   7.335  21.756  15.727 -0.2194  0.1291 -0.0510
 3734DOPG   GL066661  15.311  11.068  17.090  0.1561 -0.0516  0.0497
 3734DOPG   PO466662  15.018  11.142  17.437 -0.2046  0.0525 -0.0845
 3734DOPG   GL166663  15.003  10.767  17.410  0.2682  0.0826  0.5021
 3734DOPG   GL266664  14.681  10.548  17.505  0.0358  0.0167  0.0988
 3734DOPG   C1A66665  15.045  10.346  17.213  0.0145  0.0936 -0.3221
 3734DOPG   D2A66666  15.564  10.371  17.058  0.0689  0.1156 -0.0195
 3734DOPG   C3A66667  15.905  10.077  17.211 -0.0665 -0.0271  0.2856
 3734DOPG   C4A66668  16.114   9.800  17.165  0.0707  0.2962 -0.1914
 3734DOPG   C1B66669  14.781  10.245  17.824  0.1415 -0.2574  0.0752
 3734DOPG   D2B66670  14.840   9.866  18.113 -0.0528  0.2775 -0.2454
 3734DOPG   C3B66671  14.623   9.573  18.132 -0.2846  0.0069  0.2555
 3734DOPG   C4B66672  14.581   9.177  18.036 -0.3047  0.0855 -0.2307
 3735DOPG   GL066673  13.862  10.589  18.043 -0.0018 -0.0870 -0.2615
 3735DOPG   PO466674  13.608  10.187  18.051 -0.0947  0.0188  0.1310
 3735DOPG   GL166675  13.314  10.027  17.748 -0.1646  0.0911 -0.0511
 3735DOPG   GL266676  13.604   9.820  17.633 -0.0836 -0.0945  0.2936
 3735DOPG   C1A66677  13.152   9.705  17.513  0.0959  0.2821 -0.4386
 3735DOPG   D2A66678  13.053   9.291  17.354  0.0080 -0.0642  0.0994
 3735DOPG   C3A66679  13.350   9.028  17.432 -0.2948  0.1293 -0.1323
 3735DOPG   C4A66680  13.440   8.681  17.227  0.1147  0.1962 -0.3407
 3735DOPG   C1B66681  13.848   9.538  17.807 -0.1926  0.1477  0.2075
 3735DOPG   D2B66682  14.212   9.368  17.686  0.1037  0.1425  0.1150
 3735DOPG   C3B66683  14.318   9.234  17.411  0.1121 -0.3462  0.2322
 3735DOPG   C4B66684  14.285   9.143  16.981 -0.0701  0.2641  0.2743
 3736DOPG   GL066685  24.416  12.478  17.794 -0.2637 -0.2637  0.3531
 3736DOPG   PO466686  24.342  12.796  17.593 -0.1759 -0.2340  0.2362
 3736DOPG   GL166687  24.032  13.171  17.633 -0.0861 -0.0050  0.0145
 3736DOPG   GL266688  24.241  13.428  17.703 -0.1944  0.2458  0.2851
 3736DOPG   C1A66689  23.582  13.359  17.638 -0.2646 -0.0252 -0.1022
 3736DOPG   D2A66690  23.333  13.779  17.657  0.2239 -0.0774 -0.3364
 3736DOPG   C3A66691  23.288  14.141  17.701 -0.0063 -0.0674  0.0022
 3736DOPG   C4A66692  23.502  14.580  17.884  0.0062  0.0955  0.1856
 3736DOPG   C1B66693  23.967  13.733  17.654  0.0074 -0.0704  0.0525
 3736DOPG   D2B66694  23.907  14.047  17.350  0.1187  0.0151 -0.0140
 3736DOPG   C3B66695  23.856  14.500  17.548  0.1065  0.2615 -0.0738
 3736DOPG   C4B66696  23.857  14.931  17.540  0.0499  0.0163  0.0321
 3737DOPG   GL066697  27.592  19.080  20.057  0.2104 -0.2196 -0.0847
 3737DOPG   PO466698  27.805  19.377  19.733 -0.1661  0.0255  0.0574
 3737DOPG   GL166699  27.580  19.174  19.417  0.1983  0.1211  0.2279
 3737DOPG   GL266700  27.505  19.437  19.128 -0.0385  0.1590  0.0916
 3737DOPG   C1A66701  27.108  19.121  19.205 -0.2132  0.0254 -0.0637
 3737DOPG   D2A66702  26.689  19.079  19.240 -0.0161 -0.1585  0.0375
 3737DOPG   C3A66703  26.415  19.437  18.989  0.1066  0.1184 -0.4047
 3737DOPG   C4A66704  26.467  19.799  18.822 -0.3593  0.0851  0.1239
 3737DOPG   C1B66705  27.321  19.348  18.778  0.1241  0.0651  0.1664
 3737DOPG   D2B66706  26.862  19.367  18.812  0.0000 -0.3204  0.1390
 3737DOPG   C3B66707  26.604  19.033  18.663 -0.0292 -0.1846  0.1651
 3737DOPG   C4B66708  26.242  18.899  18.405 -0.0658  0.1665  0.2078
 3738DOPG   GL066709  25.778  14.364  15.589 -0.2767 -0.1167 -0.0100
 3738DOPG   PO466710  25.456  14.586  15.717  0.2242 -0.2371 -0.2812
 3738DOPG   GL166711  25.033  14.765  15.956 -0.1795  0.2493 -0.1486
 3738DOPG   GL266712  24.723  14.612  15.855 -0.1800  0.2837 -0.0911
 3738DOPG   C1A66713  24.853  14.994  16.240 -0.0127  0.0693 -0.2111
 3738DOPG   D2A66714  24.522  15.115  16.425 -0.0389  0.3491  0.0284
 3738DOPG   C3A66715  24.118  14.888  16.264  0.2066 -0.1023 -0.2656
 3738DOPG   C4A66716  23.630  14.747  16.247  0.1081 -0.2235  0.1099
 3738DOPG   C1B66717  24.520  14.613  16.256  0.0783 -0.2022  0.0175
 3738DOPG   D2B66718  24.342  14.786  16.723  0.2441  0.0151 -0.0242
 3738DOPG   C3B66719  24.680  15.005  17.072 -0.4339 -0.1337  0.0429
 3738DOPG   C4B66720  24.753  15.041  17.546 -0.3625  0.0655  0.2821
 3739DOPG   GL066721  27.412  17.019  16.365 -0.0059  0.0173  0.2154
 3739DOPG   PO466722  27.413  16.577  16.320  0.0151 -0.0839  0.0385
 3739DOPG   GL166723  27.014  16.682  16.144 -0.0723  0.1491 -0.3416
 3739DOPG   GL266724  26.753  16.554  16.327  0.0942  0.0459  0.2196
 3739DOPG   C1A66725  26.620  16.736  15.891  0.0492  0.3219 -0.0772
 3739DOPG   D2A66726  26.345  16.596  15.648  0.1136  0.0401  0.1355
 3739DOPG   C3A66727  25.956  16.657  15.697  0.2282  0.0580 -0.1029
 3739DOPG   C4A66728  25.581  16.632  15.942  0.1408  0.0127  0.1174
 3739DOPG   C1B66729  26.459  16.597  16.646 -0.0091 -0.0400  0.2503
 3739DOPG   D2B66730  26.162  16.363  16.828  0.4388 -0.0906  0.3667
 3739DOPG   C3B66731  25.786  16.461  16.739  0.1366  0.0160  0.1397
 3739DOPG   C4B66732  25.446  16.524  16.458  0.2785 -0.1865  0.0209
 3740DOPG   GL066733  26.248  15.788  16.658 -0.1147 -0.0433 -0.4494
 3740DOPG   PO466734  26.449  15.469  16.831 -0.3456 -0.1263  0.0763
 3740DOPG   GL166735  26.125  15.432  17.127  0.0091 -0.0194 -0.0429
 3740DOPG   GL266736  26.020  15.754  17.116  0.2091 -0.2277 -0.2220
 3740DOPG   C1A66737  25.693  15.284  17.169 -0.1987 -0.2472 -0.3420
 3740DOPG   D2A66738  25.304  15.090  17.055 -0.1742  0.0102 -0.1768
 3740DOPG   C3A66739  25.149  14.641  17.171  0.0339  0.0686  0.1573
 3740DOPG   C4A66740  25.326  14.289  17.347 -0.0936 -0.2777  0.0257
 3740DOPG   C1B66741  25.958  16.051  17.192 -0.1309 -0.1050  0.0896
 3740DOPG   D2B66742  25.793  16.527  17.210 -0.0207 -0.0252 -0.1071
 3740DOPG   C3B66743  25.826  16.921  17.401 -0.1764 -0.2749  0.0713
 3740DOPG   C4B66744  25.791  17.345  17.620 -0.2345  0.0642 -0.1794
 3741DOPG   GL066745  27.951  17.666  18.731 -0.1818 -0.0579 -0.1039
 3741DOPG   PO466746  28.320  17.956  18.921 -0.1239 -0.0258  0.1217
 3741DOPG   GL166747  27.979  17.990  19.184  0.0687 -0.0801 -0.2571
 3741DOPG   GL266748  27.641  17.872  19.348  0.0200  0.2832  0.3371
 3741DOPG   C1A66749  27.638  18.248  18.921  0.2640  0.0840  0.1156
 3741DOPG   D2A66750  27.384  18.684  19.025  0.1212 -0.1707 -0.4252
 3741DOPG   C3A66751  27.097  18.791  18.855 -0.0697 -0.2483 -0.0247
 3741DOPG   C4A66752  26.745  18.531  18.717 -0.2737  0.0467  0.2703
 3741DOPG   C1B66753  27.291  18.231  19.324  0.2370  0.2127  0.3354
 3741DOPG   D2B66754  27.075  18.225  18.930  0.2315 -0.2262 -0.1959
 3741DOPG   C3B66755  27.243  18.365  18.587  0.0220 -0.0451 -0.2205
 3741DOPG   C4B66756  27.225  18.098  18.225 -0.0216 -0.0544  0.0923
 3742DOPG   GL066757  27.568  17.278  18.799 -0.2982  0.0429  0.1761
 3742DOPG   PO466758  27.723  16.916  18.944  0.3306  0.1025 -0.2363
 3742DOPG   GL166759  27.254  16.939  19.049  0.1205 -0.1068  0.2373
 3742DOPG   GL266760  27.113  16.678  18.841  0.1448 -0.3203  0.2409
 3742DOPG   C1A66761  27.003  17.238  18.744 -0.1031  0.2298  0.1234
 3742DOPG   D2A66762  26.646  17.483  18.488 -0.0840  0.1305  0.2906
 3742DOPG   C3A66763  26.363  17.701  18.458 -0.1117 -0.0655 -0.0035
 3742DOPG   C4A66764  26.194  17.786  18.082  0.1294  0.0973 -0.0637
 3742DOPG   C1B66765  26.792  16.825  18.688 -0.1619 -0.0093 -0.2638
 3742DOPG   D2B66766  26.550  17.225  18.865  0.0837 -0.0769 -0.0993
 3742DOPG   C3B66767  26.237  17.298  19.197  0.1625  0.2428  0.1211
 3742DOPG   C4B66768  26.420  17.380  19.531 -0.0588  0.2825 -0.0239
 3743DOPG   GL066769  24.285  14.151  14.510 -0.2502 -0.2389  0.1000
 3743DOPG   PO466770  24.291  14.147  14.954  0.4022  0.4541 -0.0538
 3743DOPG   GL166771  24.116  14.456  15.263 -0.1614 -0.0431 -0.1093
 3743DOPG   GL266772  23.659  14.491  15.195 -0.3153 -0.1496  0.1123
 3743DOPG   C1A66773  24.249  14.707  15.675  0.1068  0.2174  0.0624
 3743DOPG   D2A66774  24.398  15.054  15.957 -0.2704  0.2094  0.1648
 3743DOPG   C3A66775  24.367  15.400  15.665  0.0783  0.0368  0.1588
 3743DOPG   C4A66776  24.161  15.807  15.587  0.1168  0.2441  0.2648
 3743DOPG   C1B66777  23.627  14.720  15.600 -0.4227  0.0083 -0.2523
 3743DOPG   D2B66778  23.418  15.108  15.732  0.0903 -0.2849  0.2697
 3743DOPG   C3B66779  22.988  15.249  15.719  0.0980  0.1269  0.0144
 3743DOPG   C4B66780  22.633  15.291  15.943  0.3737 -0.3443  0.2392
 3744DOPG   GL066781  26.605  21.562  16.871 -0.0710  0.1052 -0.3393
 3744DOPG   PO466782  26.565  21.305  16.495  0.3232  0.2615  0.0772
 3744DOPG   GL166783  26.249  21.120  16.347 -0.0321  0.1053  0.3444
 3744DOPG   GL266784  25.881  20.982  16.156  0.0988  0.0268 -0.1414
 3744DOPG   C1A66785  25.907  21.014  16.656  0.0678 -0.3338 -0.2156
 3744DOPG   D2A66786  25.991  20.887  17.146 -0.1157 -0.0255  0.0057
 3744DOPG   C3A66787  25.720  20.911  17.479 -0.2554 -0.4080 -0.0783
 3744DOPG   C4A66788  25.304  20.872  17.591  0.3191  0.0119  0.0988
 3744DOPG   C1B66789  25.486  21.024  16.391  0.1523  0.1079 -0.0106
 3744DOPG   D2B66790  25.081  21.023  16.713 -0.1465  0.1894 -0.0517
 3744DOPG   C3B66791  25.196  20.746  17.065 -0.0030 -0.1887 -0.0374
 3744DOPG   C4B66792  25.151  20.412  17.408  0.3594  0.0276 -0.2607
 3745DOPG   GL066793  27.008  15.108  17.352  0.0082 -0.0652 -0.0010
 3745DOPG   PO466794  26.798  14.891  17.031  0.0233  0.0814  0.2068
 3745DOPG   GL166795  26.490  15.111  17.240 -0.0816  0.1506 -0.2857
 3745DOPG   GL266796  26.611  15.392  17.300  0.1759 -0.3544 -0.1206
 3745DOPG   C1A66797  26.156  15.182  17.494 -0.1562 -0.0564  0.1728
 3745DOPG   D2A66798  25.763  15.257  17.694  0.1122 -0.0168 -0.0062
 3745DOPG   C3A66799  25.625  15.641  17.528 -0.2126 -0.1459 -0.0211
 3745DOPG   C4A66800  25.611  16.134  17.490 -0.1532  0.1875 -0.1567
 3745DOPG   C1B66801  26.584  15.612  17.671  0.0503  0.2266  0.0125
 3745DOPG   D2B66802  26.692  15.915  17.997  0.0006  0.0161 -0.2403
 3745DOPG   C3B66803  26.412  16.010  18.357  0.1841 -0.2787  0.0402
 3745DOPG   C4B66804  26.059  15.831  18.338 -0.2086 -0.0082  0.0827
 3746DOPG   GL066805  24.310  13.141  17.112 -0.0093  0.1961  0.0566
 3746DOPG   PO466806  24.116  13.192  16.751  0.0964  0.0920  0.3932
 3746DOPG   GL166807  24.044  13.578  17.066  0.0682  0.1269 -0.1399
 3746DOPG   GL266808  24.376  13.603  17.204 -0.1844  0.2256  0.0302
 3746DOPG   C1A66809  23.571  13.688  17.215 -0.2164 -0.2131 -0.0743
 3746DOPG   D2A66810  23.416  14.163  17.237 -0.0030  0.2663  0.0295
 3746DOPG   C3A66811  23.289  14.340  16.878  0.0219  0.0524 -0.0762
 3746DOPG   C4A66812  23.523  14.329  16.472  0.6860 -0.0323 -0.2841
 3746DOPG   C1B66813  24.344  14.017  17.083 -0.0381  0.0843  0.0084
 3746DOPG   D2B66814  24.252  14.349  16.970  0.0776 -0.0194 -0.0470
 3746DOPG   C3B66815  24.017  14.328  16.583  0.0426  0.0341  0.2315
 3746DOPG   C4B66816  24.042  14.335  16.161  0.2272 -0.1935  0.3504
 3747DOPG   GL066817  26.667  17.433  14.900 -0.1843 -0.1009 -0.1084
 3747DOPG   PO466818  26.448  17.512  14.482 -0.1021 -0.0445 -0.0276
 3747DOPG   GL166819  26.180  17.384  14.784  0.1735 -0.0069 -0.0414
 3747DOPG   GL266820  25.825  17.474  14.726  0.2794  0.0285  0.0392
 3747DOPG   C1A66821  26.122  17.343  15.176  0.1455 -0.2662  0.2228
 3747DOPG   D2A66822  26.128  17.135  15.580 -0.1527  0.0705 -0.0567
 3747DOPG   C3A66823  26.243  17.080  15.924 -0.0272 -0.3064 -0.2377
 3747DOPG   C4A66824  26.457  17.043  16.472 -0.2066 -0.2709 -0.1620
 3747DOPG   C1B66825  25.518  17.396  15.003 -0.0673  0.2152  0.1370
 3747DOPG   D2B66826  25.116  17.405  15.283 -0.1857 -0.1557 -0.0666
 3747DOPG   C3B66827  25.068  17.557  15.673  0.4005 -0.1370  0.2850
 3747DOPG   C4B66828  24.812  17.633  16.025 -0.0305  0.0245 -0.2270
 3748DOPG   GL066829  28.239  18.027  16.363  0.0096  0.1684 -0.2220
 3748DOPG   PO466830  27.992  17.971  16.747  0.0445  0.0637  0.0647
 3748DOPG   GL166831  27.561  18.002  16.829 -0.0600  0.1729 -0.3664
 3748DOPG   GL266832  27.514  18.043  16.474 -0.3273  0.1310 -0.2629
 3748DOPG   C1A66833  27.185  18.062  16.900  0.1798  0.0015 -0.3166
 3748DOPG   D2A66834  26.987  18.111  17.336 -0.0530 -0.2240 -0.3136
 3748DOPG   C3A66835  26.850  17.737  17.594 -0.2126 -0.5037  0.1821
 3748DOPG   C4A66836  26.422  17.602  17.655  0.1241 -0.0109  0.0046
 3748DOPG   C1B66837  27.084  18.117  16.442  0.1629  0.0882  0.4286
 3748DOPG   D2B66838  26.661  17.848  16.672 -0.0748 -0.3993  0.0383
 3748DOPG   C3B66839  26.341  17.932  16.509 -0.0141  0.2728  0.1568
 3748DOPG   C4B66840  25.991  17.885  16.220 -0.0359  0.1042  0.3577
 3749DOPG   GL066841  27.269  17.019  17.893 -0.1825  0.1924 -0.2515
 3749DOPG   PO466842  27.625  16.703  18.095  0.0892  0.1184  0.0421
 3749DOPG   GL166843  27.625  17.040  18.253  0.0831 -0.1967  0.1279
 3749DOPG   GL266844  27.433  16.938  18.487  0.4557  0.0735 -0.2800
 3749DOPG   C1A66845  27.335  17.433  18.364 -0.1954  0.3061  0.1968
 3749DOPG   D2A66846  27.063  17.715  18.555 -0.0545 -0.0313  0.0190
 3749DOPG   C3A66847  26.726  17.907  18.755 -0.1128  0.0555 -0.2290
 3749DOPG   C4A66848  26.382  18.258  18.895  0.0788 -0.2756  0.1171
 3749DOPG   C1B66849  27.099  16.806  18.344 -0.1793 -0.1554  0.3057
 3749DOPG   D2B66850  26.705  16.808  18.117 -0.1884  0.0908  0.4519
 3749DOPG   C3B66851  26.667  16.436  17.914 -0.0355  0.0896 -0.0724
 3749DOPG   C4B66852  26.365  16.593  17.615  0.1997  0.1250  0.5068
 3750DOPG   GL066853  25.683  14.552  15.102  0.0868  0.3107 -0.0611
 3750DOPG   PO466854  25.311  14.767  14.998  0.0223  0.0187  0.1036
 3750DOPG   GL166855  25.062  14.866  15.364  0.0181  0.0616  0.2056
 3750DOPG   GL266856  24.811  15.073  15.160  0.2665 -0.2197  0.0137
 3750DOPG   C1A66857  24.770  15.043  15.611 -0.1530  0.0423 -0.1495
 3750DOPG   D2A66858  24.780  15.416  15.957  0.0589  0.0719  0.2235
 3750DOPG   C3A66859  24.452  15.690  16.128 -0.0389  0.2899  0.1691
 3750DOPG   C4A66860  24.087  15.695  16.498 -0.0123  0.2007 -0.2122
 3750DOPG   C1B66861  24.401  14.933  15.156  0.0355 -0.1343 -0.0539
 3750DOPG   D2B66862  23.983  14.935  15.359 -0.0196  0.0043  0.0340
 3750DOPG   C3B66863  23.898  15.009  15.847 -0.2338 -0.0997  0.1057
 3750DOPG   C4B66864  24.025  15.351  16.207 -0.0770 -0.0561 -0.1881
 3751DOPG   GL066865  26.557  15.462  15.815  0.1898 -0.2412 -0.2778
 3751DOPG   PO466866  26.781  15.770  15.927  0.0251 -0.0338  0.4079
 3751DOPG   GL166867  26.447  15.893  16.217  0.4101 -0.1034  0.1802
 3751DOPG   GL266868  26.325  16.117  16.171 -0.3257  0.1040 -0.0727
 3751DOPG   C1A66869  26.015  15.662  16.253 -0.0662 -0.3264 -0.0503
 3751DOPG   D2A66870  25.667  15.394  16.258  0.2540  0.1909 -0.0366
 3751DOPG   C3A66871  25.280  15.306  15.955 -0.0995 -0.1552 -0.1559
 3751DOPG   C4A66872  25.221  15.280  15.531  0.0308 -0.3169  0.1021
 3751DOPG   C1B66873  26.245  16.502  16.168  0.1986  0.1313  0.2378
 3751DOPG   D2B66874  26.011  16.806  16.428  0.1241 -0.1423  0.6725
 3751DOPG   C3B66875  26.068  16.948  16.834  0.0152  0.0632  0.0440
 3751DOPG   C4B66876  26.243  16.754  17.137  0.0369 -0.0236 -0.0344
 3752DOPG   GL066877  25.154  16.608  14.628  0.1179  0.0495 -0.0440
 3752DOPG   PO466878  24.825  16.631  14.390 -0.2942  0.1225  0.1034
 3752DOPG   GL166879  24.608  16.912  14.326 -0.0537  0.0289  0.1245
 3752DOPG   GL266880  24.705  17.116  13.990  0.1601 -0.1165  0.0742
 3752DOPG   C1A66881  24.264  17.207  14.456 -0.0236 -0.2406 -0.0892
 3752DOPG   D2A66882  23.885  17.147  14.602  0.0605 -0.2443  0.1497
 3752DOPG   C3A66883  23.975  17.095  14.984 -0.2228 -0.0795  0.0175
 3752DOPG   C4A66884  23.642  17.231  15.332  0.1606 -0.0333  0.0448
 3752DOPG   C1B66885  24.605  17.497  14.198  0.2132  0.3373 -0.1081
 3752DOPG   D2B66886  24.602  17.845  14.532  0.0240 -0.0773  0.0114
 3752DOPG   C3B66887  24.664  17.900  14.953  0.5865 -0.2478 -0.0719
 3752DOPG   C4B66888  24.992  17.988  15.345  0.1853 -0.1636 -0.1844
 3753DOPG   GL066889  26.906  16.167  15.116  0.0876 -0.0723  0.1250
 3753DOPG   PO466890  26.451  16.189  15.203  0.0314 -0.1270  0.1719
 3753DOPG   GL166891  26.102  16.198  15.482  0.1949 -0.4404 -0.2110
 3753DOPG   GL266892  25.842  16.057  15.340  0.1497  0.1957  0.0745
 3753DOPG   C1A66893  25.928  16.247  15.916  0.1903 -0.2312  0.1042
 3753DOPG   D2A66894  25.911  16.111  16.409  0.0865  0.0835 -0.1148
 3753DOPG   C3A66895  25.773  15.775  16.711  0.1693 -0.2093 -0.3894
 3753DOPG   C4A66896  25.448  15.484  16.713  0.0874  0.1210 -0.1597
 3753DOPG   C1B66897  25.576  16.350  15.502 -0.1695  0.2303  0.1322
 3753DOPG   D2B66898  25.236  16.564  15.565  0.2153  0.2851  0.0762
 3753DOPG   C3B66899  24.932  16.263  15.836  0.2198  0.3063  0.2772
 3753DOPG   C4B66900  24.529  16.173  15.988 -0.1961 -0.0215 -0.1256
 3754DOPG   GL066901  24.339  19.925  19.008  0.1626  0.0212  0.2073
 3754DOPG   PO466902  24.592  20.206  18.759 -0.3100 -0.1645 -0.0660
 3754DOPG   GL166903  24.813  20.002  19.096 -0.1253 -0.2272 -0.0463
 3754DOPG   GL266904  25.114  19.841  19.145 -0.1102  0.0999  0.2465
 3754DOPG   C1A66905  24.869  20.044  19.631  0.3082 -0.0046 -0.0924
 3754DOPG   D2A66906  24.907  19.858  20.114 -0.0122 -0.1742 -0.0290
 3754DOPG   C3A66907  25.174  20.073  20.465 -0.1780 -0.0741  0.1452
 3754DOPG   C4A66908  25.277  19.763  20.802 -0.0366 -0.1350  0.1000
 3754DOPG   C1B66909  25.597  19.655  19.016  0.0647  0.0665 -0.0729
 3754DOPG   D2B66910  25.664  19.374  18.695  0.3678 -0.2125 -0.1051
 3754DOPG   C3B66911  26.015  19.169  18.885  0.0073  0.1512  0.1238
 3754DOPG   C4B66912  26.325  18.901  19.042  0.2028 -0.2514  0.2130
 3755DOPG   GL066913  24.828  19.359  16.993 -0.1618 -0.0488 -0.0098
 3755DOPG   PO466914  24.490  19.206  16.771  0.1089  0.0648  0.2956
 3755DOPG   GL166915  24.485  19.241  16.274  0.0076  0.1937 -0.1108
 3755DOPG   GL266916  24.762  19.209  16.153  0.0225  0.0490 -0.0615
 3755DOPG   C1A66917  24.546  19.585  15.946  0.3989  0.2355  0.1182
 3755DOPG   D2A66918  24.900  19.720  15.920  0.0747 -0.2540 -0.2655
 3755DOPG   C3A66919  25.168  19.642  15.589  0.2822  0.0945  0.1096
 3755DOPG   C4A66920  25.333  19.519  15.144 -0.0604  0.0824 -0.1324
 3755DOPG   C1B66921  24.914  19.263  15.814  0.2780 -0.2488  0.4696
 3755DOPG   D2B66922  25.180  19.031  15.367  0.1361 -0.0751 -0.0667
 3755DOPG   C3B66923  25.034  18.693  15.046  0.1300 -0.1652 -0.2769
 3755DOPG   C4B66924  25.144  18.378  14.867  0.0654 -0.3389  0.1013
 3756DOPG   GL066925  23.910  18.890  16.686  0.0678 -0.1021 -0.1519
 3756DOPG   PO466926  23.926  19.099  16.341  0.0556  0.0272 -0.1569
 3756DOPG   GL166927  24.172  18.849  16.191 -0.0613  0.2425  0.0183
 3756DOPG   GL266928  24.529  18.747  16.324 -0.0010 -0.0671  0.0096
 3756DOPG   C1A66929  24.395  19.043  15.751 -0.4065  0.0909  0.1929
 3756DOPG   D2A66930  24.591  18.998  15.374 -0.0511 -0.0183  0.2366
 3756DOPG   C3A66931  24.509  18.782  15.068  0.1195 -0.2897 -0.0413
 3756DOPG   C4A66932  24.580  18.426  14.979 -0.1704  0.1297 -0.1558
 3756DOPG   C1B66933  24.710  18.613  15.945  0.0282 -0.1934  0.1729
 3756DOPG   D2B66934  24.759  18.550  15.525  0.0288 -0.0177  0.0540
 3756DOPG   C3B66935  24.585  18.241  15.460 -0.1684 -0.1549 -0.0865
 3756DOPG   C4B66936  24.612  17.730  15.435  0.1652  0.0061 -0.2250
 3757DOPG   GL066937  24.820  19.011  18.284 -0.0238  0.0964  0.0952
 3757DOPG   PO466938  24.956  18.650  18.389 -0.0840 -0.3537 -0.1480
 3757DOPG   GL166939  25.172  18.871  18.683  0.0598  0.0689  0.1191
 3757DOPG   GL266940  25.047  18.716  18.965  0.0949 -0.1417 -0.1271
 3757DOPG   C1A66941  25.507  18.927  18.960 -0.0560  0.1600 -0.1891
 3757DOPG   D2A66942  25.510  18.826  19.373  0.1893  0.0477  0.0527
 3757DOPG   C3A66943  25.623  18.549  19.653 -0.3541 -0.0907  0.1694
 3757DOPG   C4A66944  25.941  18.327  19.652 -0.1831  0.0572 -0.0054
 3757DOPG   C1B66945  25.267  18.410  19.304 -0.2494  0.0834 -0.1176
 3757DOPG   D2B66946  25.336  18.119  19.701 -0.2571  0.1298 -0.2388
 3757DOPG   C3B66947  25.529  17.758  19.724 -0.0811 -0.1047 -0.2328
 3757DOPG   C4B66948  25.261  17.381  19.835  0.1759  0.5438 -0.0909
 3758DOPG   GL066949  23.519  16.982  17.984  0.0109  0.3059  0.0001
 3758DOPG   PO466950  23.191  16.695  17.994  0.0613 -0.0444  0.1263
 3758DOPG   GL166951  23.193  16.351  17.699  0.1348 -0.2536 -0.1300
 3758DOPG   GL266952  22.914  16.246  17.512  0.1578  0.1869 -0.2578
 3758DOPG   C1A66953  23.423  16.184  17.369  0.0011  0.0284 -0.1377
 3758DOPG   D2A66954  23.814  16.234  17.051  0.0781 -0.2206 -0.0622
 3758DOPG   C3A66955  23.683  15.986  16.726  0.1879 -0.0988  0.2518
 3758DOPG   C4A66956  23.592  15.709  16.453  0.0944  0.2400  0.0767
 3758DOPG   C1B66957  22.992  15.933  17.234 -0.0206  0.0459 -0.0196
 3758DOPG   D2B66958  23.107  15.433  17.108 -0.1799 -0.0515  0.2712
 3758DOPG   C3B66959  23.442  15.170  17.430 -0.4509  0.1461  0.0269
 3758DOPG   C4B66960  23.380  15.065  17.833 -0.0510  0.2589  0.2222
 3759DOPG   GL066961  22.266  16.399  18.015  0.3834 -0.0305  0.1418
 3759DOPG   PO466962  22.455  16.331  17.563  0.0267  0.1451  0.4041
 3759DOPG   GL166963  22.612  15.914  17.506  0.0224  0.1575  0.0461
 3759DOPG   GL266964  22.459  15.881  17.122  0.2497  0.1351 -0.2029
 3759DOPG   C1A66965  22.685  15.507  17.363  0.0796  0.1569  0.0153
 3759DOPG   D2A66966  22.499  15.160  17.167  0.1196  0.3876  0.2924
 3759DOPG   C3A66967  22.786  15.051  16.815 -0.1828  0.0950  0.0812
 3759DOPG   C4A66968  23.076  15.240  16.631  0.2001 -0.1081 -0.0401
 3759DOPG   C1B66969  22.683  15.747  16.740  0.0344 -0.1578 -0.1854
 3759DOPG   D2B66970  23.147  15.745  16.587  0.0158 -0.3610  0.0902
 3759DOPG   C3B66971  23.158  15.489  16.198  0.1579 -0.2130 -0.3172
 3759DOPG   C4B66972  23.128  15.057  16.152  0.1597 -0.3285 -0.3321
 3760DOPG   GL066973  24.528  18.060  17.914  0.0778 -0.3307 -0.3854
 3760DOPG   PO466974  24.558  18.198  17.609 -0.0121 -0.1624 -0.0282
 3760DOPG   GL166975  24.740  17.850  17.296 -0.0456 -0.0294  0.1376
 3760DOPG   GL266976  24.948  17.780  17.565  0.2933 -0.1849  0.0615
 3760DOPG   C1A66977  24.824  17.606  16.997 -0.2394  0.1804  0.2479
 3760DOPG   D2A66978  24.974  17.291  16.844  0.0552 -0.3665  0.0756
 3760DOPG   C3A66979  25.267  17.384  16.802 -0.0510 -0.0469 -0.3063
 3760DOPG   C4A66980  25.719  17.394  16.994  0.0104  0.2045 -0.0855
 3760DOPG   C1B66981  25.201  17.489  17.405  0.0326  0.1621  0.0392
 3760DOPG   D2B66982  25.327  17.156  17.237 -0.1201  0.1901  0.3333
 3760DOPG   C3B66983  25.161  16.793  17.087  0.0394  0.1089 -0.0776
 3760DOPG   C4B66984  24.997  16.525  16.839  0.0123 -0.0258  0.3465
 3761DOPG   GL066985  24.395  17.047  17.765  0.2774 -0.0273 -0.0415
 3761DOPG   PO466986  24.619  17.222  17.967  0.2182 -0.3155  0.0986
 3761DOPG   GL166987  25.003  17.229  17.896 -0.1487  0.0058 -0.2151
 3761DOPG   GL266988  25.072  17.292  18.193 -0.0149  0.3877 -0.1093
 3761DOPG   C1A66989  25.410  17.120  17.839  0.1223  0.1594 -0.2048
 3761DOPG   D2A66990  25.845  16.921  17.948  0.0397  0.0467 -0.1204
 3761DOPG   C3A66991  26.201  16.836  18.147  0.1688 -0.0167 -0.0158
 3761DOPG   C4A66992  26.431  17.045  18.442 -0.0829 -0.2835 -0.4854
 3761DOPG   C1B66993  25.288  17.031  18.412 -0.3467  0.0610  0.0666
 3761DOPG   D2B66994  25.638  16.845  18.519 -0.1762 -0.1569  0.4477
 3761DOPG   C3B66995  25.991  16.491  18.526 -0.0635  0.0555 -0.1419
 3761DOPG   C4B66996  26.315  16.251  18.839  0.0781  0.0912 -0.1336
 3762DOPG   GL066997  21.279  16.865  18.042 -0.0338  0.1668  0.1602
 3762DOPG   PO466998  21.492  16.643  17.726 -0.2069 -0.1789 -0.2068
 3762DOPG   GL166999  21.050  16.623  17.602 -0.0575 -0.2010  0.1322
 3762DOPG   GL267000  20.963  16.590  17.257 -0.3647  0.0447  0.1830
 3762DOPG   C1A67001  20.684  16.836  17.616  0.2989  0.2354 -0.2193
 3762DOPG   D2A67002  20.383  17.130  17.696 -0.1714 -0.3286  0.1851
 3762DOPG   C3A67003  20.048  17.215  17.419  0.4441  0.3242 -0.1679
 3762DOPG   C4A67004  19.581  17.185  17.388 -0.3004 -0.2125  0.1772
 3762DOPG   C1B67005  21.023  16.334  16.876  0.0659 -0.3389  0.2902
 3762DOPG   D2B67006  20.960  16.029  16.514 -0.2032 -0.0211 -0.0588
 3762DOPG   C3B67007  20.674  16.174  16.202  0.2290  0.1019  0.1589
 3762DOPG   C4B67008  20.214  16.226  16.108  0.0535 -0.5137 -0.1521
 3763DOPG   GL067009  23.464  17.529  17.693 -0.2753  0.0481  0.3467
 3763DOPG   PO467010  23.759  17.597  17.434  0.3654  0.2744 -0.3511
 3763DOPG   GL167011  24.183  17.381  17.252 -0.2764  0.3559  0.1626
 3763DOPG   GL267012  24.239  16.989  17.232 -0.0654  0.1294  0.0030
 3763DOPG   C1A67013  24.580  17.347  17.356 -0.1697  0.3352 -0.0315
 3763DOPG   D2A67014  24.862  17.013  17.389 -0.0522 -0.3720 -0.2150
 3763DOPG   C3A67015  25.187  16.757  17.554  0.0915 -0.0437 -0.0076
 3763DOPG   C4A67016  25.687  16.563  17.734  0.1052 -0.0821  0.4859
 3763DOPG   C1B67017  24.516  16.918  16.932 -0.0064  0.0512  0.0615
 3763DOPG   D2B67018  24.715  16.970  16.589  0.1228  0.2884 -0.0331
 3763DOPG   C3B67019  25.248  16.917  16.645 -0.3677 -0.1192 -0.0430
 3763DOPG   C4B67020  25.598  16.878  16.911  0.1818  0.1754  0.0890
 3764DOPG   GL067021  20.883  15.345  17.888 -0.1069  0.0869 -0.2658
 3764DOPG   PO467022  20.511  15.630  17.647  0.0769  0.1173  0.0595
 3764DOPG   GL167023  20.369  15.569  17.266 -0.1414  0.0592 -0.2058
 3764DOPG   GL267024  20.040  15.746  17.316 -0.0013 -0.0277 -0.0326
 3764DOPG   C1A67025  19.957  15.370  17.052  0.0444  0.2881 -0.1137
 3764DOPG   D2A67026  19.873  15.169  16.632 -0.3241  0.0244 -0.2237
 3764DOPG   C3A67027  20.103  15.359  16.197 -0.0707 -0.0612 -0.0984
 3764DOPG   C4A67028  20.286  15.682  16.040 -0.2948 -0.2213 -0.3786
 3764DOPG   C1B67029  20.095  15.949  17.007 -0.0122  0.3919  0.1920
 3764DOPG   D2B67030  20.515  15.938  16.747 -0.0468 -0.2462  0.1220
 3764DOPG   C3B67031  20.439  16.257  16.593  0.1795 -0.2764  0.2599
 3764DOPG   C4B67032  20.166  16.566  16.451  0.2610 -0.2882  0.0826
 3765DOPG   GL067033  20.545  16.110  18.384  0.0244  0.2630  0.2393
 3765DOPG   PO467034  20.763  15.970  17.980 -0.0158 -0.1206 -0.2874
 3765DOPG   GL167035  20.581  16.302  17.695 -0.1776 -0.0110 -0.0005
 3765DOPG   GL267036  20.589  16.106  17.401 -0.1422  0.0890 -0.0494
 3765DOPG   C1A67037  20.163  16.332  17.431  0.2852 -0.1264  0.0974
 3765DOPG   D2A67038  19.701  16.317  17.321 -0.0764 -0.0764 -0.0276
 3765DOPG   C3A67039  19.326  16.551  17.324  0.0285  0.0906 -0.0821
 3765DOPG   C4A67040  18.994  16.821  17.256  0.2304 -0.0126 -0.0322
 3765DOPG   C1B67041  20.555  16.378  17.089  0.0598  0.1212 -0.0843
 3765DOPG   D2B67042  20.556  16.692  16.757 -0.1688 -0.0613 -0.1869
 3765DOPG   C3B67043  20.289  17.044  16.489 -0.0842  0.0814 -0.1049
 3765DOPG   C4B67044  20.190  17.459  16.344  0.0839 -0.0083 -0.3208
 3766DOPG   GL067045  21.185  15.894  17.077 -0.1500 -0.0793 -0.0774
 3766DOPG   PO467046  20.776  15.756  17.082 -0.2391 -0.0768 -0.2344
 3766DOPG   GL167047  20.828  15.558  16.859  0.2475 -0.0423 -0.2269
 3766DOPG   GL267048  20.748  15.267  16.892  0.2162  0.2992 -0.1656
 3766DOPG   C1A67049  20.789  15.591  16.359 -0.1001 -0.0133 -0.1100
 3766DOPG   D2A67050  20.995  15.343  16.035  0.2744  0.0512  0.2304
 3766DOPG   C3A67051  21.090  14.865  15.960 -0.0222  0.1778 -0.0071
 3766DOPG   C4A67052  21.493  14.508  15.836  0.0062  0.0742  0.0630
 3766DOPG   C1B67053  20.810  15.095  16.420 -0.0622 -0.1946 -0.1402
 3766DOPG   D2B67054  20.597  15.147  16.110 -0.0033 -0.1657  0.0419
 3766DOPG   C3B67055  20.662  14.994  15.682  0.2918 -0.0747 -0.0171
 3766DOPG   C4B67056  20.627  14.913  15.182  0.0049 -0.0583 -0.3084
 3767DOPG   GL067057  24.285  17.617  17.718 -0.1825  0.1196  0.0361
 3767DOPG   PO467058  24.164  17.863  17.318  0.0899  0.2589  0.0426
 3767DOPG   GL167059  24.396  17.757  16.907  0.0017  0.1160 -0.1956
 3767DOPG   GL267060  24.656  17.926  16.678  0.1895  0.3044  0.0165
 3767DOPG   C1A67061  24.456  17.389  16.623  0.0939 -0.2353 -0.0341
 3767DOPG   D2A67062  24.470  17.098  16.170  0.1308  0.0427 -0.2335
 3767DOPG   C3A67063  24.765  17.119  15.813  0.2260 -0.0422 -0.1388
 3767DOPG   C4A67064  25.247  17.090  15.720 -0.0779 -0.1459 -0.1967
 3767DOPG   C1B67065  24.959  17.597  16.475 -0.0365  0.1055  0.0092
 3767DOPG   D2B67066  24.984  17.201  16.260  0.2340  0.0718 -0.0425
 3767DOPG   C3B67067  24.895  16.735  16.208  0.1100  0.0205  0.4829
 3767DOPG   C4B67068  24.974  16.305  16.355 -0.0685 -0.2237 -0.1455
 3768DOPG   GL067069  21.417  16.814  17.193  0.1025  0.0882  0.0185
 3768DOPG   PO467070  21.718  16.544  16.928 -0.1896  0.0306 -0.1476
 3768DOPG   GL167071  21.786  16.202  16.628  0.2678  0.0254  0.2733
 3768DOPG   GL267072  21.570  16.015  16.806  0.0661 -0.2605 -0.0730
 3768DOPG   C1A67073  21.890  15.823  16.381  0.0262  0.2350 -0.2142
 3768DOPG   D2A67074  21.938  15.366  16.072 -0.2442  0.1012  0.3134
 3768DOPG   C3A67075  22.205  15.356  15.708 -0.2299 -0.1732  0.0677
 3768DOPG   C4A67076  22.639  15.229  15.350  0.1128 -0.1048  0.0456
 3768DOPG   C1B67077  21.328  15.677  16.640 -0.0364  0.1754 -0.3909
 3768DOPG   D2B67078  21.413  15.205  16.534 -0.0538 -0.3222  0.2818
 3768DOPG   C3B67079  21.405  14.772  16.342 -0.0865 -0.0647  0.1162
 3768DOPG   C4B67080  21.364  14.356  16.244 -0.1737 -0.1778 -0.2073
 3769DOPG   GL067081  24.503  19.117  17.265 -0.0072 -0.0785  0.3652
 3769DOPG   PO467082  24.633  18.739  16.841 -0.0389 -0.1634  0.2941
 3769DOPG   GL167083  24.851  18.451  16.501  0.2215  0.1310  0.0679
 3769DOPG   GL267084  25.158  18.254  16.449  0.1358  0.3022  0.1152
 3769DOPG   C1A67085  24.750  18.128  16.245  0.0086  0.2852  0.0949
 3769DOPG   D2A67086  24.968  18.154  15.869  0.0674  0.4782  0.1573
 3769DOPG   C3A67087  25.400  18.289  15.887  0.0321 -0.4664  0.3569
 3769DOPG   C4A67088  25.793  18.187  15.892  0.4061  0.1224  0.1565
 3769DOPG   C1B67089  25.370  17.970  16.277 -0.1706  0.4933  0.1159
 3769DOPG   D2B67090  25.505  17.558  16.009 -0.1167 -0.0536 -0.0440
 3769DOPG   C3B67091  25.965  17.538  15.827 -0.1279  0.1200 -0.2168
 3769DOPG   C4B67092  26.310  17.823  15.776 -0.2432 -0.2039  0.1573
 3770DOPG   GL067093  22.139  17.288  17.086 -0.0825 -0.0824  0.0631
 3770DOPG   PO467094  22.337  16.966  17.170 -0.3692 -0.1257  0.1606
 3770DOPG   GL167095  22.436  16.717  16.778  0.0881  0.4636  0.0201
 3770DOPG   GL267096  22.190  16.465  16.679  0.0922  0.3256 -0.0898
 3770DOPG   C1A67097  22.602  16.596  16.442  0.2419  0.3725  0.1315
 3770DOPG   D2A67098  22.602  16.615  15.971  0.1666 -0.1702  0.1433
 3770DOPG   C3A67099  22.504  16.286  15.801 -0.0068 -0.1967 -0.0139
 3770DOPG   C4A67100  22.364  15.897  15.964 -0.2293 -0.5135  0.1576
 3770DOPG   C1B67101  22.368  15.971  16.498  0.0559  0.0056  0.0855
 3770DOPG   D2B67102  22.381  15.558  16.302 -0.0456  0.4589 -0.2358
 3770DOPG   C3B67103  22.605  15.151  16.387  0.0750  0.2683 -0.0904
 3770DOPG   C4B67104  22.786  14.768  16.147 -0.2960 -0.0043  0.1364
 3771DOPG   GL067105  21.804  16.099  18.082 -0.0120  0.0319  0.0648
 3771DOPG   PO467106  21.754  15.632  18.010 -0.0137  0.1228 -0.0633
 3771DOPG   GL167107  22.187  15.415  17.896  0.1558  0.4605  0.0188
 3771DOPG   GL267108  22.173  15.086  17.730 -0.0591 -0.0755 -0.1895
 3771DOPG   C1A67109  22.560  15.145  18.084 -0.2458 -0.0022  0.1132
 3771DOPG   D2A67110  22.689  15.025  18.474 -0.0895  0.1262 -0.1293
 3771DOPG   C3A67111  22.965  14.769  18.634  0.1149 -0.2303 -0.2171
 3771DOPG   C4A67112  23.411  14.572  18.721 -0.1414  0.1785 -0.0641
 3771DOPG   C1B67113  22.486  14.869  17.593  0.3726 -0.1005 -0.1024
 3771DOPG   D2B67114  22.496  14.487  17.529  0.0641  0.0728  0.0719
 3771DOPG   C3B67115  22.454  14.013  17.560  0.2386  0.0531 -0.0502
 3771DOPG   C4B67116  22.019  13.800  17.594 -0.0391  0.1297 -0.2412
 3772DOPG   GL067117  23.049  17.430  17.477  0.2643  0.0676 -0.1344
 3772DOPG   PO467118  23.304  17.473  17.113 -0.3135 -0.1643  0.0701
 3772DOPG   GL167119  23.643  17.298  17.056 -0.0184 -0.3475 -0.0300
 3772DOPG   GL267120  23.674  16.965  17.150  0.0039 -0.5153  0.1662
 3772DOPG   C1A67121  24.000  17.352  16.829  0.1270  0.0028  0.3001
 3772DOPG   D2A67122  24.152  17.071  16.543  0.2656  0.0291 -0.0162
 3772DOPG   C3A67123  24.277  16.753  16.500  0.2065 -0.2649  0.2545
 3772DOPG   C4A67124  24.391  16.335  16.460  0.2364 -0.0555  0.0157
 3772DOPG   C1B67125  23.916  16.829  16.915 -0.4512  0.3760  0.1773
 3772DOPG   D2B67126  24.292  16.480  16.939  0.0678  0.0443 -0.0389
 3772DOPG   C3B67127  24.216  16.050  16.820  0.2555  0.1011 -0.0502
 3772DOPG   C4B67128  23.991  15.674  16.974  0.3028  0.0868  0.2355
  33.33281  33.33281  35.12609
