BUMPy system t= 1000000.00000 step= 50000000
67128
    1BOLB   NC1    1   8.730  11.820  18.420
    1BOLB   PO1    2   8.480  12.080  18.060
    1BOLB   GL1    3   8.830  12.060  17.920
    1BOLB   GL2    4   9.070  11.790  17.970
    1BOLB   C1A    5   9.180  12.400  17.960
    1BOLB   C2A    6   9.700  12.370  18.060
    1BOLB   C3A    7  10.170  12.450  18.210
    1BOLB   C4A    8  10.530  12.460  18.540
    1BOLB   C1B    9   9.390  11.880  18.060
    1BOLB   C2B   10   9.830  11.890  18.010
    1BOLB   C3B   11  10.190  12.010  17.780
    1BOLB   C4B   12  10.350  12.170  17.460
    1BOLB   NC2   13  10.610  10.090  18.180
    1BOLB   PO2   14  10.540  10.040  18.640
    1BOLB   GL3   15  10.680  10.460  18.670
    1BOLB   GL4   16  11.020  10.420  18.510
    1BOLB   C1C   17  10.730  10.950  18.620
    1BOLB   C2C   18  11.030  11.270  18.740
    1BOLB   C3C   19  11.080  11.700  18.680
    1BOLB   C4C   20  10.930  12.120  18.620
    1BOLB   C1D   21  11.050  10.750  18.280
    1BOLB   C2D   22  10.950  11.100  18.130
    1BOLB   C3D   23  10.960  11.270  17.690
    1BOLB   C4D   24  10.870  11.570  17.410
    2BOLB   NC1   25  23.340  27.060  17.740
    2BOLB   PO1   26  23.650  27.320  17.940
    2BOLB   GL1   27  24.010  27.390  18.090
    2BOLB   GL2   28  24.250  27.100  18.100
    2BOLB   C1A   29  24.310  27.580  18.280
    2BOLB   C2A   30  24.540  27.540  18.790
    2BOLB   C3A   31  24.870  27.510  19.110
    2BOLB   C4A   32  25.250  27.440  19.390
    2BOLB   C1B   33  24.580  27.150  18.340
    2BOLB   C2B   34  24.900  27.170  18.740
    2BOLB   C3B   35  25.330  27.170  19.010
    2BOLB   C4B   36  25.630  27.380  19.110
    2BOLB   NC2   37  27.320  27.390  20.400
    2BOLB   PO2   38  27.370  26.960  20.270
    2BOLB   GL3   39  26.950  26.850  20.340
    2BOLB   GL4   40  26.680  26.660  20.150
    2BOLB   C1C   41  26.490  26.880  20.530
    2BOLB   C2C   42  26.140  26.740  20.230
    2BOLB   C3C   43  25.900  26.890  19.850
    2BOLB   C4C   44  25.650  27.210  19.600
    2BOLB   C1D   45  26.410  26.390  19.910
    2BOLB   C2D   46  25.960  26.430  19.770
    2BOLB   C3D   47  25.580  26.580  19.600
    2BOLB   C4D   48  25.330  26.840  19.480
    3BOLB   NC1   49  11.160  25.470  14.140
    3BOLB   PO1   50  11.050  25.850  13.970
    3BOLB   GL1   51  11.110  26.260  14.010
    3BOLB   GL2   52  10.860  26.330  14.260
    3BOLB   C1A   53  10.880  26.640  13.820
    3BOLB   C2A   54  10.430  26.790  13.710
    3BOLB   C3A   55  10.070  26.920  13.530
    3BOLB   C4A   56  10.050  27.320  13.290
    3BOLB   C1B   57  10.480  26.590  14.220
    3BOLB   C2B   58  10.270  26.940  14.570
    3BOLB   C3B   59  10.010  27.340  14.810
    3BOLB   C4B   60   9.980  27.750  14.870
    3BOLB   NC2   61   8.760  29.190  13.090
    3BOLB   PO2   62   9.130  29.190  13.370
    3BOLB   GL3   63   9.320  28.820  13.230
    3BOLB   GL4   64   9.320  28.940  12.850
    3BOLB   C1C   65   9.550  28.590  13.050
    3BOLB   C2C   66   9.830  28.270  12.900
    3BOLB   C3C   67   9.970  27.870  12.850
    3BOLB   C4C   68   9.930  27.580  13.040
    3BOLB   C1D   69   9.820  29.090  12.790
    3BOLB   C2D   70  10.200  29.110  12.520
    3BOLB   C3D   71  10.630  29.230  12.390
    3BOLB   C4D   72  10.870  28.920  12.020
    4BOLB   NC1   73  17.940  29.870  10.990
    4BOLB   PO1   74  18.230  29.810  11.300
    4BOLB   GL1   75  18.450  30.110  11.170
    4BOLB   GL2   76  18.230  30.270  11.080
    4BOLB   C1A   77  18.570  30.580  11.270
    4BOLB   C2A   78  18.710  30.910  11.100
    4BOLB   C3A   79  18.850  31.190  10.690
    4BOLB   C4A   80  19.200  31.570  10.620
    4BOLB   C1B   81  17.980  30.640  10.840
    4BOLB   C2B   82  17.760  31.030  10.940
    4BOLB   C3B   83  17.390  31.260  11.060
    4BOLB   C4B   84  16.980  31.360  11.100
    4BOLB   NC2   85  19.770  33.830  10.130
    4BOLB   PO2   86  19.900  33.590   9.710
    4BOLB   GL3   87  19.730  33.180   9.410
    4BOLB   GL4   88  19.560  33.280   9.110
    4BOLB   C1C   89  19.420  32.860   9.630
    4BOLB   C2C   90  19.310  32.710  10.030
    4BOLB   C3C   91  19.270  32.390  10.310
    4BOLB   C4C   92  19.280  32.000  10.610
    4BOLB   C1D   93  19.470  32.870   9.110
    4BOLB   C2D   94  19.310  32.520   9.330
    4BOLB   C3D   95  18.870  32.620   9.460
    4BOLB   C4D   96  18.650  32.810   9.790
    5BOLB   NC1   97  19.030  24.600  20.150
    5BOLB   PO1   98  19.530  24.800  20.070
    5BOLB   GL1   99  19.370  25.020  20.410
    5BOLB   GL2  100  19.190  24.840  20.590
    5BOLB   C1A  101  19.490  25.180  20.870
    5BOLB   C2A  102  19.800  25.080  21.210
    5BOLB   C3A  103  19.860  25.260  21.600
    5BOLB   C4A  104  20.060  25.160  22.080
    5BOLB   C1B  105  18.770  24.890  20.800
    5BOLB   C2B  106  18.590  25.010  21.220
    5BOLB   C3B  107  18.640  24.980  21.720
    5BOLB   C4B  108  18.580  25.030  22.110
    5BOLB   NC2  109  20.290  26.340  24.280
    5BOLB   PO2  110  20.690  25.990  24.130
    5BOLB   GL3  111  20.520  25.990  23.760
    5BOLB   GL4  112  20.300  26.160  23.680
    5BOLB   C1C  113  20.450  25.760  23.460
    5BOLB   C2C  114  20.290  25.500  23.120
    5BOLB   C3C  115  20.230  25.360  22.790
    5BOLB   C4C  116  20.190  25.060  22.500
    5BOLB   C1D  117  20.260  26.610  23.510
    5BOLB   C2D  118  20.270  26.830  23.080
    5BOLB   C3D  119  20.170  26.590  22.670
    5BOLB   C4D  120  20.260  26.560  22.190
    6BOLB   NC1  121  18.960  18.240  19.220
    6BOLB   PO1  122  19.240  17.930  19.460
    6BOLB   GL1  123  19.380  17.760  19.930
    6BOLB   GL2  124  19.220  17.730  20.220
    6BOLB   C1A  125  19.720  17.820  20.280
    6BOLB   C2A  126  20.050  17.860  20.550
    6BOLB   C3A  127  20.200  17.950  21.050
    6BOLB   C4A  128  20.130  17.820  21.580
    6BOLB   C1B  129  19.340  17.690  20.640
    6BOLB   C2B  130  19.710  17.590  20.840
    6BOLB   C3B  131  20.050  17.460  20.980
    6BOLB   C4B  132  20.490  17.560  21.210
    6BOLB   NC2  133  20.580  18.330  24.300
    6BOLB   PO2  134  20.760  18.040  23.910
    6BOLB   GL3  135  20.660  17.870  23.490
    6BOLB   GL4  136  21.020  17.810  23.410
    6BOLB   C1C  137  20.330  17.820  23.110
    6BOLB   C2C  138  20.030  17.770  22.740
    6BOLB   C3C  139  19.910  17.650  22.320
    6BOLB   C4C  140  20.040  17.800  21.960
    6BOLB   C1D  141  20.790  17.820  22.980
    6BOLB   C2D  142  20.670  17.970  22.660
    6BOLB   C3D  143  20.620  18.250  22.270
    6BOLB   C4D  144  20.690  18.250  21.840
    7BOLB   NC1  145  14.780  23.570  18.940
    7BOLB   PO1  146  14.690  24.120  19.000
    7BOLB   GL1  147  14.580  24.380  19.430
    7BOLB   GL2  148  14.380  24.740  19.360
    7BOLB   C1A  149  14.660  24.550  19.750
    7BOLB   C2A  150  14.550  24.700  20.160
    7BOLB   C3A  151  14.640  24.960  20.640
    7BOLB   C4A  152  14.670  25.210  20.940
    7BOLB   C1B  153  14.250  24.880  19.800
    7BOLB   C2B  154  13.900  25.150  20.040
    7BOLB   C3B  155  13.460  25.180  20.110
    7BOLB   C4B  156  13.220  25.180  20.330
    7BOLB   NC2  157  14.600  26.340  22.950
    7BOLB   PO2  158  14.250  26.230  22.750
    7BOLB   GL3  159  14.240  26.330  22.250
    7BOLB   GL4  160  13.960  26.360  21.980
    7BOLB   C1C  161  14.430  26.210  21.940
    7BOLB   C2C  162  14.330  26.050  21.570
    7BOLB   C3C  163  14.330  25.860  21.170
    7BOLB   C4C  164  14.550  25.520  21.040
    7BOLB   C1D  165  13.780  26.380  21.570
    7BOLB   C2D  166  13.890  26.030  21.260
    7BOLB   C3D  167  13.920  25.660  20.980
    7BOLB   C4D  168  13.690  25.510  20.620
    8BOLB   NC1  169  17.180  25.700  20.080
    8BOLB   PO1  170  17.330  26.090  19.910
    8BOLB   GL1  171  17.580  26.290  20.170
    8BOLB   GL2  172  17.450  26.600  20.070
    8BOLB   C1A  173  17.690  26.560  20.540
    8BOLB   C2A  174  17.770  26.870  20.920
    8BOLB   C3A  175  17.820  27.400  21.120
    8BOLB   C4A  176  17.840  27.820  21.210
    8BOLB   C1B  177  17.150  26.810  20.380
    8BOLB   C2B  178  17.260  26.920  20.760
    8BOLB   C3B  179  17.300  26.800  21.190
    8BOLB   C4B  180  17.270  26.300  21.470
    8BOLB   NC2  181  17.380  29.380  22.530
    8BOLB   PO2  182  17.170  29.690  22.330
    8BOLB   GL3  183  17.160  29.380  22.100
    8BOLB   GL4  184  17.550  29.390  22.040
    8BOLB   C1C  185  17.040  29.060  21.860
    8BOLB   C2C  186  17.280  28.800  21.630
    8BOLB   C3C  187  17.390  28.510  21.390
    8BOLB   C4C  188  17.610  28.170  21.220
    8BOLB   C1D  189  17.610  29.230  21.660
    8BOLB   C2D  190  17.650  28.950  21.330
    8BOLB   C3D  191  17.700  28.700  21.050
    8BOLB   C4D  192  17.840  28.390  20.830
    9BOLB   NC1  193  10.750  26.230  20.750
    9BOLB   PO1  194  10.520  26.260  20.480
    9BOLB   GL1  195  10.560  26.210  20.020
    9BOLB   GL2  196  10.760  26.390  19.790
    9BOLB   C1A  197  10.660  25.860  19.700
    9BOLB   C2A  198  10.950  25.650  19.340
    9BOLB   C3A  199  10.740  25.720  18.900
    9BOLB   C4A  200  10.550  25.870  18.510
    9BOLB   C1B  201  11.100  26.180  19.630
    9BOLB   C2B  202  11.450  25.830  19.470
    9BOLB   C3B  203  11.440  25.440  19.190
    9BOLB   C4B  204  11.170  25.060  19.280
    9BOLB   NC2  205  10.330  27.110  19.400
    9BOLB   PO2  206   9.900  27.000  19.390
    9BOLB   GL3  207   9.770  26.950  18.940
    9BOLB   GL4  208   9.820  26.670  18.950
    9BOLB   C1C  209   9.960  27.010  18.520
    9BOLB   C2C  210  10.010  26.800  18.100
    9BOLB   C3C  211  10.190  26.530  18.120
    9BOLB   C4C  212  10.330  26.250  18.360
    9BOLB   C1D  213   9.760  26.480  18.530
    9BOLB   C2D  214   9.690  26.290  18.190
    9BOLB   C3D  215   9.860  26.200  17.830
    9BOLB   C4D  216  10.270  26.210  17.520
   10BOLB   NC1  217  17.230  24.610  19.850
   10BOLB   PO1  218  17.270  24.740  20.280
   10BOLB   GL1  219  17.250  24.730  20.650
   10BOLB   GL2  220  16.990  24.710  20.860
   10BOLB   C1A  221  17.150  25.170  20.850
   10BOLB   C2A  222  16.900  25.340  21.180
   10BOLB   C3A  223  17.060  25.630  21.510
   10BOLB   C4A  224  17.300  25.830  21.780
   10BOLB   C1B  225  17.140  24.730  21.240
   10BOLB   C2B  226  17.260  24.960  21.660
   10BOLB   C3B  227  17.680  24.900  21.910
   10BOLB   C4B  228  17.950  24.950  22.240
   10BOLB   NC2  229  18.090  26.960  23.730
   10BOLB   PO2  230  18.350  26.690  23.630
   10BOLB   GL3  231  18.030  26.450  23.510
   10BOLB   GL4  232  18.130  26.140  23.560
   10BOLB   C1C  233  17.690  26.290  23.310
   10BOLB   C2C  234  17.400  26.420  22.860
   10BOLB   C3C  235  17.340  26.240  22.480
   10BOLB   C4C  236  17.540  26.010  22.110
   10BOLB   C1D  237  18.380  26.120  23.180
   10BOLB   C2D  238  18.550  25.840  22.910
   10BOLB   C3D  239  18.580  25.610  22.430
   10BOLB   C4D  240  18.230  25.390  22.170
   11BOLB   NC1  241   9.090  21.070  10.890
   11BOLB   PO1  242   8.810  21.420  10.800
   11BOLB   GL1  243   8.360  21.390  10.880
   11BOLB   GL2  244   8.450  21.470  11.180
   11BOLB   C1A  245   7.970  21.460  10.660
   11BOLB   C2A  246   7.640  21.610  10.490
   11BOLB   C3A  247   7.170  21.750  10.490
   11BOLB   C4A  248   7.020  22.120  10.230
   11BOLB   C1B  249   8.160  21.080  11.230
   11BOLB   C2B  250   7.880  20.850  10.960
   11BOLB   C3B  251   7.570  20.600  10.830
   11BOLB   C4B  252   7.200  20.530  10.520
   11BOLB   NC2  253   4.970  22.010  10.780
   11BOLB   PO2  254   4.790  22.380  10.610
   11BOLB   GL3  255   5.190  22.520  10.660
   11BOLB   GL4  256   5.250  22.690  10.380
   11BOLB   C1C  257   5.510  22.450  10.790
   11BOLB   C2C  258   5.950  22.590  10.510
   11BOLB   C3C  259   6.280  22.440  10.440
   11BOLB   C4C  260   6.620  22.250  10.380
   11BOLB   C1D  261   5.630  22.810  10.170
   11BOLB   C2D  262   6.010  22.940  10.120
   11BOLB   C3D  263   6.420  22.780  10.170
   11BOLB   C4D  264   6.910  22.640  10.280
   12BOLB   NC1  265  14.560  25.650  18.200
   12BOLB   PO1  266  14.540  25.400  18.510
   12BOLB   GL1  267  14.450  25.670  18.790
   12BOLB   GL2  268  14.560  25.940  18.640
   12BOLB   C1A  269  14.280  25.840  19.170
   12BOLB   C2A  270  14.200  26.240  19.430
   12BOLB   C3A  271  14.230  26.600  19.730
   12BOLB   C4A  272  14.200  26.700  20.160
   12BOLB   C1B  273  14.210  26.130  18.750
   12BOLB   C2B  274  14.020  26.380  19.000
   12BOLB   C3B  275  13.730  26.470  19.250
   12BOLB   C4B  276  13.760  26.490  19.690
   12BOLB   NC2  277  12.060  26.580  21.590
   12BOLB   PO2  278  12.310  27.040  21.830
   12BOLB   GL3  279  12.670  26.730  21.700
   12BOLB   GL4  280  12.910  26.490  21.710
   12BOLB   C1C  281  12.930  26.690  21.260
   12BOLB   C2C  282  13.260  26.760  20.920
   12BOLB   C3C  283  13.780  26.660  20.870
   12BOLB   C4C  284  13.980  26.900  20.500
   12BOLB   C1D  285  12.770  26.050  21.740
   12BOLB   C2D  286  13.080  25.760  21.820
   12BOLB   C3D  287  13.440  25.480  21.950
   12BOLB   C4D  288  13.730  25.230  21.760
   13BOLB   NC1  289   7.010  15.420  15.540
   13BOLB   PO1  290   6.870  15.790  15.860
   13BOLB   GL1  291   7.140  15.870  16.190
   13BOLB   GL2  292   6.940  16.030  16.420
   13BOLB   C1A  293   7.440  15.990  16.370
   13BOLB   C2A  294   7.870  16.010  16.340
   13BOLB   C3A  295   8.240  15.720  16.570
   13BOLB   C4A  296   8.610  15.840  16.700
   13BOLB   C1B  297   7.190  16.380  16.470
   13BOLB   C2B  298   7.330  16.640  16.830
   13BOLB   C3B  299   7.480  16.920  17.240
   13BOLB   C4B  300   7.810  16.880  17.520
   13BOLB   NC2  301  10.280  17.390  16.610
   13BOLB   PO2  302  10.500  16.980  16.600
   13BOLB   GL3  303  10.080  16.850  16.520
   13BOLB   GL4  304   9.790  17.030  16.500
   13BOLB   C1C  305   9.650  16.610  16.510
   13BOLB   C2C  306   9.310  16.460  16.270
   13BOLB   C3C  307   9.230  16.020  16.250
   13BOLB   C4C  308   8.990  15.940  16.600
   13BOLB   C1D  309   9.720  17.020  16.070
   13BOLB   C2D  310   9.320  17.000  15.850
   13BOLB   C3D  311   9.070  16.980  15.470
   13BOLB   C4D  312   8.850  16.800  15.100
   14BOLB   NC1  313   8.800  11.850  19.190
   14BOLB   PO1  314   8.570  12.140  19.160
   14BOLB   GL1  315   8.920  12.280  18.970
   14BOLB   GL2  316   9.010  11.990  18.790
   14BOLB   C1A  317   9.440  12.480  18.920
   14BOLB   C2A  318   9.760  12.830  18.900
   14BOLB   C3A  319   9.760  13.110  18.670
   14BOLB   C4A  320   9.840  13.320  18.260
   14BOLB   C1B  321   9.370  11.700  18.650
   14BOLB   C2B  322   9.590  11.440  18.480
   14BOLB   C3B  323   9.780  11.000  18.390
   14BOLB   C4B  324  10.220  10.990  18.500
   14BOLB   NC2  325  11.150  14.740  17.490
   14BOLB   PO2  326  10.790  14.820  17.210
   14BOLB   GL3  327  10.330  14.800  17.330
   14BOLB   GL4  328  10.280  15.060  17.490
   14BOLB   C1C  329  10.020  14.500  17.260
   14BOLB   C2C  330   9.680  14.200  17.360
   14BOLB   C3C  331   9.550  13.910  17.610
   14BOLB   C4C  332   9.700  13.650  17.940
   14BOLB   C1D  333   9.940  15.080  17.270
   14BOLB   C2D  334   9.450  15.080  17.240
   14BOLB   C3D  335   9.120  14.930  17.560
   14BOLB   C4D  336   8.740  14.900  17.720
   15BOLB   NC1  337   9.410  22.330  15.100
   15BOLB   PO1  338   9.080  22.200  15.180
   15BOLB   GL1  339   8.650  22.110  15.250
   15BOLB   GL2  340   8.570  22.310  14.980
   15BOLB   C1A  341   8.190  22.270  15.440
   15BOLB   C2A  342   7.930  22.180  15.780
   15BOLB   C3A  343   7.540  22.060  16.030
   15BOLB   C4A  344   7.100  22.030  16.150
   15BOLB   C1B  345   8.540  22.650  15.270
   15BOLB   C2B  346   8.310  22.940  15.590
   15BOLB   C3B  347   8.040  23.200  15.370
   15BOLB   C4B  348   7.590  23.030  15.080
   15BOLB   NC2  349   5.460  22.930  16.290
   15BOLB   PO2  350   5.250  22.550  16.510
   15BOLB   GL3  351   5.590  22.440  16.200
   15BOLB   GL4  352   5.560  22.550  15.930
   15BOLB   C1C  353   6.010  22.200  15.980
   15BOLB   C2C  354   6.250  22.330  16.360
   15BOLB   C3C  355   6.650  22.470  16.440
   15BOLB   C4C  356   6.880  22.120  16.340
   15BOLB   C1D  357   5.870  22.600  15.670
   15BOLB   C2D  358   6.100  22.530  15.280
   15BOLB   C3D  359   6.410  22.650  14.990
   15BOLB   C4D  360   6.680  22.770  14.800
   16BOLB   NC1  361   8.850  21.100  21.410
   16BOLB   PO1  362   8.880  20.690  21.440
   16BOLB   GL1  363   9.100  20.680  21.160
   16BOLB   GL2  364   9.440  20.670  21.270
   16BOLB   C1A  365   9.360  20.470  20.820
   16BOLB   C2A  366   9.300  20.110  20.600
   16BOLB   C3A  367   9.230  19.660  20.570
   16BOLB   C4A  368   9.090  19.310  20.630
   16BOLB   C1B  369   9.700  20.810  20.980
   16BOLB   C2B  370   9.730  20.720  20.520
   16BOLB   C3B  371   9.850  20.810  20.120
   16BOLB   C4B  372   9.650  20.640  19.700
   16BOLB   NC2  373   9.330  18.420  22.270
   16BOLB   PO2  374   9.330  18.010  22.480
   16BOLB   GL3  375   9.630  18.010  22.190
   16BOLB   GL4  376   9.920  17.930  22.200
   16BOLB   C1C  377   9.620  18.000  21.740
   16BOLB   C2C  378   9.520  18.370  21.460
   16BOLB   C3C  379   9.160  18.620  21.240
   16BOLB   C4C  380   9.060  18.930  20.920
   16BOLB   C1D  381  10.070  17.830  21.810
   16BOLB   C2D  382  10.000  18.100  21.420
   16BOLB   C3D  383  10.030  18.110  21.020
   16BOLB   C4D  384  10.180  18.250  20.720
   17BOLB   NC1  385  23.670  23.070  19.060
   17BOLB   PO1  386  23.630  22.700  19.150
   17BOLB   GL1  387  23.870  22.700  19.500
   17BOLB   GL2  388  23.690  22.480  19.710
   17BOLB   C1A  389  23.990  22.910  19.830
   17BOLB   C2A  390  24.110  23.020  20.130
   17BOLB   C3A  391  24.370  23.060  20.430
   17BOLB   C4A  392  24.710  22.980  20.680
   17BOLB   C1B  393  23.930  22.120  19.850
   17BOLB   C2B  394  24.090  21.930  20.200
   17BOLB   C3B  395  24.130  21.820  20.620
   17BOLB   C4B  396  24.200  21.530  20.920
   17BOLB   NC2  397  26.440  24.330  22.050
   17BOLB   PO2  398  26.480  24.260  21.670
   17BOLB   GL3  399  26.170  24.200  21.300
   17BOLB   GL4  400  26.390  24.140  21.060
   17BOLB   C1C  401  25.960  23.860  21.040
   17BOLB   C2C  402  25.700  23.540  21.040
   17BOLB   C3C  403  25.390  23.110  20.940
   17BOLB   C4C  404  25.080  22.970  20.810
   17BOLB   C1D  405  26.120  24.400  20.840
   17BOLB   C2D  406  25.870  24.730  20.420
   17BOLB   C3D  407  25.510  24.860  20.290
   17BOLB   C4D  408  25.320  25.180  20.050
   18BOLB   NC1  409  23.210  15.160  21.680
   18BOLB   PO1  410  22.980  14.750  21.730
   18BOLB   GL1  411  22.710  15.060  21.490
   18BOLB   GL2  412  22.720  15.350  21.800
   18BOLB   C1A  413  22.420  14.980  21.080
   18BOLB   C2A  414  22.140  15.020  20.860
   18BOLB   C3A  415  21.970  15.210  20.520
   18BOLB   C4A  416  21.590  15.090  20.450
   18BOLB   C1B  417  22.440  15.620  21.630
   18BOLB   C2B  418  22.340  15.940  21.230
   18BOLB   C3B  419  22.380  15.990  20.770
   18BOLB   C4B  420  22.250  16.370  20.540
   18BOLB   NC2  421  20.890  14.010  23.010
   18BOLB   PO2  422  20.780  14.070  22.660
   18BOLB   GL3  423  20.830  14.350  22.310
   18BOLB   GL4  424  20.710  14.620  22.330
   18BOLB   C1C  425  20.980  14.700  21.920
   18BOLB   C2C  426  20.980  14.930  21.480
   18BOLB   C3C  427  21.110  14.960  21.080
   18BOLB   C4C  428  21.340  14.930  20.720
   18BOLB   C1D  429  20.470  14.740  21.990
   18BOLB   C2D  430  20.470  14.960  21.550
   18BOLB   C3D  431  20.630  15.120  21.170
   18BOLB   C4D  432  20.660  15.050  20.730
   19BOLB   NC1  433  13.080  23.670  18.620
   19BOLB   PO1  434  12.930  23.270  18.620
   19BOLB   GL1  435  12.630  23.230  18.870
   19BOLB   GL2  436  12.640  23.230  19.120
   19BOLB   C1A  437  12.350  23.610  18.980
   19BOLB   C2A  438  12.290  23.860  19.360
   19BOLB   C3A  439  11.940  24.050  19.530
   19BOLB   C4A  440  11.820  24.360  19.770
   19BOLB   C1B  441  12.520  23.170  19.610
   19BOLB   C2B  442  12.130  23.180  19.820
   19BOLB   C3B  443  11.710  23.230  19.820
   19BOLB   C4B  444  11.340  23.110  19.620
   19BOLB   NC2  445   9.770  25.730  20.190
   19BOLB   PO2  446  10.100  25.630  20.560
   19BOLB   GL3  447  10.490  25.710  20.340
   19BOLB   GL4  448  10.280  25.730  20.120
   19BOLB   C1C  449  10.800  25.570  20.190
   19BOLB   C2C  450  10.910  25.240  19.930
   19BOLB   C3C  451  11.300  24.890  20.120
   19BOLB   C4C  452  11.680  24.640  20.030
   19BOLB   C1D  453  10.280  25.380  19.910
   19BOLB   C2D  454  10.360  24.970  19.980
   19BOLB   C3D  455  10.480  24.600  19.800
   19BOLB   C4D  456  10.410  24.350  19.440
   20BOLB   NC1  457  17.070  22.110  20.490
   20BOLB   PO1  458  16.730  22.270  20.120
   20BOLB   GL1  459  16.610  22.390  20.630
   20BOLB   GL2  460  16.860  22.280  20.860
   20BOLB   C1A  461  16.390  22.300  21.010
   20BOLB   C2A  462  16.250  22.140  21.300
   20BOLB   C3A  463  16.340  22.150  21.690
   20BOLB   C4A  464  16.380  22.280  22.160
   20BOLB   C1B  465  16.790  22.180  21.260
   20BOLB   C2B  466  17.130  21.940  21.610
   20BOLB   C3B  467  17.460  21.970  21.820
   20BOLB   C4B  468  17.700  21.840  22.120
   20BOLB   NC2  469  16.350  22.950  24.560
   20BOLB   PO2  470  15.920  22.750  24.440
   20BOLB   GL3  471  16.060  22.840  24.020
   20BOLB   GL4  472  16.430  22.970  23.990
   20BOLB   C1C  473  16.210  22.430  23.840
   20BOLB   C2C  474  16.420  22.330  23.520
   20BOLB   C3C  475  16.500  22.390  23.090
   20BOLB   C4C  476  16.510  22.370  22.500
   20BOLB   C1D  477  16.410  22.830  23.640
   20BOLB   C2D  478  16.290  23.020  23.330
   20BOLB   C3D  479  16.360  22.890  22.890
   20BOLB   C4D  480  16.620  22.950  22.550
   21BOLB   NC1  481  16.250  28.170  17.020
   21BOLB   PO1  482  16.650  28.100  17.270
   21BOLB   GL1  483  16.370  28.500  17.390
   21BOLB   GL2  484  16.560  28.650  17.600
   21BOLB   C1A  485  16.040  28.420  17.570
   21BOLB   C2A  486  15.920  28.710  17.960
   21BOLB   C3A  487  15.540  28.900  18.290
   21BOLB   C4A  488  15.220  29.130  18.370
   21BOLB   C1B  489  16.480  28.970  17.870
   21BOLB   C2B  490  16.640  29.020  18.290
   21BOLB   C3B  491  16.920  29.170  18.590
   21BOLB   C4B  492  17.170  29.360  19.030
   21BOLB   NC2  493  13.490  30.730  19.390
   21BOLB   PO2  494  13.740  30.700  19.080
   21BOLB   GL3  495  14.180  30.520  19.210
   21BOLB   GL4  496  14.370  30.620  19.430
   21BOLB   C1C  497  14.420  30.280  18.950
   21BOLB   C2C  498  14.720  29.980  18.850
   21BOLB   C3C  499  14.780  29.610  18.760
   21BOLB   C4C  500  14.970  29.320  18.600
   21BOLB   C1D  501  14.720  30.470  19.650
   21BOLB   C2D  502  15.140  30.570  19.580
   21BOLB   C3D  503  15.420  30.670  19.180
   21BOLB   C4D  504  15.510  30.260  18.830
   22BOLB   NC1  505   9.440  20.480  14.070
   22BOLB   PO1  506   9.220  20.470  14.450
   22BOLB   GL1  507   9.010  20.040  14.480
   22BOLB   GL2  508   8.740  19.970  14.630
   22BOLB   C1A  509   9.060  19.710  14.240
   22BOLB   C2A  510   8.840  19.560  13.880
   22BOLB   C3A  511   8.470  19.650  13.640
   22BOLB   C4A  512   8.040  19.640  13.590
   22BOLB   C1B  513   8.570  19.720  14.400
   22BOLB   C2B  514   8.620  19.290  14.270
   22BOLB   C3B  515   8.450  19.180  13.930
   22BOLB   C4B  516   7.950  19.060  13.820
   22BOLB   NC2  517   5.620  18.470  13.820
   22BOLB   PO2  518   6.010  18.420  13.530
   22BOLB   GL3  519   6.350  18.630  13.490
   22BOLB   GL4  520   6.460  18.340  13.780
   22BOLB   C1C  521   6.600  18.880  13.730
   22BOLB   C2C  522   6.970  19.080  13.980
   22BOLB   C3C  523   7.420  19.210  14.000
   22BOLB   C4C  524   7.680  19.460  13.750
   22BOLB   C1D  525   6.820  18.350  13.830
   22BOLB   C2D  526   7.080  18.530  14.060
   22BOLB   C3D  527   7.420  18.670  14.360
   22BOLB   C4D  528   7.540  18.450  14.890
   23BOLB   NC1  529  14.130  19.310  19.790
   23BOLB   PO1  530  14.520  19.300  19.880
   23BOLB   GL1  531  14.220  19.570  20.250
   23BOLB   GL2  532  14.090  19.850  20.200
   23BOLB   C1A  533  14.160  19.280  20.600
   23BOLB   C2A  534  14.170  19.350  21.080
   23BOLB   C3A  535  13.880  19.240  21.380
   23BOLB   C4A  536  13.900  19.210  21.780
   23BOLB   C1B  537  13.620  19.880  20.280
   23BOLB   C2B  538  13.310  19.970  20.310
   23BOLB   C3B  539  12.940  19.930  20.700
   23BOLB   C4B  540  12.920  19.860  21.110
   23BOLB   NC2  541  12.920  19.470  23.950
   23BOLB   PO2  542  12.780  19.360  23.580
   23BOLB   GL3  543  12.730  19.360  23.190
   23BOLB   GL4  544  12.510  19.270  23.090
   23BOLB   C1C  545  13.060  19.180  22.880
   23BOLB   C2C  546  13.490  19.180  22.770
   23BOLB   C3C  547  13.770  19.590  22.490
   23BOLB   C4C  548  13.750  19.560  22.100
   23BOLB   C1D  549  12.260  19.420  22.820
   23BOLB   C2D  550  12.310  19.660  22.470
   23BOLB   C3D  551  12.370  19.590  21.990
   23BOLB   C4D  552  12.310  19.510  21.550
   24BOLB   NC1  553  10.400  10.460  10.470
   24BOLB   PO1  554  10.790  10.340  10.700
   24BOLB   GL1  555  11.330  10.510  10.890
   24BOLB   GL2  556  11.590  10.350  11.020
   24BOLB   C1A  557  11.550  10.850  10.970
   24BOLB   C2A  558  11.650  11.310  10.980
   24BOLB   C3A  559  11.640  11.760  11.020
   24BOLB   C4A  560  11.500  12.140  10.930
   24BOLB   C1B  561  12.050  10.350  11.150
   24BOLB   C2B  562  12.390  10.460  11.280
   24BOLB   C3B  563  12.810  10.510  11.480
   24BOLB   C4B  564  13.310  10.540  11.370
   24BOLB   NC2  565   9.530  12.790  11.530
   24BOLB   PO2  566   9.900  12.460  11.370
   24BOLB   GL3  567  10.270  12.670  11.700
   24BOLB   GL4  568  10.370  12.590  12.090
   24BOLB   C1C  569  10.680  13.100  11.640
   24BOLB   C2C  570  10.910  13.090  11.210
   24BOLB   C3C  571  11.080  12.830  11.000
   24BOLB   C4C  572  11.370  12.610  10.750
   24BOLB   C1D  573  10.770  12.680  12.120
   24BOLB   C2D  574  11.260  12.790  12.060
   24BOLB   C3D  575  11.600  13.020  12.110
   24BOLB   C4D  576  11.820  13.410  12.120
   25BOLB   NC1  577  14.620  26.690  17.350
   25BOLB   PO1  578  14.720  27.190  17.310
   25BOLB   GL1  579  14.640  27.580  17.620
   25BOLB   GL2  580  14.590  27.860  17.360
   25BOLB   C1A  581  14.640  27.800  17.970
   25BOLB   C2A  582  14.840  27.900  18.490
   25BOLB   C3A  583  14.770  28.270  18.760
   25BOLB   C4A  584  14.860  28.620  19.100
   25BOLB   C1B  585  14.320  28.280  17.270
   25BOLB   C2B  586  13.860  28.360  17.310
   25BOLB   C3B  587  13.670  28.280  17.700
   25BOLB   C4B  588  13.340  28.370  17.930
   25BOLB   NC2  589  15.300  29.980  20.860
   25BOLB   PO2  590  15.710  30.280  20.750
   25BOLB   GL3  591  15.610  30.010  20.390
   25BOLB   GL4  592  15.870  29.960  20.290
   25BOLB   C1C  593  15.510  29.760  20.040
   25BOLB   C2C  594  15.630  29.410  19.740
   25BOLB   C3C  595  15.360  29.240  19.480
   25BOLB   C4C  596  15.080  28.940  19.300
   25BOLB   C1D  597  15.950  29.840  19.780
   25BOLB   C2D  598  15.950  29.660  19.380
   25BOLB   C3D  599  15.630  29.670  19.100
   25BOLB   C4D  600  15.280  29.800  18.820
   26BOLB   NC1  601   5.920  17.590  19.040
   26BOLB   PO1  602   5.880  17.880  18.680
   26BOLB   GL1  603   6.270  17.940  18.660
   26BOLB   GL2  604   6.450  17.860  19.000
   26BOLB   C1A  605   6.620  17.740  18.440
   26BOLB   C2A  606   7.070  17.660  18.330
   26BOLB   C3A  607   7.450  17.530  18.070
   26BOLB   C4A  608   7.820  17.730  18.190
   26BOLB   C1B  609   6.840  17.630  19.070
   26BOLB   C2B  610   7.320  17.740  19.160
   26BOLB   C3B  611   7.590  18.110  19.050
   26BOLB   C4B  612   8.000  18.150  19.090
   26BOLB   NC2  613  10.060  19.080  17.520
   26BOLB   PO2  614   9.760  18.970  17.280
   26BOLB   GL3  615   9.320  18.920  17.170
   26BOLB   GL4  616   9.160  19.100  17.050
   26BOLB   C1C  617   8.900  18.770  17.260
   26BOLB   C2C  618   8.450  18.680  17.310
   26BOLB   C3C  619   8.050  18.430  17.730
   26BOLB   C4C  620   8.040  18.030  18.090
   26BOLB   C1D  621   8.730  19.140  16.960
   26BOLB   C2D  622   8.270  19.110  16.910
   26BOLB   C3D  623   7.880  19.470  16.990
   26BOLB   C4D  624   7.840  19.840  17.230
   27BOLB   NC1  625  19.330  30.120  14.210
   27BOLB   PO1  626  19.120  30.220  13.800
   27BOLB   GL1  627  19.250  30.610  14.100
   27BOLB   GL2  628  19.010  30.810  14.000
   27BOLB   C1A  629  19.500  30.830  14.270
   27BOLB   C2A  630  19.620  31.260  14.370
   27BOLB   C3A  631  19.660  31.630  14.110
   27BOLB   C4A  632  19.600  32.020  14.070
   27BOLB   C1B  633  19.310  31.090  13.840
   27BOLB   C2B  634  19.740  31.260  13.750
   27BOLB   C3B  635  20.060  31.610  13.620
   27BOLB   C4B  636  20.330  31.890  13.550
   27BOLB   NC2  637  19.900  34.240  14.110
   27BOLB   PO2  638  19.520  34.280  14.310
   27BOLB   GL3  639  19.620  33.830  14.190
   27BOLB   GL4  640  19.770  33.590  14.390
   27BOLB   C1C  641  19.590  33.470  13.880
   27BOLB   C2C  642  19.670  33.120  13.830
   27BOLB   C3C  643  19.580  32.800  13.840
   27BOLB   C4C  644  19.750  32.420  13.900
   27BOLB   C1D  645  19.670  33.170  14.360
   27BOLB   C2D  646  19.660  32.800  14.280
   27BOLB   C3D  647  19.470  32.440  14.310
   27BOLB   C4D  648  19.610  32.110  14.560
   28BOLB   NC1  649  15.040  21.830  24.020
   28BOLB   PO1  650  14.770  21.510  24.100
   28BOLB   GL1  651  14.550  21.340  23.690
   28BOLB   GL2  652  14.750  21.430  23.530
   28BOLB   C1A  653  14.330  21.530  23.310
   28BOLB   C2A  654  14.520  21.460  22.890
   28BOLB   C3A  655  14.860  21.330  22.590
   28BOLB   C4A  656  14.930  21.010  22.250
   28BOLB   C1B  657  14.920  21.280  23.110
   28BOLB   C2B  658  15.340  21.330  22.980
   28BOLB   C3B  659  15.770  21.350  22.810
   28BOLB   C4B  660  16.160  21.070  22.920
   28BOLB   NC2  661  15.870  19.800  19.750
   28BOLB   PO2  662  15.450  20.000  20.050
   28BOLB   GL3  663  15.570  20.010  20.520
   28BOLB   GL4  664  15.680  20.280  20.610
   28BOLB   C1C  665  15.360  20.090  20.970
   28BOLB   C2C  666  15.220  20.440  21.300
   28BOLB   C3C  667  15.120  20.590  21.680
   28BOLB   C4C  668  15.180  20.760  22.020
   28BOLB   C1D  669  15.560  20.570  20.800
   28BOLB   C2D  670  15.370  20.920  20.960
   28BOLB   C3D  671  15.270  21.040  21.390
   28BOLB   C4D  672  15.200  21.200  21.760
   29BOLB   NC1  673  16.740  29.780  11.400
   29BOLB   PO1  674  17.160  29.780  11.490
   29BOLB   GL1  675  16.950  30.260  11.560
   29BOLB   GL2  676  16.600  30.180  11.680
   29BOLB   C1A  677  16.780  30.600  11.530
   29BOLB   C2A  678  16.850  31.040  11.520
   29BOLB   C3A  679  16.830  31.620  11.670
   29BOLB   C4A  680  16.670  31.980  11.830
   29BOLB   C1B  681  16.320  30.470  11.400
   29BOLB   C2B  682  16.040  30.640  11.170
   29BOLB   C3B  683  16.010  31.060  11.070
   29BOLB   C4B  684  15.810  31.390  11.330
   29BOLB   NC2  685  16.470  34.060  11.690
   29BOLB   PO2  686  16.110  34.210  11.900
   29BOLB   GL3  687  16.070  33.770  11.770
   29BOLB   GL4  688  16.110  33.680  11.400
   29BOLB   C1C  689  16.220  33.350  11.860
   29BOLB   C2C  690  16.010  33.010  11.960
   29BOLB   C3C  691  16.180  32.600  12.050
   29BOLB   C4C  692  16.340  32.180  12.020
   29BOLB   C1D  693  16.330  33.190  11.340
   29BOLB   C2D  694  16.470  32.850  11.660
   29BOLB   C3D  695  16.650  32.490  11.790
   29BOLB   C4D  696  17.060  32.480  12.120
   30BOLB   NC1  697  24.270  26.890  17.350
   30BOLB   PO1  698  24.110  26.740  17.770
   30BOLB   GL1  699  24.550  26.810  17.760
   30BOLB   GL2  700  24.570  26.660  18.020
   30BOLB   C1A  701  24.850  27.110  17.880
   30BOLB   C2A  702  25.090  27.040  18.260
   30BOLB   C3A  703  25.330  26.790  18.530
   30BOLB   C4A  704  25.590  26.800  18.840
   30BOLB   C1B  705  25.010  26.520  18.080
   30BOLB   C2B  706  25.280  26.350  18.260
   30BOLB   C3B  707  25.520  26.340  18.670
   30BOLB   C4B  708  25.900  26.390  18.800
   30BOLB   NC2  709  26.040  28.480  20.620
   30BOLB   PO2  710  26.330  28.290  20.370
   30BOLB   GL3  711  25.910  28.080  20.320
   30BOLB   GL4  712  25.790  28.190  20.080
   30BOLB   C1C  713  25.950  27.650  20.110
   30BOLB   C2C  714  26.110  27.370  19.860
   30BOLB   C3C  715  26.090  27.130  19.430
   30BOLB   C4C  716  25.810  26.790  19.190
   30BOLB   C1D  717  25.740  28.250  19.570
   30BOLB   C2D  718  25.730  28.140  19.170
   30BOLB   C3D  719  25.780  27.760  18.870
   30BOLB   C4D  720  25.690  27.370  18.600
   31BOLB   NC1  721  12.660  18.810  19.010
   31BOLB   PO1  722  12.510  19.200  19.140
   31BOLB   GL1  723  12.280  19.270  19.520
   31BOLB   GL2  724  12.050  19.460  19.490
   31BOLB   C1A  725  12.200  19.170  19.920
   31BOLB   C2A  726  11.970  19.030  20.290
   31BOLB   C3A  727  11.810  18.810  20.610
   31BOLB   C4A  728  11.790  18.940  21.080
   31BOLB   C1B  729  11.820  19.520  19.790
   31BOLB   C2B  730  11.560  19.470  20.130
   31BOLB   C3B  731  11.170  19.470  20.440
   31BOLB   C4B  732  10.760  19.480  20.540
   31BOLB   NC2  733  10.920  19.880  23.070
   31BOLB   PO2  734  11.160  19.590  23.190
   31BOLB   GL3  735  11.350  19.510  22.720
   31BOLB   GL4  736  11.170  19.470  22.390
   31BOLB   C1C  737  11.670  19.430  22.560
   31BOLB   C2C  738  12.060  19.270  22.250
   31BOLB   C3C  739  12.120  19.110  21.800
   31BOLB   C4C  740  12.000  18.980  21.430
   31BOLB   C1D  741  11.350  19.600  22.020
   31BOLB   C2D  742  11.120  19.470  21.680
   31BOLB   C3D  743  10.920  19.320  21.440
   31BOLB   C4D  744  10.590  19.230  21.290
   32BOLB   NC1  745  13.540  12.630  13.620
   32BOLB   PO1  746  13.340  12.900  13.260
   32BOLB   GL1  747  12.840  13.000  13.270
   32BOLB   GL2  748  12.650  12.850  13.540
   32BOLB   C1A  749  12.520  13.030  13.000
   32BOLB   C2A  750  12.070  12.880  13.020
   32BOLB   C3A  751  11.840  12.680  13.120
   32BOLB   C4A  752  11.710  12.250  13.260
   32BOLB   C1B  753  12.420  12.580  13.310
   32BOLB   C2B  754  12.060  12.310  13.610
   32BOLB   C3B  755  11.670  12.290  13.780
   32BOLB   C4B  756  11.270  12.080  13.690
   32BOLB   NC2  757  10.520  10.080  13.310
   32BOLB   PO2  758  10.510  10.050  13.750
   32BOLB   GL3  759  10.750  10.430  13.800
   32BOLB   GL4  760  10.920  10.180  14.000
   32BOLB   C1C  761  11.110  10.680  13.730
   32BOLB   C2C  762  11.310  11.090  13.690
   32BOLB   C3C  763  11.460  11.480  13.650
   32BOLB   C4C  764  11.740  11.810  13.520
   32BOLB   C1D  765  11.190  10.380  14.190
   32BOLB   C2D  766  11.460  10.460  14.590
   32BOLB   C3D  767  11.660  10.660  14.920
   32BOLB   C4D  768  11.960  11.010  14.970
   33BOLB   NC1  769  10.660  30.790  14.700
   33BOLB   PO1  770  10.680  30.660  15.150
   33BOLB   GL1  771  10.990  30.440  15.120
   33BOLB   GL2  772  10.970  30.150  15.200
   33BOLB   C1A  773  11.380  30.420  14.910
   33BOLB   C2A  774  11.680  30.210  14.730
   33BOLB   C3A  775  11.760  29.980  14.460
   33BOLB   C4A  776  11.810  29.760  14.000
   33BOLB   C1B  777  11.270  29.940  15.080
   33BOLB   C2B  778  11.610  29.850  15.140
   33BOLB   C3B  779  11.770  29.660  14.890
   33BOLB   C4B  780  12.090  29.480  14.560
   33BOLB   NC2  781   9.320  29.800  14.650
   33BOLB   PO2  782   9.750  29.620  14.530
   33BOLB   GL3  783  10.000  29.490  14.310
   33BOLB   GL4  784   9.950  29.170  14.180
   33BOLB   C1C  785  10.420  29.430  14.180
   33BOLB   C2C  786  10.830  29.280  13.880
   33BOLB   C3C  787  11.330  29.130  13.890
   33BOLB   C4C  788  11.640  29.380  13.760
   33BOLB   C1D  789  10.260  28.990  14.150
   33BOLB   C2D  790  10.660  28.750  13.870
   33BOLB   C3D  791  10.800  28.360  13.840
   33BOLB   C4D  792  10.980  27.990  13.870
   34BOLB   NC1  793  16.070  34.190  12.400
   34BOLB   PO1  794  15.870  33.820  12.280
   34BOLB   GL1  795  16.050  33.490  12.290
   34BOLB   GL2  796  16.200  33.480  12.550
   34BOLB   C1A  797  16.360  33.090  12.320
   34BOLB   C2A  798  16.710  32.890  12.080
   34BOLB   C3A  799  17.030  32.880  11.870
   34BOLB   C4A  800  17.240  32.890  11.440
   34BOLB   C1B  801  16.150  33.130  12.820
   34BOLB   C2B  802  16.410  32.760  12.770
   34BOLB   C3B  803  16.520  32.340  12.470
   34BOLB   C4B  804  16.880  31.980  12.280
   34BOLB   NC2  805  18.230  33.780  10.180
   34BOLB   PO2  806  18.490  33.910  10.590
   34BOLB   GL3  807  18.340  33.610  10.880
   34BOLB   GL4  808  18.100  33.420  10.890
   34BOLB   C1C  809  18.640  33.220  11.040
   34BOLB   C2C  810  18.410  32.850  10.970
   34BOLB   C3C  811  18.010  32.650  11.090
   34BOLB   C4C  812  17.730  32.750  11.380
   34BOLB   C1D  813  17.950  33.100  10.910
   34BOLB   C2D  814  17.990  32.880  10.530
   34BOLB   C3D  815  18.140  32.360  10.640
   34BOLB   C4D  816  18.310  31.960  10.770
   35BOLB   NC1  817  19.350  29.740  15.780
   35BOLB   PO1  818  19.050  29.650  16.130
   35BOLB   GL1  819  18.800  30.060  16.330
   35BOLB   GL2  820  18.830  30.030  16.730
   35BOLB   C1A  821  18.730  30.480  16.400
   35BOLB   C2A  822  18.630  30.810  16.670
   35BOLB   C3A  823  18.330  31.150  16.890
   35BOLB   C4A  824  18.060  31.330  17.110
   35BOLB   C1B  825  18.770  30.190  17.200
   35BOLB   C2B  826  18.630  30.340  17.610
   35BOLB   C3B  827  18.300  30.680  17.700
   35BOLB   C4B  828  17.910  30.930  17.720
   35BOLB   NC2  829  18.390  33.190  18.440
   35BOLB   PO2  830  18.700  32.810  18.380
   35BOLB   GL3  831  18.490  32.440  18.010
   35BOLB   GL4  832  18.690  32.340  18.160
   35BOLB   C1C  833  18.060  32.240  17.940
   35BOLB   C2C  834  18.100  31.780  17.930
   35BOLB   C3C  835  18.140  31.360  17.900
   35BOLB   C4C  836  17.910  31.310  17.440
   35BOLB   C1D  837  18.690  31.970  17.820
   35BOLB   C2D  838  18.890  31.650  17.540
   35BOLB   C3D  839  18.870  31.180  17.700
   35BOLB   C4D  840  18.800  30.820  17.780
   36BOLB   NC1  841  25.420  20.240  16.850
   36BOLB   PO1  842  25.440  20.470  16.340
   36BOLB   GL1  843  25.800  20.500  16.500
   36BOLB   GL2  844  26.050  20.460  16.220
   36BOLB   C1A  845  26.210  20.210  16.690
   36BOLB   C2A  846  26.670  20.220  16.830
   36BOLB   C3A  847  27.080  20.150  16.910
   36BOLB   C4A  848  27.320  19.890  16.610
   36BOLB   C1B  849  26.520  20.250  16.240
   36BOLB   C2B  850  26.880  20.090  16.400
   36BOLB   C3B  851  26.980  19.730  16.240
   36BOLB   C4B  852  27.210  19.400  16.060
   36BOLB   NC2  853  29.850  19.080  16.410
   36BOLB   PO2  854  29.440  19.180  16.730
   36BOLB   GL3  855  29.110  19.110  16.570
   36BOLB   GL4  856  28.960  19.450  16.480
   36BOLB   C1C  857  28.600  19.150  16.740
   36BOLB   C2C  858  28.340  19.430  16.710
   36BOLB   C3C  859  27.910  19.320  16.660
   36BOLB   C4C  860  27.550  19.530  16.600
   36BOLB   C1D  861  29.090  19.710  16.170
   36BOLB   C2D  862  28.920  20.090  16.080
   36BOLB   C3D  863  28.840  20.250  16.360
   36BOLB   C4D  864  28.830  20.380  16.760
   37BOLB   NC1  865  20.190  25.190  20.330
   37BOLB   PO1  866  20.500  25.440  20.200
   37BOLB   GL1  867  20.530  25.440  20.540
   37BOLB   GL2  868  20.300  25.210  20.830
   37BOLB   C1A  869  20.640  25.600  20.990
   37BOLB   C2A  870  20.710  25.530  21.420
   37BOLB   C3A  871  20.530  25.190  21.630
   37BOLB   C4A  872  20.500  25.240  22.040
   37BOLB   C1B  873  20.270  24.790  21.010
   37BOLB   C2B  874  20.250  24.830  21.400
   37BOLB   C3B  875  19.960  24.790  21.760
   37BOLB   C4B  876  19.850  24.620  22.190
   37BOLB   NC2  877  19.360  26.100  24.030
   37BOLB   PO2  878  19.850  26.140  24.030
   37BOLB   GL3  879  19.700  26.090  23.630
   37BOLB   GL4  880  19.680  26.420  23.570
   37BOLB   C1C  881  20.040  25.940  23.260
   37BOLB   C2C  882  20.430  26.010  23.000
   37BOLB   C3C  883  20.580  25.710  22.720
   37BOLB   C4C  884  20.490  25.520  22.420
   37BOLB   C1D  885  19.530  26.100  23.150
   37BOLB   C2D  886  19.500  25.950  22.680
   37BOLB   C3D  887  19.060  25.840  22.540
   37BOLB   C4D  888  18.960  25.750  22.090
   38BOLB   NC1  889  19.030  29.230  16.520
   38BOLB   PO1  890  19.020  29.580  16.820
   38BOLB   GL1  891  19.190  29.800  17.030
   38BOLB   GL2  892  19.290  30.070  16.920
   38BOLB   C1A  893  19.550  29.820  17.330
   38BOLB   C2A  894  19.580  29.990  17.670
   38BOLB   C3A  895  19.440  30.200  17.820
   38BOLB   C4A  896  19.500  30.330  18.230
   38BOLB   C1B  897  19.230  30.410  17.250
   38BOLB   C2B  898  19.130  30.500  17.680
   38BOLB   C3B  899  19.280  30.720  18.030
   38BOLB   C4B  900  19.120  30.910  18.300
   38BOLB   NC2  901  19.330  31.450  20.530
   38BOLB   PO2  902  19.560  31.550  20.140
   38BOLB   GL3  903  19.640  31.410  19.800
   38BOLB   GL4  904  19.880  31.130  19.880
   38BOLB   C1C  905  19.830  31.350  19.360
   38BOLB   C2C  906  19.720  31.270  18.920
   38BOLB   C3C  907  19.490  31.160  18.570
   38BOLB   C4C  908  19.600  30.670  18.460
   38BOLB   C1D  909  20.200  31.070  19.530
   38BOLB   C2D  910  20.360  30.650  19.440
   38BOLB   C3D  911  20.050  30.210  19.570
   38BOLB   C4D  912  20.000  29.780  19.540
   39BOLB   NC1  913  22.630  28.470  16.890
   39BOLB   PO1  914  22.890  28.200  17.210
   39BOLB   GL1  915  23.040  28.500  17.470
   39BOLB   GL2  916  23.280  28.250  17.590
   39BOLB   C1A  917  23.050  28.900  17.630
   39BOLB   C2A  918  23.170  29.140  17.970
   39BOLB   C3A  919  23.280  29.620  17.840
   39BOLB   C4A  920  23.310  30.140  17.900
   39BOLB   C1B  921  23.450  28.610  17.800
   39BOLB   C2B  922  23.840  28.840  17.910
   39BOLB   C3B  923  24.230  28.850  17.970
   39BOLB   C4B  924  24.470  28.760  17.700
   39BOLB   NC2  925  22.970  32.240  18.540
   39BOLB   PO2  926  23.170  32.470  18.230
   39BOLB   GL3  927  23.020  32.080  18.050
   39BOLB   GL4  928  22.720  31.830  18.270
   39BOLB   C1C  929  23.190  31.650  17.920
   39BOLB   C2C  930  22.940  31.240  17.800
   39BOLB   C3C  931  22.930  30.860  17.810
   39BOLB   C4C  932  23.290  30.600  17.910
   39BOLB   C1D  933  22.610  31.630  17.840
   39BOLB   C2D  934  22.420  31.480  17.600
   39BOLB   C3D  935  22.180  31.240  17.370
   39BOLB   C4D  936  21.920  30.960  17.530
   40BOLB   NC1  937  18.020  19.210  19.840
   40BOLB   PO1  938  17.740  19.410  20.020
   40BOLB   GL1  939  17.590  19.400  20.430
   40BOLB   GL2  940  17.810  19.340  20.650
   40BOLB   C1A  941  17.380  19.530  20.850
   40BOLB   C2A  942  17.220  19.630  21.320
   40BOLB   C3A  943  17.080  19.350  21.660
   40BOLB   C4A  944  17.070  19.390  22.100
   40BOLB   C1B  945  18.020  19.270  21.080
   40BOLB   C2B  946  18.320  19.100  21.320
   40BOLB   C3B  947  18.450  19.030  21.670
   40BOLB   C4B  948  18.760  18.810  22.020
   40BOLB   NC2  949  16.810  19.700  24.200
   40BOLB   PO2  950  16.460  19.930  24.320
   40BOLB   GL3  951  16.600  20.080  23.910
   40BOLB   GL4  952  16.610  19.790  23.630
   40BOLB   C1C  953  16.890  20.170  23.590
   40BOLB   C2C  954  16.900  19.950  23.240
   40BOLB   C3C  955  17.030  19.890  22.820
   40BOLB   C4C  956  17.000  19.550  22.440
   40BOLB   C1D  957  16.300  20.010  23.480
   40BOLB   C2D  958  16.420  19.840  23.110
   40BOLB   C3D  959  16.610  19.660  22.790
   40BOLB   C4D  960  16.540  19.210  22.700
   41BOLB   NC1  961   8.750  21.930  11.890
   41BOLB   PO1  962   8.770  22.020  12.260
   41BOLB   GL1  963   8.460  21.830  12.270
   41BOLB   GL2  964   8.170  21.980  12.490
   41BOLB   C1A  965   8.000  21.780  12.080
   41BOLB   C2A  966   7.720  21.510  11.840
   41BOLB   C3A  967   7.420  21.170  11.910
   41BOLB   C4A  968   7.140  21.010  12.210
   41BOLB   C1B  969   7.920  21.710  12.670
   41BOLB   C2B  970   7.630  21.440  12.890
   41BOLB   C3B  971   7.490  20.910  12.950
   41BOLB   C4B  972   7.790  20.640  12.810
   41BOLB   NC2  973   5.940  18.720  11.370
   41BOLB   PO2  974   5.880  19.070  11.080
   41BOLB   GL3  975   6.200  19.480  11.010
   41BOLB   GL4  976   6.190  19.800  10.840
   41BOLB   C1C  977   6.310  19.800  11.350
   41BOLB   C2C  978   6.460  20.120  11.720
   41BOLB   C3C  979   6.670  20.270  12.130
   41BOLB   C4C  980   6.880  20.620  12.280
   41BOLB   C1D  981   6.640  19.720  10.880
   41BOLB   C2D  982   6.980  19.900  11.110
   41BOLB   C3D  983   7.110  20.120  11.480
   41BOLB   C4D  984   7.500  20.120  11.780
   42BOLB   NC1  985  11.740  26.250  13.970
   42BOLB   PO1  986  11.830  26.410  13.610
   42BOLB   GL1  987  11.670  26.810  13.830
   42BOLB   GL2  988  11.410  26.780  13.720
   42BOLB   C1A  989  11.830  27.290  14.100
   42BOLB   C2A  990  11.560  27.660  14.330
   42BOLB   C3A  991  11.230  27.860  14.270
   42BOLB   C4A  992  10.800  28.050  14.340
   42BOLB   C1B  993  11.270  27.070  14.030
   42BOLB   C2B  994  11.200  27.280  14.370
   42BOLB   C3B  995  10.780  27.270  14.510
   42BOLB   C4B  996  10.440  27.540  14.680
   42BOLB   NC2  997   8.790  29.540  14.680
   42BOLB   PO2  998   8.890  29.090  14.690
   42BOLB   GL3  999   9.380  28.890  14.630
   42BOLB   GL4 1000   9.650  29.110  14.570
   42BOLB   C1C 1001   9.520  28.470  14.740
   42BOLB   C2C 1002   9.890  28.260  14.590
   42BOLB   C3C 1003  10.290  28.170  14.820
   42BOLB   C4C 1004  10.620  28.250  14.680
   42BOLB   C1D 1005   9.810  28.750  14.380
   42BOLB   C2D 1006   9.960  28.590  14.000
   42BOLB   C3D 1007  10.260  28.320  13.750
   42BOLB   C4D 1008  10.480  27.930  13.860
   43BOLB   NC1 1009  14.570  27.970  22.000
   43BOLB   PO1 1010  14.220  27.630  22.200
   43BOLB   GL1 1011  14.290  27.170  21.900
   43BOLB   GL2 1012  14.650  27.050  21.870
   43BOLB   C1A 1013  14.330  26.680  21.760
   43BOLB   C2A 1014  14.440  26.530  21.340
   43BOLB   C3A 1015  14.260  26.330  21.010
   43BOLB   C4A 1016  14.090  26.390  20.540
   43BOLB   C1B 1017  14.870  27.140  21.460
   43BOLB   C2B 1018  14.980  27.450  21.170
   43BOLB   C3B 1019  14.640  27.660  20.950
   43BOLB   C4B 1020  14.370  27.720  21.060
   43BOLB   NC2 1021  15.440  25.140  18.450
   43BOLB   PO2 1022  14.980  25.050  18.620
   43BOLB   GL3 1023  14.800  25.410  18.990
   43BOLB   GL4 1024  14.400  25.240  19.030
   43BOLB   C1C 1025  14.730  25.600  19.230
   43BOLB   C2C 1026  14.660  25.600  19.620
   43BOLB   C3C 1027  14.340  25.950  19.810
   43BOLB   C4C 1028  14.220  26.240  20.080
   43BOLB   C1D 1029  14.210  25.350  19.370
   43BOLB   C2D 1030  14.190  25.470  19.770
   43BOLB   C3D 1031  14.130  25.740  20.240
   43BOLB   C4D 1032  14.200  25.950  20.670
   44BOLB   NC1 1033  19.220  27.750  18.600
   44BOLB   PO1 1034  19.250  27.340  18.810
   44BOLB   GL1 1035  19.350  27.500  19.260
   44BOLB   GL2 1036  19.230  27.770  19.190
   44BOLB   C1A 1037  19.450  27.630  19.640
   44BOLB   C2A 1038  19.460  27.860  20.100
   44BOLB   C3A 1039  19.250  28.070  20.530
   44BOLB   C4A 1040  19.130  28.070  20.990
   44BOLB   C1B 1041  19.150  28.030  19.560
   44BOLB   C2B 1042  18.990  28.210  19.990
   44BOLB   C3B 1043  19.070  28.520  20.330
   44BOLB   C4B 1044  19.170  28.890  20.220
   44BOLB   NC2 1045  18.240  27.860  23.320
   44BOLB   PO2 1046  18.620  27.690  23.230
   44BOLB   GL3 1047  18.600  27.580  22.800
   44BOLB   GL4 1048  18.880  27.350  22.870
   44BOLB   C1C 1049  18.440  27.500  22.320
   44BOLB   C2C 1050  18.410  27.400  21.950
   44BOLB   C3C 1051  18.710  27.520  21.530
   44BOLB   C4C 1052  18.990  27.630  21.110
   44BOLB   C1D 1053  18.870  27.280  22.370
   44BOLB   C2D 1054  18.830  27.160  22.050
   44BOLB   C3D 1055  18.520  27.080  21.610
   44BOLB   C4D 1056  18.200  27.250  21.410
   45BOLB   NC1 1057  10.440  23.960  15.520
   45BOLB   PO1 1058  10.600  24.340  15.310
   45BOLB   GL1 1059  10.430  24.730  15.430
   45BOLB   GL2 1060  10.630  24.910  15.660
   45BOLB   C1A 1061  10.030  24.700  15.510
   45BOLB   C2A 1062   9.740  24.930  15.760
   45BOLB   C3A 1063   9.450  25.320  15.930
   45BOLB   C4A 1064   9.200  25.730  15.760
   45BOLB   C1B 1065  10.250  24.970  15.830
   45BOLB   C2B 1066   9.970  25.350  15.820
   45BOLB   C3B 1067   9.880  25.660  15.570
   45BOLB   C4B 1068   9.600  25.840  15.430
   45BOLB   NC2 1069   7.780  27.530  16.100
   45BOLB   PO2 1070   7.530  27.240  15.940
   45BOLB   GL3 1071   8.000  27.130  15.930
   45BOLB   GL4 1072   8.020  26.870  15.870
   45BOLB   C1C 1073   8.420  27.060  16.120
   45BOLB   C2C 1074   8.730  26.810  16.010
   45BOLB   C3C 1075   9.000  26.520  15.850
   45BOLB   C4C 1076   9.160  26.130  15.670
   45BOLB   C1D 1077   8.400  26.750  15.670
   45BOLB   C2D 1078   8.520  26.380  15.700
   45BOLB   C3D 1079   8.710  26.130  15.420
   45BOLB   C4D 1080   8.970  25.950  15.130
   46BOLB   NC1 1081  17.740  26.440  19.670
   46BOLB   PO1 1082  18.130  26.700  19.710
   46BOLB   GL1 1083  17.990  26.770  20.100
   46BOLB   GL2 1084  18.180  26.750  20.320
   46BOLB   C1A 1085  17.720  26.990  20.290
   46BOLB   C2A 1086  17.700  27.260  20.590
   46BOLB   C3A 1087  17.480  27.410  20.740
   46BOLB   C4A 1088  17.430  27.650  20.910
   46BOLB   C1B 1089  18.180  27.030  20.550
   46BOLB   C2B 1090  18.140  27.160  20.890
   46BOLB   C3B 1091  18.320  27.620  21.060
   46BOLB   C4B 1092  18.580  28.010  20.970
   46BOLB   NC2 1093  16.700  29.490  22.220
   46BOLB   PO2 1094  16.850  29.210  22.510
   46BOLB   GL3 1095  16.740  28.920  22.180
   46BOLB   GL4 1096  16.460  28.900  22.000
   46BOLB   C1C 1097  16.800  28.620  21.790
   46BOLB   C2C 1098  16.890  28.470  21.400
   46BOLB   C3C 1099  17.090  28.140  21.190
   46BOLB   C4C 1100  17.210  28.030  20.850
   46BOLB   C1D 1101  16.310  28.630  21.630
   46BOLB   C2D 1102  16.430  28.350  21.230
   46BOLB   C3D 1103  16.600  28.150  20.850
   46BOLB   C4D 1104  16.410  27.760  20.600
   47BOLB   NC1 1105   6.610  18.270  12.500
   47BOLB   PO1 1106   6.790  18.500  12.130
   47BOLB   GL1 1107   6.810  18.830  12.270
   47BOLB   GL2 1108   6.890  18.780  12.590
   47BOLB   C1A 1109   7.040  19.080  12.060
   47BOLB   C2A 1110   7.240  19.460  12.170
   47BOLB   C3A 1111   7.370  19.860  12.250
   47BOLB   C4A 1112   7.650  20.090  12.510
   47BOLB   C1B 1113   7.190  18.990  12.590
   47BOLB   C2B 1114   7.530  19.030  12.470
   47BOLB   C3B 1115   7.930  19.190  12.390
   47BOLB   C4B 1116   8.240  19.500  12.250
   47BOLB   NC2 1117   5.510  19.460  12.730
   47BOLB   PO2 1118   5.810  19.440  12.430
   47BOLB   GL3 1119   6.260  19.310  12.550
   47BOLB   GL4 1120   6.420  19.070  12.500
   47BOLB   C1C 1121   6.520  19.620  12.830
   47BOLB   C2C 1122   6.830  20.010  12.990
   47BOLB   C3C 1123   7.260  19.930  13.070
   47BOLB   C4C 1124   7.640  20.140  12.950
   47BOLB   C1D 1125   6.770  19.310  12.400
   47BOLB   C2D 1126   6.750  19.540  12.070
   47BOLB   C3D 1127   6.950  19.870  11.970
   47BOLB   C4D 1128   7.110  20.290  11.990
   48BOLB   NC1 1129  12.820  26.920  13.420
   48BOLB   PO1 1130  12.650  26.730  13.070
   48BOLB   GL1 1131  12.360  27.040  13.270
   48BOLB   GL2 1132  12.190  27.170  12.990
   48BOLB   C1A 1133  11.980  27.190  13.650
   48BOLB   C2A 1134  11.550  27.270  13.600
   48BOLB   C3A 1135  11.260  27.590  13.830
   48BOLB   C4A 1136  10.780  27.570  14.070
   48BOLB   C1B 1137  11.890  27.340  13.170
   48BOLB   C2B 1138  11.730  27.630  13.330
   48BOLB   C3B 1139  11.360  27.690  13.330
   48BOLB   C4B 1140  10.960  27.640  13.470
   48BOLB   NC2 1141   8.460  28.740  14.940
   48BOLB   PO2 1142   8.530  28.760  14.480
   48BOLB   GL3 1143   8.730  28.340  14.660
   48BOLB   GL4 1144   8.460  28.250  14.870
   48BOLB   C1C 1145   9.070  28.080  14.680
   48BOLB   C2C 1146   9.530  27.900  14.480
   48BOLB   C3C 1147   9.900  27.590  14.360
   48BOLB   C4C 1148  10.330  27.450  14.160
   48BOLB   C1D 1149   8.200  27.890  14.800
   48BOLB   C2D 1150   8.360  27.410  14.790
   48BOLB   C3D 1151   8.230  27.220  14.460
   48BOLB   C4D 1152   8.340  26.860  14.180
   49BOLB   NC1 1153  21.570  28.290  17.830
   49BOLB   PO1 1154  21.980  28.460  17.550
   49BOLB   GL1 1155  22.190  28.820  17.750
   49BOLB   GL2 1156  22.450  28.980  17.560
   49BOLB   C1A 1157  22.140  29.250  17.800
   49BOLB   C2A 1158  22.440  29.360  18.270
   49BOLB   C3A 1159  22.860  29.500  18.110
   49BOLB   C4A 1160  23.200  29.520  18.330
   49BOLB   C1B 1161  22.680  29.220  17.650
   49BOLB   C2B 1162  22.820  29.620  17.570
   49BOLB   C3B 1163  22.860  29.990  17.730
   49BOLB   C4B 1164  22.850  30.390  17.970
   49BOLB   NC2 1165  23.490  31.380  20.260
   49BOLB   PO2 1166  23.600  30.940  20.030
   49BOLB   GL3 1167  23.620  30.640  19.690
   49BOLB   GL4 1168  23.830  30.290  19.800
   49BOLB   C1C 1169  23.660  30.610  19.190
   49BOLB   C2C 1170  23.760  30.580  18.700
   49BOLB   C3C 1171  23.640  30.150  18.590
   49BOLB   C4C 1172  23.550  29.830  18.330
   49BOLB   C1D 1173  23.760  30.130  19.420
   49BOLB   C2D 1174  23.540  30.030  19.070
   49BOLB   C3D 1175  23.210  29.830  18.770
   49BOLB   C4D 1176  22.740  29.640  18.740
   50BOLB   NC1 1177   5.890  25.300   9.300
   50BOLB   PO1 1178   5.790  24.990   9.510
   50BOLB   GL1 1179   6.160  24.850   9.480
   50BOLB   GL2 1180   6.360  24.990   9.670
   50BOLB   C1A 1181   6.520  24.660   9.320
   50BOLB   C2A 1182   6.850  24.430   9.310
   50BOLB   C3A 1183   7.250  24.140   9.320
   50BOLB   C4A 1184   7.330  23.580   9.490
   50BOLB   C1B 1185   6.530  24.570   9.790
   50BOLB   C2B 1186   6.550  24.340  10.140
   50BOLB   C3B 1187   6.910  24.230  10.550
   50BOLB   C4B 1188   7.400  24.410  10.550
   50BOLB   NC2 1189   5.640  22.520   8.700
   50BOLB   PO2 1190   5.350  22.780   8.740
   50BOLB   GL3 1191   5.740  23.020   8.970
   50BOLB   GL4 1192   5.950  22.810   8.920
   50BOLB   C1C 1193   5.980  23.230   9.190
   50BOLB   C2C 1194   6.350  23.180   9.180
   50BOLB   C3C 1195   6.790  23.110   9.210
   50BOLB   C4C 1196   7.070  23.190   9.480
   50BOLB   C1D 1197   6.270  22.480   8.820
   50BOLB   C2D 1198   6.710  22.360   8.870
   50BOLB   C3D 1199   7.140  22.180   8.990
   50BOLB   C4D 1200   7.490  22.050   8.820
   51BOLB   NC1 1201   7.240  26.810  16.050
   51BOLB   PO1 1202   7.240  26.600  16.500
   51BOLB   GL1 1203   7.450  26.220  16.340
   51BOLB   GL2 1204   7.770  26.350  16.380
   51BOLB   C1A 1205   7.550  25.810  16.300
   51BOLB   C2A 1206   7.550  25.540  15.990
   51BOLB   C3A 1207   7.750  25.250  15.840
   51BOLB   C4A 1208   8.230  25.300  15.700
   51BOLB   C1B 1209   8.070  25.830  16.430
   51BOLB   C2B 1210   8.320  25.500  16.470
   51BOLB   C3B 1211   8.400  25.150  16.230
   51BOLB   C4B 1212   8.600  25.010  16.030
   51BOLB   NC2 1213  10.630  23.850  15.050
   51BOLB   PO2 1214  10.270  23.920  15.020
   51BOLB   GL3 1215   9.880  24.170  15.160
   51BOLB   GL4 1216   9.990  24.250  15.430
   51BOLB   C1C 1217   9.520  24.450  15.220
   51BOLB   C2C 1218   9.200  24.620  15.400
   51BOLB   C3C 1219   8.910  24.840  15.560
   51BOLB   C4C 1220   8.580  25.130  15.490
   51BOLB   C1D 1221   9.730  24.220  15.730
   51BOLB   C2D 1222   9.370  24.510  15.920
   51BOLB   C3D 1223   9.220  24.890  16.030
   51BOLB   C4D 1224   8.960  25.330  15.850
   52BOLB   NC1 1225  22.280  16.730  17.610
   52BOLB   PO1 1226  22.030  16.480  17.980
   52BOLB   GL1 1227  22.170  16.430  18.410
   52BOLB   GL2 1228  22.450  16.620  18.530
   52BOLB   C1A 1229  22.260  16.010  18.520
   52BOLB   C2A 1230  22.540  15.680  18.500
   52BOLB   C3A 1231  22.790  15.270  18.630
   52BOLB   C4A 1232  23.180  15.070  18.680
   52BOLB   C1B 1233  22.580  16.230  18.880
   52BOLB   C2B 1234  22.650  15.990  19.290
   52BOLB   C3B 1235  22.750  15.530  19.490
   52BOLB   C4B 1236  23.040  15.410  19.710
   52BOLB   NC2 1237  24.680  13.920  19.790
   52BOLB   PO2 1238  24.840  14.320  19.710
   52BOLB   GL3 1239  24.740  14.610  19.320
   52BOLB   GL4 1240  24.990  14.880  19.210
   52BOLB   C1C 1241  24.400  14.560  19.110
   52BOLB   C2C 1242  24.170  14.890  18.880
   52BOLB   C3C 1243  23.940  14.980  18.540
   52BOLB   C4C 1244  23.550  14.940  18.510
   52BOLB   C1D 1245  24.780  14.930  18.780
   52BOLB   C2D 1246  24.550  15.150  18.600
   52BOLB   C3D 1247  24.320  15.500  18.570
   52BOLB   C4D 1248  23.970  15.740  18.610
   53BOLB   NC1 1249  30.110  21.860  12.640
   53BOLB   PO1 1250  30.380  22.260  12.540
   53BOLB   GL1 1251  29.980  22.270  12.280
   53BOLB   GL2 1252  29.840  22.060  12.270
   53BOLB   C1A 1253  29.740  22.570  12.430
   53BOLB   C2A 1254  29.480  22.550  12.700
   53BOLB   C3A 1255  29.190  22.620  13.040
   53BOLB   C4A 1256  29.180  23.000  13.260
   53BOLB   C1B 1257  29.400  22.180  12.330
   53BOLB   C2B 1258  29.010  22.040  12.500
   53BOLB   C3B 1259  28.590  22.080  12.630
   53BOLB   C4B 1260  28.300  22.440  12.750
   53BOLB   NC2 1261  30.640  24.020  13.240
   53BOLB   PO2 1262  30.470  24.030  13.650
   53BOLB   GL3 1263  30.070  24.040  13.610
   53BOLB   GL4 1264  30.040  24.130  13.190
   53BOLB   C1C 1265  29.650  24.090  13.730
   53BOLB   C2C 1266  29.300  24.040  13.490
   53BOLB   C3C 1267  29.050  23.790  13.430
   53BOLB   C4C 1268  29.130  23.300  13.510
   53BOLB   C1D 1269  29.680  24.230  13.270
   53BOLB   C2D 1270  29.270  24.450  13.130
   53BOLB   C3D 1271  28.970  24.410  13.320
   53BOLB   C4D 1272  28.520  24.240  13.220
   54BOLB   NC1 1273  15.020  18.280  19.540
   54BOLB   PO1 1274  14.980  17.890  19.670
   54BOLB   GL1 1275  15.050  17.890  20.220
   54BOLB   GL2 1276  15.390  17.990  20.330
   54BOLB   C1A 1277  14.940  17.870  20.640
   54BOLB   C2A 1278  14.720  18.090  20.930
   54BOLB   C3A 1279  14.500  17.930  21.290
   54BOLB   C4A 1280  14.180  17.990  21.520
   54BOLB   C1B 1281  15.440  17.770  20.680
   54BOLB   C2B 1282  15.600  17.880  20.960
   54BOLB   C3B 1283  15.610  17.790  21.410
   54BOLB   C4B 1284  15.510  18.050  21.830
   54BOLB   NC2 1285  13.030  17.470  23.980
   54BOLB   PO2 1286  13.000  17.700  23.550
   54BOLB   GL3 1287  13.240  18.020  23.340
   54BOLB   GL4 1288  13.670  17.930  23.310
   54BOLB   C1C 1289  13.360  18.350  23.020
   54BOLB   C2C 1290  13.560  18.320  22.630
   54BOLB   C3C 1291  13.800  18.290  22.270
   54BOLB   C4C 1292  14.020  18.210  21.850
   54BOLB   C1D 1293  13.620  17.950  22.990
   54BOLB   C2D 1294  13.610  17.780  22.550
   54BOLB   C3D 1295  13.870  17.400  22.380
   54BOLB   C4D 1296  14.120  17.610  22.060
   55BOLB   NC1 1297  21.630  19.910  19.740
   55BOLB   PO1 1298  21.520  20.260  20.050
   55BOLB   GL1 1299  21.790  20.090  20.390
   55BOLB   GL2 1300  21.760  19.750  20.560
   55BOLB   C1A 1301  22.170  20.100  20.500
   55BOLB   C2A 1302  22.420  20.100  20.890
   55BOLB   C3A 1303  22.410  20.250  21.320
   55BOLB   C4A 1304  22.260  20.480  21.630
   55BOLB   C1B 1305  21.900  20.030  20.880
   55BOLB   C2B 1306  22.060  20.360  21.060
   55BOLB   C3B 1307  21.950  20.740  21.250
   55BOLB   C4B 1308  22.210  20.970  21.610
   55BOLB   NC2 1309  21.280  21.270  24.150
   55BOLB   PO2 1310  21.650  21.250  24.010
   55BOLB   GL3 1311  21.900  21.020  23.730
   55BOLB   GL4 1312  22.210  20.950  23.750
   55BOLB   C1C 1313  21.930  20.980  23.280
   55BOLB   C2C 1314  21.890  20.700  22.880
   55BOLB   C3C 1315  21.900  20.670  22.400
   55BOLB   C4C 1316  22.000  20.570  21.960
   55BOLB   C1D 1317  22.430  20.730  23.310
   55BOLB   C2D 1318  22.460  20.620  22.860
   55BOLB   C3D 1319  22.360  20.570  22.440
   55BOLB   C4D 1320  22.440  20.170  22.100
   56BOLB   NC1 1321  18.790  28.280  18.160
   56BOLB   PO1 1322  18.830  27.930  18.290
   56BOLB   GL1 1323  18.590  27.990  18.680
   56BOLB   GL2 1324  18.240  27.880  18.780
   56BOLB   C1A 1325  18.730  28.100  19.100
   56BOLB   C2A 1326  18.760  28.380  19.460
   56BOLB   C3A 1327  19.040  28.550  19.620
   56BOLB   C4A 1328  19.210  28.860  19.720
   56BOLB   C1B 1329  18.300  28.310  19.020
   56BOLB   C2B 1330  18.370  28.770  19.090
   56BOLB   C3B 1331  18.270  29.260  18.880
   56BOLB   C4B 1332  18.500  29.610  19.080
   56BOLB   NC2 1333  18.340  31.340  20.870
   56BOLB   PO2 1334  18.610  30.950  20.750
   56BOLB   GL3 1335  18.950  30.580  20.600
   56BOLB   GL4 1336  19.290  30.520  20.740
   56BOLB   C1C 1337  18.970  30.340  20.190
   56BOLB   C2C 1338  18.910  29.980  20.230
   56BOLB   C3C 1339  18.950  29.560  20.130
   56BOLB   C4C 1340  19.180  29.270  19.870
   56BOLB   C1D 1341  19.600  30.240  20.810
   56BOLB   C2D 1342  19.840  29.860  20.510
   56BOLB   C3D 1343  19.790  29.390  20.280
   56BOLB   C4D 1344  19.620  29.090  20.020
   57BOLB   NC1 1345  13.570  26.470  16.030
   57BOLB   PO1 1346  13.310  26.770  16.090
   57BOLB   GL1 1347  13.070  27.080  16.180
   57BOLB   GL2 1348  12.910  27.330  16.010
   57BOLB   C1A 1349  12.810  27.490  16.390
   57BOLB   C2A 1350  12.500  27.710  16.470
   57BOLB   C3A 1351  12.210  28.080  16.490
   57BOLB   C4A 1352  12.230  28.540  16.530
   57BOLB   C1B 1353  12.450  27.580  15.990
   57BOLB   C2B 1354  12.140  27.960  15.990
   57BOLB   C3B 1355  11.870  28.330  16.060
   57BOLB   C4B 1356  11.690  28.490  16.470
   57BOLB   NC2 1357  11.260  29.600  18.670
   57BOLB   PO2 1358  10.980  29.440  18.360
   57BOLB   GL3 1359  11.450  29.370  18.200
   57BOLB   GL4 1360  11.760  29.610  18.200
   57BOLB   C1C 1361  11.710  29.150  17.910
   57BOLB   C2C 1362  11.960  29.010  17.540
   57BOLB   C3C 1363  12.000  29.090  17.050
   57BOLB   C4C 1364  12.070  28.840  16.700
   57BOLB   C1D 1365  12.160  29.470  18.030
   57BOLB   C2D 1366  12.320  29.240  17.810
   57BOLB   C3D 1367  12.460  28.920  17.680
   57BOLB   C4D 1368  12.670  28.750  17.510
   58BOLB   NC1 1369  17.340  26.550  19.090
   58BOLB   PO1 1370  17.220  26.290  19.400
   58BOLB   GL1 1371  17.330  26.780  19.590
   58BOLB   GL2 1372  17.250  26.990  19.360
   58BOLB   C1A 1373  17.250  27.030  19.880
   58BOLB   C2A 1374  16.840  27.060  20.030
   58BOLB   C3A 1375  16.420  27.300  20.270
   58BOLB   C4A 1376  16.120  27.590  20.220
   58BOLB   C1B 1377  17.180  27.420  19.510
   58BOLB   C2B 1378  16.980  27.540  19.880
   58BOLB   C3B 1379  16.810  27.720  20.200
   58BOLB   C4B 1380  16.730  28.080  20.390
   58BOLB   NC2 1381  14.710  28.710  22.230
   58BOLB   PO2 1382  14.720  28.480  21.850
   58BOLB   GL3 1383  14.760  28.550  21.380
   58BOLB   GL4 1384  14.470  28.250  21.400
   58BOLB   C1C 1385  15.080  28.520  21.100
   58BOLB   C2C 1386  15.250  28.360  20.620
   58BOLB   C3C 1387  15.570  28.030  20.550
   58BOLB   C4C 1388  15.940  27.910  20.540
   58BOLB   C1D 1389  14.720  28.180  21.010
   58BOLB   C2D 1390  14.730  28.180  20.560
   58BOLB   C3D 1391  14.730  28.210  20.130
   58BOLB   C4D 1392  14.820  27.940  19.710
   59BOLB   NC1 1393  14.290  28.420  12.440
   59BOLB   PO1 1394  14.230  28.520  12.010
   59BOLB   GL1 1395  14.070  28.880  12.290
   59BOLB   GL2 1396  14.060  29.270  12.220
   59BOLB   C1A 1397  13.540  29.120  12.270
   59BOLB   C2A 1398  13.430  29.540  12.190
   59BOLB   C3A 1399  13.260  29.630  11.760
   59BOLB   C4A 1400  13.300  30.000  11.490
   59BOLB   C1B 1401  14.020  29.610  12.370
   59BOLB   C2B 1402  13.680  29.940  12.400
   59BOLB   C3B 1403  13.330  29.840  12.690
   59BOLB   C4B 1404  13.030  29.720  12.980
   59BOLB   NC2 1405  11.510  31.680  11.260
   59BOLB   PO2 1406  11.820  31.810  10.980
   59BOLB   GL3 1407  12.100  31.490  10.840
   59BOLB   GL4 1408  12.360  31.610  11.060
   59BOLB   C1C 1409  12.430  31.110  10.920
   59BOLB   C2C 1410  12.670  30.760  10.960
   59BOLB   C3C 1411  12.860  30.340  10.940
   59BOLB   C4C 1412  13.040  30.150  11.280
   59BOLB   C1D 1413  12.550  31.410  11.500
   59BOLB   C2D 1414  12.530  31.140  11.840
   59BOLB   C3D 1415  12.810  30.770  11.810
   59BOLB   C4D 1416  13.060  30.340  11.880
   60BOLB   NC1 1417  13.930  21.900  18.970
   60BOLB   PO1 1418  13.760  22.200  19.300
   60BOLB   GL1 1419  13.720  22.260  19.680
   60BOLB   GL2 1420  13.910  22.160  19.910
   60BOLB   C1A 1421  13.480  22.540  19.960
   60BOLB   C2A 1422  13.240  22.570  20.350
   60BOLB   C3A 1423  13.280  22.770  20.690
   60BOLB   C4A 1424  13.040  23.050  20.980
   60BOLB   C1B 1425  13.980  22.180  20.330
   60BOLB   C2B 1426  13.830  22.070  20.740
   60BOLB   C3B 1427  13.520  21.780  20.940
   60BOLB   C4B 1428  13.160  21.620  21.100
   60BOLB   NC2 1429  11.580  24.060  22.990
   60BOLB   PO2 1430  11.630  23.670  22.850
   60BOLB   GL3 1431  12.070  23.540  22.580
   60BOLB   GL4 1432  12.090  23.780  22.420
   60BOLB   C1C 1433  12.050  23.370  22.100
   60BOLB   C2C 1434  12.130  23.480  21.640
   60BOLB   C3C 1435  12.300  23.380  21.240
   60BOLB   C4C 1436  12.650  23.120  21.130
   60BOLB   C1D 1437  12.410  23.720  22.050
   60BOLB   C2D 1438  12.740  23.720  21.840
   60BOLB   C3D 1439  13.270  23.560  21.860
   60BOLB   C4D 1440  13.260  23.360  21.480
   61BOLB   NC1 1441  18.360  27.690  18.330
   61BOLB   PO1 1442  18.270  28.110  18.210
   61BOLB   GL1 1443  18.550  28.470  18.520
   61BOLB   GL2 1444  18.660  28.640  18.480
   61BOLB   C1A 1445  18.850  28.660  18.970
   61BOLB   C2A 1446  18.740  28.840  19.440
   61BOLB   C3A 1447  18.750  29.130  19.640
   61BOLB   C4A 1448  18.830  29.610  19.430
   61BOLB   C1B 1449  18.620  29.020  18.630
   61BOLB   C2B 1450  18.820  29.180  19.030
   61BOLB   C3B 1451  19.180  29.150  19.330
   61BOLB   C4B 1452  19.670  29.080  19.340
   61BOLB   NC2 1453  18.580  31.620  20.130
   61BOLB   PO2 1454  19.070  31.740  20.180
   61BOLB   GL3 1455  19.140  31.440  19.920
   61BOLB   GL4 1456  19.210  31.480  19.580
   61BOLB   C1C 1457  19.350  31.020  19.690
   61BOLB   C2C 1458  19.300  30.530  19.440
   61BOLB   C3C 1459  19.240  30.150  19.190
   61BOLB   C4C 1460  19.220  29.810  19.290
   61BOLB   C1D 1461  19.320  31.200  19.240
   61BOLB   C2D 1462  19.340  30.810  19.020
   61BOLB   C3D 1463  19.530  30.370  18.850
   61BOLB   C4D 1464  19.400  29.980  18.670
   62BOLB   NC1 1465  15.040  27.690  10.180
   62BOLB   PO1 1466  15.030  28.060   9.980
   62BOLB   GL1 1467  14.740  28.240   9.820
   62BOLB   GL2 1468  14.610  28.140   9.570
   62BOLB   C1A 1469  14.430  28.540   9.810
   62BOLB   C2A 1470  14.410  28.970   9.620
   62BOLB   C3A 1471  14.380  29.330   9.870
   62BOLB   C4A 1472  14.040  29.580   9.880
   62BOLB   C1B 1473  14.680  28.530   9.410
   62BOLB   C2B 1474  14.830  29.010   9.360
   62BOLB   C3B 1475  14.700  29.380   9.490
   62BOLB   C4B 1476  14.390  29.780   9.590
   62BOLB   NC2 1477  12.570  30.770   7.660
   62BOLB   PO2 1478  12.910  30.950   8.040
   62BOLB   GL3 1479  12.880  30.620   8.290
   62BOLB   GL4 1480  12.600  30.500   8.360
   62BOLB   C1C 1481  13.000  30.370   8.750
   62BOLB   C2C 1482  13.370  30.350   9.090
   62BOLB   C3C 1483  13.630  30.130   9.330
   62BOLB   C4C 1484  13.850  29.750   9.590
   62BOLB   C1D 1485  12.760  30.030   8.300
   62BOLB   C2D 1486  12.950  29.770   8.270
   62BOLB   C3D 1487  13.290  29.460   8.480
   62BOLB   C4D 1488  13.430  29.210   8.760
   63BOLB   NC1 1489   8.960  20.860  14.500
   63BOLB   PO1 1490   9.070  20.740  14.870
   63BOLB   GL1 1491   8.570  20.600  14.810
   63BOLB   GL2 1492   8.370  20.880  14.980
   63BOLB   C1A 1493   8.310  20.320  14.920
   63BOLB   C2A 1494   8.200  19.980  14.670
   63BOLB   C3A 1495   8.110  19.530  14.470
   63BOLB   C4A 1496   8.080  19.160  14.340
   63BOLB   C1B 1497   8.050  21.140  14.730
   63BOLB   C2B 1498   7.660  21.370  14.590
   63BOLB   C3B 1499   7.210  21.390  14.800
   63BOLB   C4B 1500   6.820  21.260  15.030
   63BOLB   NC2 1501   7.170  17.800  12.480
   63BOLB   PO2 1502   6.850  17.970  12.830
   63BOLB   GL3 1503   7.230  18.220  12.920
   63BOLB   GL4 1504   7.010  18.440  13.040
   63BOLB   C1C 1505   7.540  18.440  13.180
   63BOLB   C2C 1506   7.670  18.550  13.590
   63BOLB   C3C 1507   7.600  18.730  13.910
   63BOLB   C4C 1508   7.910  18.810  14.380
   63BOLB   C1D 1509   7.220  18.850  13.050
   63BOLB   C2D 1510   7.540  19.160  13.000
   63BOLB   C3D 1511   7.930  19.280  12.870
   63BOLB   C4D 1512   8.260  19.500  12.750
   64BOLB   NC1 1513  21.900  22.620  20.210
   64BOLB   PO1 1514  22.030  22.170  20.050
   64BOLB   GL1 1515  22.400  22.270  20.300
   64BOLB   GL2 1516  22.300  22.320  20.650
   64BOLB   C1A 1517  22.740  22.540  20.460
   64BOLB   C2A 1518  22.970  22.760  20.770
   64BOLB   C3A 1519  23.390  22.910  21.060
   64BOLB   C4A 1520  23.370  23.090  21.440
   64BOLB   C1B 1521  22.200  22.470  21.180
   64BOLB   C2B 1522  21.920  22.290  21.520
   64BOLB   C3B 1523  21.740  21.960  21.690
   64BOLB   C4B 1524  21.540  21.600  21.790
   64BOLB   NC2 1525  23.940  23.820  23.780
   64BOLB   PO2 1526  24.070  23.350  23.660
   64BOLB   GL3 1527  23.790  23.520  23.330
   64BOLB   GL4 1528  23.510  23.370  23.250
   64BOLB   C1C 1529  23.740  23.740  22.930
   64BOLB   C2C 1530  23.910  23.640  22.540
   64BOLB   C3C 1531  23.770  23.400  22.190
   64BOLB   C4C 1532  23.480  23.170  21.950
   64BOLB   C1D 1533  23.350  23.410  22.840
   64BOLB   C2D 1534  23.240  23.430  22.410
   64BOLB   C3D 1535  23.010  23.240  22.180
   64BOLB   C4D 1536  23.020  23.170  21.760
   65BOLB   NC1 1537  11.980  25.410   9.860
   65BOLB   PO1 1538  12.030  25.510   9.360
   65BOLB   GL1 1539  11.870  25.990   9.240
   65BOLB   GL2 1540  11.550  26.000   9.010
   65BOLB   C1A 1541  11.540  26.380   9.340
   65BOLB   C2A 1542  11.230  26.520   9.380
   65BOLB   C3A 1543  10.940  26.780   9.200
   65BOLB   C4A 1544  10.530  26.900   9.380
   65BOLB   C1B 1545  11.220  26.120   8.770
   65BOLB   C2B 1546  10.880  26.250   9.050
   65BOLB   C3B 1547  10.510  26.540   9.080
   65BOLB   C4B 1548  10.020  26.350   9.080
   65BOLB   NC2 1549   8.310  27.550   8.230
   65BOLB   PO2 1550   8.640  27.660   7.840
   65BOLB   GL3 1551   8.830  27.550   8.240
   65BOLB   GL4 1552   9.030  27.350   8.090
   65BOLB   C1C 1553   9.050  27.320   8.570
   65BOLB   C2C 1554   9.460  27.100   8.630
   65BOLB   C3C 1555   9.700  26.910   8.970
   65BOLB   C4C 1556  10.110  26.900   9.210
   65BOLB   C1D 1557   9.300  26.930   8.160
   65BOLB   C2D 1558   9.520  26.540   8.080
   65BOLB   C3D 1559   9.940  26.410   8.090
   65BOLB   C4D 1560  10.310  26.650   8.050
   66BOLB   NC1 1561   4.530  23.420  14.180
   66BOLB   PO1 1562   4.910  23.070  13.980
   66BOLB   GL1 1563   5.140  22.810  14.290
   66BOLB   GL2 1564   5.300  23.100  14.410
   66BOLB   C1A 1565   5.630  22.680  14.320
   66BOLB   C2A 1566   6.010  22.630  14.080
   66BOLB   C3A 1567   6.460  22.770  14.280
   66BOLB   C4A 1568   6.880  22.990  14.160
   66BOLB   C1B 1569   5.770  23.200  14.510
   66BOLB   C2B 1570   5.950  23.270  14.850
   66BOLB   C3B 1571   6.350  23.160  15.010
   66BOLB   C4B 1572   6.780  23.210  15.030
   66BOLB   NC2 1573   9.390  23.520  14.000
   66BOLB   PO2 1574   8.990  23.360  14.310
   66BOLB   GL3 1575   8.620  23.430  14.110
   66BOLB   GL4 1576   8.480  23.460  13.900
   66BOLB   C1C 1577   8.200  23.340  14.260
   66BOLB   C2C 1578   7.800  23.490  14.270
   66BOLB   C3C 1579   7.470  23.560  13.940
   66BOLB   C4C 1580   7.190  23.320  14.100
   66BOLB   C1D 1581   8.040  23.590  13.810
   66BOLB   C2D 1582   7.730  23.920  13.690
   66BOLB   C3D 1583   7.750  24.400  13.410
   66BOLB   C4D 1584   7.700  24.810  13.160
   67BOLB   NC1 1585  24.740  26.350  22.580
   67BOLB   PO1 1586  24.540  26.690  22.690
   67BOLB   GL1 1587  24.430  26.910  22.220
   67BOLB   GL2 1588  24.640  26.920  21.930
   67BOLB   C1A 1589  23.980  26.960  22.190
   67BOLB   C2A 1590  23.720  26.900  21.800
   67BOLB   C3A 1591  23.380  26.810  21.510
   67BOLB   C4A 1592  23.350  26.710  21.110
   67BOLB   C1B 1593  24.310  26.740  21.790
   67BOLB   C2B 1594  24.110  26.880  21.430
   67BOLB   C3B 1595  24.120  26.610  21.080
   67BOLB   C4B 1596  24.330  26.570  20.720
   67BOLB   NC2 1597  24.350  28.190  22.120
   67BOLB   PO2 1598  24.260  28.510  21.980
   67BOLB   GL3 1599  24.210  28.250  21.580
   67BOLB   GL4 1600  24.340  28.530  21.440
   67BOLB   C1C 1601  23.950  28.000  21.270
   67BOLB   C2C 1602  23.810  27.610  21.050
   67BOLB   C3C 1603  23.430  27.450  20.850
   67BOLB   C4C 1604  23.300  27.020  20.800
   67BOLB   C1D 1605  24.370  28.410  20.960
   67BOLB   C2D 1606  24.500  28.150  20.580
   67BOLB   C3D 1607  24.260  28.100  20.300
   67BOLB   C4D 1608  23.770  28.100  20.130
   68BOLB   NC1 1609  10.370  10.050  15.530
   68BOLB   PO1 1610  10.150  10.290  15.990
   68BOLB   GL1 1611  10.410  10.600  16.130
   68BOLB   GL2 1612  10.260  10.940  16.030
   68BOLB   C1A 1613  10.890  10.610  16.250
   68BOLB   C2A 1614  11.130  10.950  16.210
   68BOLB   C3A 1615  11.350  11.420  16.330
   68BOLB   C4A 1616  11.640  11.850  16.370
   68BOLB   C1B 1617  10.650  10.940  15.840
   68BOLB   C2B 1618  10.960  11.300  15.870
   68BOLB   C3B 1619  11.250  11.690  15.910
   68BOLB   C4B 1620  11.300  11.920  15.660
   68BOLB   NC2 1621  11.570  14.390  16.770
   68BOLB   PO2 1622  11.480  14.140  16.400
   68BOLB   GL3 1623  11.280  13.770  16.370
   68BOLB   GL4 1624  11.700  13.740  16.290
   68BOLB   C1C 1625  11.190  13.410  16.490
   68BOLB   C2C 1626  11.410  12.990  16.530
   68BOLB   C3C 1627  11.690  12.660  16.550
   68BOLB   C4C 1628  11.600  12.210  16.600
   68BOLB   C1D 1629  11.590  13.380  16.190
   68BOLB   C2D 1630  11.380  13.160  15.960
   68BOLB   C3D 1631  11.250  12.760  16.060
   68BOLB   C4D 1632  11.140  12.590  16.450
   69BOLB   NC1 1633  18.080  23.260  20.600
   69BOLB   PO1 1634  18.450  23.330  20.470
   69BOLB   GL1 1635  18.310  23.640  20.810
   69BOLB   GL2 1636  18.540  23.800  20.700
   69BOLB   C1A 1637  18.190  23.670  21.300
   69BOLB   C2A 1638  18.160  23.700  21.680
   69BOLB   C3A 1639  18.080  23.660  22.020
   69BOLB   C4A 1640  18.120  23.780  22.430
   69BOLB   C1B 1641  18.590  23.990  21.100
   69BOLB   C2B 1642  18.630  23.950  21.560
   69BOLB   C3B 1643  18.620  23.760  22.050
   69BOLB   C4B 1644  18.730  23.680  22.420
   69BOLB   NC2 1645  19.000  24.140  24.690
   69BOLB   PO2 1646  18.960  23.650  24.520
   69BOLB   GL3 1647  19.000  23.520  24.140
   69BOLB   GL4 1648  19.070  23.260  24.080
   69BOLB   C1C 1649  19.040  23.690  23.780
   69BOLB   C2C 1650  19.040  23.680  23.360
   69BOLB   C3C 1651  18.710  23.640  23.050
   69BOLB   C4C 1652  18.440  23.750  22.810
   69BOLB   C1D 1653  19.190  23.180  23.700
   69BOLB   C2D 1654  19.290  22.910  23.360
   69BOLB   C3D 1655  19.270  22.870  22.900
   69BOLB   C4D 1656  19.010  22.680  22.530
   70BOLB   NC1 1657  15.610  24.560  24.030
   70BOLB   PO1 1658  15.440  24.800  23.770
   70BOLB   GL1 1659  15.320  24.690  23.390
   70BOLB   GL2 1660  15.560  24.620  23.200
   70BOLB   C1A 1661  15.240  24.630  22.880
   70BOLB   C2A 1662  15.550  24.750  22.660
   70BOLB   C3A 1663  15.810  25.070  22.500
   70BOLB   C4A 1664  16.200  25.110  22.200
   70BOLB   C1B 1665  15.790  24.280  22.840
   70BOLB   C2B 1666  15.670  24.290  22.430
   70BOLB   C3B 1667  15.490  24.290  22.070
   70BOLB   C4B 1668  15.140  24.350  21.820
   70BOLB   NC2 1669  16.160  25.950  23.370
   70BOLB   PO2 1670  16.460  26.170  23.740
   70BOLB   GL3 1671  16.650  25.940  23.420
   70BOLB   GL4 1672  16.890  26.090  23.470
   70BOLB   C1C 1673  16.780  25.680  23.200
   70BOLB   C2C 1674  16.870  25.460  22.810
   70BOLB   C3C 1675  16.900  25.070  22.580
   70BOLB   C4C 1676  16.560  24.980  22.170
   70BOLB   C1D 1677  16.850  26.320  23.140
   70BOLB   C2D 1678  16.540  26.160  22.900
   70BOLB   C3D 1679  16.410  25.720  22.680
   70BOLB   C4D 1680  16.600  25.450  22.360
   71BOLB   NC1 1681  21.100  29.040  16.120
   71BOLB   PO1 1682  21.450  29.040  15.690
   71BOLB   GL1 1683  21.300  29.470  15.930
   71BOLB   GL2 1684  21.500  29.670  15.760
   71BOLB   C1A 1685  21.350  29.820  16.250
   71BOLB   C2A 1686  21.440  30.190  16.400
   71BOLB   C3A 1687  21.490  30.590  16.350
   71BOLB   C4A 1688  21.690  30.930  16.560
   71BOLB   C1B 1689  21.540  30.110  15.780
   71BOLB   C2B 1690  21.630  30.500  15.860
   71BOLB   C3B 1691  21.760  30.870  16.010
   71BOLB   C4B 1692  21.840  31.340  16.150
   71BOLB   NC2 1693  22.300  32.440  18.340
   71BOLB   PO2 1694  22.600  32.320  18.150
   71BOLB   GL3 1695  22.410  32.230  17.820
   71BOLB   GL4 1696  22.270  32.600  17.730
   71BOLB   C1C 1697  22.210  32.010  17.540
   71BOLB   C2C 1698  21.940  31.740  17.380
   71BOLB   C3C 1699  21.680  31.420  17.250
   71BOLB   C4C 1700  21.930  31.040  17.010
   71BOLB   C1D 1701  21.960  32.310  17.840
   71BOLB   C2D 1702  21.740  31.980  17.920
   71BOLB   C3D 1703  21.500  31.600  17.640
   71BOLB   C4D 1704  21.340  31.220  17.640
   72BOLB   NC1 1705  18.130  26.980  19.290
   72BOLB   PO1 1706  17.710  26.830  19.250
   72BOLB   GL1 1707  17.810  27.100  19.640
   72BOLB   GL2 1708  18.050  27.380  19.520
   72BOLB   C1A 1709  17.620  27.350  19.920
   72BOLB   C2A 1710  17.260  27.340  20.280
   72BOLB   C3A 1711  16.950  27.310  20.480
   72BOLB   C4A 1712  16.930  27.620  20.720
   72BOLB   C1B 1713  18.090  27.650  19.760
   72BOLB   C2B 1714  18.040  27.770  20.150
   72BOLB   C3B 1715  17.610  27.670  20.280
   72BOLB   C4B 1716  17.290  27.810  20.430
   72BOLB   NC2 1717  16.530  28.780  22.570
   72BOLB   PO2 1718  16.850  28.690  22.810
   72BOLB   GL3 1719  17.100  28.290  22.570
   72BOLB   GL4 1720  17.360  28.360  22.390
   72BOLB   C1C 1721  17.020  28.050  22.140
   72BOLB   C2C 1722  17.300  27.750  21.830
   72BOLB   C3C 1723  17.350  27.760  21.450
   72BOLB   C4C 1724  17.020  27.480  21.030
   72BOLB   C1D 1725  17.340  28.400  21.950
   72BOLB   C2D 1726  17.190  28.180  21.650
   72BOLB   C3D 1727  16.740  28.000  21.530
   72BOLB   C4D 1728  16.720  27.860  21.210
   73BOLB   NC1 1729  13.160  17.370  19.570
   73BOLB   PO1 1730  13.420  17.700  19.760
   73BOLB   GL1 1731  13.130  17.710  20.000
   73BOLB   GL2 1732  12.960  17.950  20.010
   73BOLB   C1A 1733  13.070  17.540  20.360
   73BOLB   C2A 1734  12.920  17.540  20.750
   73BOLB   C3A 1735  12.760  17.780  21.220
   73BOLB   C4A 1736  12.750  17.900  21.630
   73BOLB   C1B 1737  12.810  18.030  20.430
   73BOLB   C2B 1738  12.510  17.970  20.740
   73BOLB   C3B 1739  12.310  17.800  20.980
   73BOLB   C4B 1740  12.040  17.550  20.990
   73BOLB   NC2 1741  13.040  16.620  23.690
   73BOLB   PO2 1742  12.850  16.690  23.260
   73BOLB   GL3 1743  12.880  16.900  22.900
   73BOLB   GL4 1744  13.040  16.690  22.810
   73BOLB   C1C 1745  12.640  17.030  22.600
   73BOLB   C2C 1746  12.350  17.110  22.250
   73BOLB   C3C 1747  12.570  17.350  21.980
   73BOLB   C4C 1748  12.860  17.630  21.920
   73BOLB   C1D 1749  13.140  16.900  22.410
   73BOLB   C2D 1750  12.980  17.070  22.070
   73BOLB   C3D 1751  12.920  17.290  21.630
   73BOLB   C4D 1752  12.990  17.270  21.210
   74BOLB   NC1 1753  20.490  30.130  12.810
   74BOLB   PO1 1754  21.010  30.190  13.090
   74BOLB   GL1 1755  21.280  30.490  13.160
   74BOLB   GL2 1756  21.100  30.770  13.160
   74BOLB   C1A 1757  21.570  30.860  13.040
   74BOLB   C2A 1758  21.720  31.330  12.970
   74BOLB   C3A 1759  21.670  31.700  13.270
   74BOLB   C4A 1760  21.710  32.040  13.610
   74BOLB   C1B 1761  21.190  31.190  13.230
   74BOLB   C2B 1762  21.100  31.510  13.410
   74BOLB   C3B 1763  21.220  32.020  13.430
   74BOLB   C4B 1764  21.020  32.380  13.580
   74BOLB   NC2 1765  23.240  33.800  15.040
   74BOLB   PO2 1766  22.920  33.540  15.400
   74BOLB   GL3 1767  22.610  33.370  15.210
   74BOLB   GL4 1768  22.430  33.100  15.390
   74BOLB   C1C 1769  22.490  33.170  14.760
   74BOLB   C2C 1770  22.260  33.050  14.280
   74BOLB   C3C 1771  22.020  32.670  13.980
   74BOLB   C4C 1772  21.960  32.230  13.950
   74BOLB   C1D 1773  22.570  32.810  15.070
   74BOLB   C2D 1774  22.560  32.400  14.820
   74BOLB   C3D 1775  22.640  31.960  14.600
   74BOLB   C4D 1776  22.580  31.480  14.610
   75BOLB   NC1 1777  14.690  13.690  12.980
   75BOLB   PO1 1778  14.840  14.110  13.050
   75BOLB   GL1 1779  14.980  14.580  12.990
   75BOLB   GL2 1780  15.130  14.640  13.380
   75BOLB   C1A 1781  14.900  14.980  13.050
   75BOLB   C2A 1782  14.930  15.450  13.000
   75BOLB   C3A 1783  15.020  15.800  12.780
   75BOLB   C4A 1784  15.410  15.950  12.830
   75BOLB   C1B 1785  15.350  15.010  13.270
   75BOLB   C2B 1786  15.390  15.290  12.910
   75BOLB   C3B 1787  15.670  15.450  12.560
   75BOLB   C4B 1788  15.760  15.800  12.260
   75BOLB   NC2 1789  16.520  13.440  11.840
   75BOLB   PO2 1790  16.740  13.850  12.010
   75BOLB   GL3 1791  16.600  14.290  12.060
   75BOLB   GL4 1792  16.970  14.400  12.000
   75BOLB   C1C 1793  16.450  14.730  12.020
   75BOLB   C2C 1794  16.290  15.140  12.270
   75BOLB   C3C 1795  16.170  15.460  12.580
   75BOLB   C4C 1796  15.860  15.820  12.870
   75BOLB   C1D 1797  17.050  14.820  12.210
   75BOLB   C2D 1798  17.300  15.240  12.180
   75BOLB   C3D 1799  17.230  15.540  12.510
   75BOLB   C4D 1800  17.110  15.950  12.520
   76BOLB   NC1 1801  21.460  27.430  18.120
   76BOLB   PO1 1802  21.450  27.740  18.410
   76BOLB   GL1 1803  21.690  27.730  18.810
   76BOLB   GL2 1804  22.030  27.640  18.900
   76BOLB   C1A 1805  21.720  28.060  19.050
   76BOLB   C2A 1806  21.880  28.460  19.250
   76BOLB   C3A 1807  22.320  28.590  19.180
   76BOLB   C4A 1808  22.660  28.770  19.340
   76BOLB   C1B 1809  22.270  28.040  18.860
   76BOLB   C2B 1810  22.380  28.280  18.440
   76BOLB   C3B 1811  22.360  28.710  18.330
   76BOLB   C4B 1812  22.050  29.020  18.250
   76BOLB   NC2 1813  24.380  29.750  20.970
   76BOLB   PO2 1814  23.950  29.920  20.920
   76BOLB   GL3 1815  23.670  29.580  20.750
   76BOLB   GL4 1816  23.620  29.280  20.960
   76BOLB   C1C 1817  23.280  29.430  20.580
   76BOLB   C2C 1818  23.220  29.070  20.330
   76BOLB   C3C 1819  23.170  28.800  20.060
   76BOLB   C4C 1820  22.980  28.630  19.570
   76BOLB   C1D 1821  23.250  29.030  20.870
   76BOLB   C2D 1822  22.920  28.960  20.650
   76BOLB   C3D 1823  22.700  29.160  20.280
   76BOLB   C4D 1824  22.550  29.070  19.790
   77BOLB   NC1 1825  17.340  25.120  19.800
   77BOLB   PO1 1826  17.200  25.240  20.220
   77BOLB   GL1 1827  17.040  25.530  20.530
   77BOLB   GL2 1828  16.830  25.900  20.420
   77BOLB   C1A 1829  17.060  25.780  20.870
   77BOLB   C2A 1830  17.390  26.020  21.030
   77BOLB   C3A 1831  17.580  26.430  21.010
   77BOLB   C4A 1832  17.660  26.670  21.450
   77BOLB   C1B 1833  16.760  26.360  20.480
   77BOLB   C2B 1834  16.810  26.790  20.670
   77BOLB   C3B 1835  16.810  27.050  21.090
   77BOLB   C4B 1836  16.900  27.070  21.510
   77BOLB   NC2 1837  17.320  28.160  22.960
   77BOLB   PO2 1838  17.720  28.220  23.190
   77BOLB   GL3 1839  17.780  27.970  22.810
   77BOLB   GL4 1840  17.600  28.000  22.590
   77BOLB   C1C 1841  18.010  27.850  22.410
   77BOLB   C2C 1842  17.930  27.550  22.060
   77BOLB   C3C 1843  17.800  27.420  21.600
   77BOLB   C4C 1844  17.680  26.990  21.530
   77BOLB   C1D 1845  17.500  27.830  22.290
   77BOLB   C2D 1846  17.200  27.480  22.200
   77BOLB   C3D 1847  16.910  27.390  22.090
   77BOLB   C4D 1848  16.510  27.300  22.240
   78BOLB   NC1 1849   4.890  21.990  13.250
   78BOLB   PO1 1850   4.880  21.600  13.440
   78BOLB   GL1 1851   5.320  21.630  13.370
   78BOLB   GL2 1852   5.350  21.780  13.100
   78BOLB   C1A 1853   5.890  21.510  13.360
   78BOLB   C2A 1854   6.200  21.700  13.350
   78BOLB   C3A 1855   6.710  21.690  13.220
   78BOLB   C4A 1856   7.020  21.720  12.880
   78BOLB   C1B 1857   5.810  21.930  13.080
   78BOLB   C2B 1858   6.220  22.200  13.040
   78BOLB   C3B 1859   6.500  22.300  12.760
   78BOLB   C4B 1860   6.930  22.430  12.600
   78BOLB   NC2 1861   4.940  22.280  11.750
   78BOLB   PO2 1862   5.190  21.910  11.860
   78BOLB   GL3 1863   5.630  22.090  11.980
   78BOLB   GL4 1864   5.580  22.330  12.150
   78BOLB   C1C 1865   6.030  21.910  12.160
   78BOLB   C2C 1866   6.550  22.050  12.220
   78BOLB   C3C 1867   7.010  22.000  12.290
   78BOLB   C4C 1868   7.180  21.800  12.540
   78BOLB   C1D 1869   6.080  22.380  12.040
   78BOLB   C2D 1870   6.450  22.550  12.230
   78BOLB   C3D 1871   6.910  22.490  12.100
   78BOLB   C4D 1872   7.310  22.550  12.130
   79BOLB   NC1 1873  10.040  24.250  13.790
   79BOLB   PO1 1874   9.900  24.650  13.840
   79BOLB   GL1 1875   9.510  24.530  13.870
   79BOLB   GL2 1876   9.370  24.420  13.620
   79BOLB   C1A 1877   9.300  24.670  14.120
   79BOLB   C2A 1878   8.830  24.630  14.320
   79BOLB   C3A 1879   8.500  24.720  14.620
   79BOLB   C4A 1880   8.150  24.830  14.840
   79BOLB   C1B 1881   9.020  24.760  13.730
   79BOLB   C2B 1882   8.690  25.020  13.640
   79BOLB   C3B 1883   8.250  25.130  13.460
   79BOLB   C4B 1884   8.030  25.350  13.670
   79BOLB   NC2 1885   6.800  26.760  14.680
   79BOLB   PO2 1886   6.590  26.390  14.670
   79BOLB   GL3 1887   6.960  26.220  14.560
   79BOLB   GL4 1888   6.930  26.060  14.290
   79BOLB   C1C 1889   7.250  25.820  14.530
   79BOLB   C2C 1890   7.420  25.470  14.320
   79BOLB   C3C 1891   7.490  25.140  14.490
   79BOLB   C4C 1892   7.810  24.880  14.700
   79BOLB   C1D 1893   7.370  26.140  14.150
   79BOLB   C2D 1894   7.770  25.830  14.220
   79BOLB   C3D 1895   8.230  25.540  14.190
   79BOLB   C4D 1896   8.400  25.220  14.040
   80BOLB   NC1 1897  20.080  25.570  19.360
   80BOLB   PO1 1898  19.940  25.910  19.580
   80BOLB   GL1 1899  19.890  26.170  19.970
   80BOLB   GL2 1900  19.950  26.490  19.740
   80BOLB   C1A 1901  19.830  26.440  20.360
   80BOLB   C2A 1902  19.630  26.830  20.290
   80BOLB   C3A 1903  19.480  27.260  20.500
   80BOLB   C4A 1904  19.540  27.670  20.690
   80BOLB   C1B 1905  20.030  26.730  19.930
   80BOLB   C2B 1906  20.110  27.050  20.240
   80BOLB   C3B 1907  20.330  27.210  20.600
   80BOLB   C4B 1908  20.640  27.300  20.830
   80BOLB   NC2 1909  20.280  28.780  22.680
   80BOLB   PO2 1910  20.030  28.960  22.530
   80BOLB   GL3 1911  19.800  29.070  22.080
   80BOLB   GL4 1912  19.900  29.430  21.860
   80BOLB   C1C 1913  19.640  28.820  21.630
   80BOLB   C2C 1914  19.600  28.410  21.650
   80BOLB   C3C 1915  19.520  28.050  21.430
   80BOLB   C4C 1916  19.560  27.800  21.030
   80BOLB   C1D 1917  19.590  29.360  21.470
   80BOLB   C2D 1918  19.480  29.000  21.150
   80BOLB   C3D 1919  19.180  28.750  20.870
   80BOLB   C4D 1920  18.840  28.980  20.660
   81BOLB   NC1 1921  22.930  22.690  19.280
   81BOLB   PO1 1922  22.810  22.660  19.740
   81BOLB   GL1 1923  22.910  22.800  20.010
   81BOLB   GL2 1924  23.000  23.180  20.050
   81BOLB   C1A 1925  23.230  22.810  20.330
   81BOLB   C2A 1926  23.530  23.030  20.620
   81BOLB   C3A 1927  23.880  23.020  20.840
   81BOLB   C4A 1928  23.930  23.030  21.250
   81BOLB   C1B 1929  23.180  23.320  20.390
   81BOLB   C2B 1930  23.270  23.430  20.780
   81BOLB   C3B 1931  23.690  23.470  21.190
   81BOLB   C4B 1932  23.890  23.380  21.660
   81BOLB   NC2 1933  25.180  22.940  23.100
   81BOLB   PO2 1934  25.250  22.440  23.080
   81BOLB   GL3 1935  25.160  22.510  22.710
   81BOLB   GL4 1936  24.800  22.680  22.750
   81BOLB   C1C 1937  25.040  22.520  22.310
   81BOLB   C2C 1938  24.690  22.390  22.130
   81BOLB   C3C 1939  24.450  22.640  21.910
   81BOLB   C4C 1940  24.170  22.720  21.530
   81BOLB   C1D 1941  24.530  23.000  22.720
   81BOLB   C2D 1942  24.200  23.180  22.420
   81BOLB   C3D 1943  24.330  23.350  22.010
   81BOLB   C4D 1944  24.700  23.610  21.900
   82BOLB   NC1 1945  16.760  18.890  24.640
   82BOLB   PO1 1946  16.860  18.690  24.230
   82BOLB   GL1 1947  17.020  18.720  23.840
   82BOLB   GL2 1948  16.870  18.460  23.670
   82BOLB   C1A 1949  16.690  18.880  23.440
   82BOLB   C2A 1950  16.890  18.840  23.080
   82BOLB   C3A 1951  17.020  18.780  22.600
   82BOLB   C4A 1952  17.270  19.130  22.540
   82BOLB   C1B 1953  17.210  18.690  23.420
   82BOLB   C2B 1954  17.200  19.090  23.390
   82BOLB   C3B 1955  17.390  19.540  23.520
   82BOLB   C4B 1956  17.370  19.910  23.710
   82BOLB   NC2 1957  17.200  20.720  24.420
   82BOLB   PO2 1958  17.360  20.460  24.600
   82BOLB   GL3 1959  17.500  20.430  24.190
   82BOLB   GL4 1960  17.810  20.210  24.110
   82BOLB   C1C 1961  17.390  20.410  23.660
   82BOLB   C2C 1962  17.320  20.180  23.240
   82BOLB   C3C 1963  17.510  19.750  23.010
   82BOLB   C4C 1964  17.390  19.480  22.720
   82BOLB   C1D 1965  17.840  20.630  23.950
   82BOLB   C2D 1966  17.620  20.830  23.850
   82BOLB   C3D 1967  17.470  20.950  23.490
   82BOLB   C4D 1968  17.360  20.720  23.120
   83BOLB   NC1 1969  16.210  30.410  20.690
   83BOLB   PO1 1970  16.430  30.750  20.640
   83BOLB   GL1 1971  16.530  30.560  20.260
   83BOLB   GL2 1972  16.570  30.730  20.090
   83BOLB   C1A 1973  16.240  30.330  19.960
   83BOLB   C2A 1974  16.190  30.220  19.620
   83BOLB   C3A 1975  16.530  30.130  19.220
   83BOLB   C4A 1976  16.720  30.120  18.790
   83BOLB   C1B 1977  16.860  30.620  19.820
   83BOLB   C2B 1978  17.230  30.440  19.540
   83BOLB   C3B 1979  17.520  30.370  19.280
   83BOLB   C4B 1980  18.040  30.220  19.340
   83BOLB   NC2 1981  16.860  32.440  19.240
   83BOLB   PO2 1982  17.150  32.220  18.990
   83BOLB   GL3 1983  17.410  31.930  18.780
   83BOLB   GL4 1984  17.190  31.940  18.560
   83BOLB   C1C 1985  17.440  31.590  18.700
   83BOLB   C2C 1986  17.230  31.250  18.420
   83BOLB   C3C 1987  17.000  30.920  18.480
   83BOLB   C4C 1988  16.890  30.490  18.470
   83BOLB   C1D 1989  16.910  31.630  18.420
   83BOLB   C2D 1990  16.480  31.340  18.390
   83BOLB   C3D 1991  16.710  31.040  18.110
   83BOLB   C4D 1992  16.670  30.740  17.800
   84BOLB   NC1 1993  11.240  26.310  11.640
   84BOLB   PO1 1994  10.930  26.300  11.880
   84BOLB   GL1 1995  10.530  26.160  11.830
   84BOLB   GL2 1996  10.540  26.240  12.200
   84BOLB   C1A 1997  10.130  26.380  11.790
   84BOLB   C2A 1998   9.780  26.590  11.920
   84BOLB   C3A 1999   9.410  26.810  12.110
   84BOLB   C4A 2000   9.170  27.260  12.290
   84BOLB   C1B 2001  10.250  26.620  12.210
   84BOLB   C2B 2002   9.980  26.800  12.470
   84BOLB   C3B 2003   9.670  26.990  12.750
   84BOLB   C4B 2004   9.600  27.120  13.240
   84BOLB   NC2 2005   7.180  28.560  12.280
   84BOLB   PO2 2006   7.500  28.900  12.170
   84BOLB   GL3 2007   7.730  28.600  12.340
   84BOLB   GL4 2008   8.000  28.550  12.590
   84BOLB   C1C 2009   8.000  28.250  12.140
   84BOLB   C2C 2010   8.300  28.010  11.930
   84BOLB   C3C 2011   8.650  27.820  12.020
   84BOLB   C4C 2012   8.980  27.590  12.130
   84BOLB   C1D 2013   7.880  28.120  12.680
   84BOLB   C2D 2014   7.880  27.730  12.580
   84BOLB   C3D 2015   7.660  27.320  12.440
   84BOLB   C4D 2016   7.660  26.920  12.290
   85BOLB   NC1 2017   9.930  18.590  15.740
   85BOLB   PO1 2018   9.550  18.570  15.340
   85BOLB   GL1 2019   9.430  18.200  15.300
   85BOLB   GL2 2020   9.500  17.920  15.510
   85BOLB   C1A 2021   9.110  18.040  15.090
   85BOLB   C2A 2022   8.730  18.020  15.100
   85BOLB   C3A 2023   8.440  17.670  15.160
   85BOLB   C4A 2024   8.420  17.290  14.960
   85BOLB   C1B 2025   9.910  17.880  15.370
   85BOLB   C2B 2026  10.300  17.680  15.210
   85BOLB   C3B 2027  10.410  17.460  14.870
   85BOLB   C4B 2028  10.750  17.040  14.650
   85BOLB   NC2 2029   7.030  15.410  14.360
   85BOLB   PO2 2030   7.000  15.880  14.300
   85BOLB   GL3 2031   7.010  16.210  14.690
   85BOLB   GL4 2032   6.950  16.580  14.640
   85BOLB   C1C 2033   7.210  16.250  15.100
   85BOLB   C2C 2034   7.580  16.580  15.080
   85BOLB   C3C 2035   7.950  16.790  15.050
   85BOLB   C4C 2036   8.310  16.950  15.130
   85BOLB   C1D 2037   7.260  16.830  14.690
   85BOLB   C2D 2038   7.640  17.120  14.550
   85BOLB   C3D 2039   7.620  17.600  14.680
   85BOLB   C4D 2040   7.800  17.920  14.750
   86BOLB   NC1 2041  20.060  25.700  20.030
   86BOLB   PO1 2042  19.840  25.230  19.970
   86BOLB   GL1 2043  19.740  25.390  20.410
   86BOLB   GL2 2044  19.630  25.760  20.390
   86BOLB   C1A 2045  19.850  25.550  20.850
   86BOLB   C2A 2046  20.210  25.840  21.050
   86BOLB   C3A 2047  20.000  26.210  21.350
   86BOLB   C4A 2048  20.090  26.590  21.510
   86BOLB   C1B 2049  19.840  26.010  20.660
   86BOLB   C2B 2050  19.890  26.370  20.890
   86BOLB   C3B 2051  19.750  26.670  21.120
   86BOLB   C4B 2052  19.600  26.920  21.570
   86BOLB   NC2 2053  21.850  26.190  23.480
   86BOLB   PO2 2054  21.290  26.370  23.320
   86BOLB   GL3 2055  21.070  26.610  23.060
   86BOLB   GL4 2056  20.820  26.820  23.160
   86BOLB   C1C 2057  20.950  26.840  22.630
   86BOLB   C2C 2058  20.830  26.910  22.220
   86BOLB   C3C 2059  20.480  27.020  22.020
   86BOLB   C4C 2060  20.170  26.830  21.820
   86BOLB   C1D 2061  20.650  26.440  22.870
   86BOLB   C2D 2062  20.630  26.130  22.480
   86BOLB   C3D 2063  20.470  26.020  22.130
   86BOLB   C4D 2064  20.310  26.210  21.820
   87BOLB   NC1 2065  13.750  12.020  12.190
   87BOLB   PO1 2066  13.720  12.470  12.130
   87BOLB   GL1 2067  13.260  12.480  12.110
   87BOLB   GL2 2068  12.970  12.180  11.910
   87BOLB   C1A 2069  12.910  12.620  12.120
   87BOLB   C2A 2070  12.650  12.980  12.090
   87BOLB   C3A 2071  12.120  13.050  12.040
   87BOLB   C4A 2072  11.870  13.150  11.690
   87BOLB   C1B 2073  12.650  12.530  11.710
   87BOLB   C2B 2074  12.440  12.650  11.320
   87BOLB   C3B 2075  12.150  12.680  10.980
   87BOLB   C4B 2076  11.790  12.490  11.080
   87BOLB   NC2 2077   9.910  13.830  10.110
   87BOLB   PO2 2078   9.870  13.400  10.280
   87BOLB   GL3 2079  10.310  13.520  10.390
   87BOLB   GL4 2080  10.420  13.540  10.700
   87BOLB   C1C 2081  10.740  13.310  10.390
   87BOLB   C2C 2082  11.080  13.320  10.730
   87BOLB   C3C 2083  11.240  13.380  11.090
   87BOLB   C4C 2084  11.580  13.340  11.370
   87BOLB   C1D 2085  10.860  13.740  10.780
   87BOLB   C2D 2086  11.190  13.910  11.150
   87BOLB   C3D 2087  11.560  13.860  11.290
   87BOLB   C4D 2088  11.780  13.680  11.630
   88BOLB   NC1 2089   9.010  20.260  14.930
   88BOLB   PO1 2090   9.040  19.970  15.330
   88BOLB   GL1 2091   8.670  19.650  15.400
   88BOLB   GL2 2092   8.560  19.720  15.060
   88BOLB   C1A 2093   8.220  19.630  15.570
   88BOLB   C2A 2094   7.810  19.740  15.660
   88BOLB   C3A 2095   7.510  19.920  15.940
   88BOLB   C4A 2096   7.330  20.010  16.410
   88BOLB   C1B 2097   8.190  19.660  15.060
   88BOLB   C2B 2098   7.850  19.690  14.940
   88BOLB   C3B 2099   7.460  19.500  14.830
   88BOLB   C4B 2100   7.060  19.410  14.920
   88BOLB   NC2 2101   5.700  19.840  18.250
   88BOLB   PO2 2102   5.530  20.240  18.040
   88BOLB   GL3 2103   5.850  20.150  17.840
   88BOLB   GL4 2104   6.140  20.030  18.030
   88BOLB   C1C 2105   6.140  20.040  17.540
   88BOLB   C2C 2106   6.550  19.860  17.390
   88BOLB   C3C 2107   6.690  20.010  17.020
   88BOLB   C4C 2108   7.040  19.950  16.720
   88BOLB   C1D 2109   6.410  19.630  17.860
   88BOLB   C2D 2110   6.750  19.440  17.680
   88BOLB   C3D 2111   7.080  19.240  17.630
   88BOLB   C4D 2112   7.470  19.190  17.820
   89BOLB   NC1 2113  17.970  28.750  23.030
   89BOLB   PO1 2114  17.650  29.100  22.890
   89BOLB   GL1 2115  17.680  29.000  22.450
   89BOLB   GL2 2116  18.020  28.960  22.480
   89BOLB   C1A 2117  17.540  28.860  22.040
   89BOLB   C2A 2118  17.780  28.730  21.720
   89BOLB   C3A 2119  17.890  28.470  21.490
   89BOLB   C4A 2120  18.210  28.260  21.190
   89BOLB   C1B 2121  17.920  28.610  22.240
   89BOLB   C2B 2122  17.790  28.270  22.110
   89BOLB   C3B 2123  17.810  27.930  21.740
   89BOLB   C4B 2124  18.230  27.690  21.580
   89BOLB   NC2 2125  18.080  28.530  23.550
   89BOLB   PO2 2126  18.310  28.420  23.230
   89BOLB   GL3 2127  18.440  28.530  22.850
   89BOLB   GL4 2128  18.720  28.420  22.730
   89BOLB   C1C 2129  18.230  28.320  22.450
   89BOLB   C2C 2130  18.410  28.000  22.220
   89BOLB   C3C 2131  18.680  28.010  21.810
   89BOLB   C4C 2132  18.530  28.060  21.430
   89BOLB   C1D 2133  18.810  28.000  22.510
   89BOLB   C2D 2134  19.130  27.680  22.520
   89BOLB   C3D 2135  19.320  27.230  22.540
   89BOLB   C4D 2136  19.030  26.850  22.720
   90BOLB   NC1 2137  14.270  15.630  23.050
   90BOLB   PO1 2138  14.680  15.730  23.040
   90BOLB   GL1 2139  14.770  15.780  22.640
   90BOLB   GL2 2140  14.990  15.980  22.500
   90BOLB   C1A 2141  14.570  16.080  22.340
   90BOLB   C2A 2142  14.460  16.020  21.980
   90BOLB   C3A 2143  14.260  15.920  21.560
   90BOLB   C4A 2144  14.090  15.580  21.490
   90BOLB   C1B 2145  14.940  16.400  22.470
   90BOLB   C2B 2146  15.000  16.710  22.070
   90BOLB   C3B 2147  14.980  17.190  22.120
   90BOLB   C4B 2148  15.210  17.620  22.280
   90BOLB   NC2 2149  13.180  13.660  22.970
   90BOLB   PO2 2150  13.470  13.700  22.680
   90BOLB   GL3 2151  13.560  13.990  22.370
   90BOLB   GL4 2152  13.370  14.260  22.560
   90BOLB   C1C 2153  13.660  14.170  22.000
   90BOLB   C2C 2154  13.930  14.510  21.950
   90BOLB   C3C 2155  14.090  14.990  21.880
   90BOLB   C4C 2156  14.300  15.180  21.550
   90BOLB   C1D 2157  13.680  14.430  22.450
   90BOLB   C2D 2158  13.830  14.850  22.320
   90BOLB   C3D 2159  13.900  15.360  22.250
   90BOLB   C4D 2160  13.840  15.780  21.940
   91BOLB   NC1 2161  23.230  27.880  17.270
   91BOLB   PO1 2162  23.660  27.980  17.230
   91BOLB   GL1 2163  23.810  28.350  17.360
   91BOLB   GL2 2164  23.780  28.200  17.660
   91BOLB   C1A 2165  23.990  28.680  17.460
   91BOLB   C2A 2166  24.000  29.110  17.550
   91BOLB   C3A 2167  24.180  29.520  17.830
   91BOLB   C4A 2168  24.180  29.810  18.110
   91BOLB   C1B 2169  24.260  28.290  17.660
   91BOLB   C2B 2170  24.700  28.330  17.540
   91BOLB   C3B 2171  25.040  28.320  17.780
   91BOLB   C4B 2172  25.130  28.010  18.120
   91BOLB   NC2 2173  25.850  31.160  18.390
   91BOLB   PO2 2174  25.780  30.750  18.530
   91BOLB   GL3 2175  25.360  30.690  18.470
   91BOLB   GL4 2176  25.320  30.580  18.180
   91BOLB   C1C 2177  24.980  30.550  18.640
   91BOLB   C2C 2178  24.690  30.360  18.910
   91BOLB   C3C 2179  24.380  30.110  18.870
   91BOLB   C4C 2180  24.120  29.860  18.490
   91BOLB   C1D 2181  25.110  30.190  18.280
   91BOLB   C2D 2182  24.640  30.130  18.400
   91BOLB   C3D 2183  24.280  30.320  18.140
   91BOLB   C4D 2184  24.220  30.630  17.800
   92BOLB   NC1 2185  16.720  11.700  13.290
   92BOLB   PO1 2186  17.180  11.890  13.470
   92BOLB   GL1 2187  17.500  11.590  13.520
   92BOLB   GL2 2188  17.560  11.520  13.760
   92BOLB   C1A 2189  17.510  11.230  13.300
   92BOLB   C2A 2190  17.430  10.830  13.180
   92BOLB   C3A 2191  17.760  10.580  13.240
   92BOLB   C4A 2192  17.860  10.190  13.390
   92BOLB   C1B 2193  17.440  11.320  14.040
   92BOLB   C2B 2194  17.400  10.830  14.110
   92BOLB   C3B 2195  17.190  10.370  14.180
   92BOLB   C4B 2196  16.870  10.050  13.940
   92BOLB   NC2 2197  19.540   7.840  13.000
   92BOLB   PO2 2198  19.320   8.020  13.380
   92BOLB   GL3 2199  19.010   8.430  13.350
   92BOLB   GL4 2200  18.780   8.580  13.100
   92BOLB   C1C 2201  18.710   8.760  13.560
   92BOLB   C2C 2202  18.400   9.040  13.700
   92BOLB   C3C 2203  18.110   9.400  13.590
   92BOLB   C4C 2204  18.030   9.810  13.380
   92BOLB   C1D 2205  18.340   8.610  13.180
   92BOLB   C2D 2206  18.130   8.550  13.540
   92BOLB   C3D 2207  17.670   8.680  13.530
   92BOLB   C4D 2208  17.380   8.780  13.680
   93BOLB   NC1 2209  15.300  20.220  19.630
   93BOLB   PO1 2210  14.910  20.100  19.870
   93BOLB   GL1 2211  15.010  19.950  20.290
   93BOLB   GL2 2212  14.660  19.810  20.310
   93BOLB   C1A 2213  15.110  19.790  20.670
   93BOLB   C2A 2214  15.040  19.660  21.150
   93BOLB   C3A 2215  14.930  19.570  21.590
   93BOLB   C4A 2216  14.670  19.430  21.940
   93BOLB   C1B 2217  14.400  20.000  20.590
   93BOLB   C2B 2218  13.990  20.030  20.800
   93BOLB   C3B 2219  13.980  19.790  21.160
   93BOLB   C4B 2220  14.010  19.830  21.620
   93BOLB   NC2 2221  14.580  19.320  23.990
   93BOLB   PO2 2222  14.880  19.160  24.290
   93BOLB   GL3 2223  15.030  19.080  23.870
   93BOLB   GL4 2224  15.000  19.390  23.700
   93BOLB   C1C 2225  14.900  18.820  23.510
   93BOLB   C2C 2226  14.820  18.870  23.070
   93BOLB   C3C 2227  14.710  18.860  22.550
   93BOLB   C4C 2228  14.750  19.170  22.320
   93BOLB   C1D 2229  14.900  19.340  23.270
   93BOLB   C2D 2230  15.040  19.330  22.890
   93BOLB   C3D 2231  14.980  19.590  22.490
   93BOLB   C4D 2232  15.100  19.770  22.020
   94BOLB   NC1 2233  15.700  28.630  15.720
   94BOLB   PO1 2234  16.050  28.780  15.840
   94BOLB   GL1 2235  15.900  29.130  15.980
   94BOLB   GL2 2236  15.930  29.490  15.830
   94BOLB   C1A 2237  15.630  29.410  16.270
   94BOLB   C2A 2238  15.310  29.710  16.260
   94BOLB   C3A 2239  15.180  30.030  16.250
   94BOLB   C4A 2240  15.280  30.430  16.020
   94BOLB   C1B 2241  15.950  29.880  16.040
   94BOLB   C2B 2242  15.790  30.150  16.430
   94BOLB   C3B 2243  15.510  30.600  16.440
   94BOLB   C4B 2244  15.690  30.990  16.390
   94BOLB   NC2 2245  14.310  32.810  16.440
   94BOLB   PO2 2246  14.720  32.630  16.810
   94BOLB   GL3 2247  14.810  32.240  16.590
   94BOLB   GL4 2248  15.120  32.260  16.470
   94BOLB   C1C 2249  14.930  31.880  16.340
   94BOLB   C2C 2250  15.100  31.610  16.080
   94BOLB   C3C 2251  15.360  31.270  16.100
   94BOLB   C4C 2252  15.440  30.800  15.960
   94BOLB   C1D 2253  15.450  32.170  16.670
   94BOLB   C2D 2254  15.810  31.950  16.700
   94BOLB   C3D 2255  15.950  31.520  16.510
   94BOLB   C4D 2256  16.160  31.080  16.560
   95BOLB   NC1 2257  19.100  26.600  19.490
   95BOLB   PO1 2258  18.690  26.580  19.580
   95BOLB   GL1 2259  18.750  26.910  19.900
   95BOLB   GL2 2260  18.470  27.030  20.010
   95BOLB   C1A 2261  19.000  27.040  20.210
   95BOLB   C2A 2262  19.210  26.670  20.480
   95BOLB   C3A 2263  19.250  26.770  20.980
   95BOLB   C4A 2264  19.150  26.850  21.400
   95BOLB   C1B 2265  18.110  27.250  20.150
   95BOLB   C2B 2266  18.080  27.490  20.520
   95BOLB   C3B 2267  18.060  27.940  20.710
   95BOLB   C4B 2268  18.170  28.200  20.470
   95BOLB   NC2 2269  20.060  28.450  22.960
   95BOLB   PO2 2270  19.750  28.620  22.800
   95BOLB   GL3 2271  19.700  28.520  22.410
   95BOLB   GL4 2272  19.540  28.630  22.060
   95BOLB   C1C 2273  19.350  28.210  22.260
   95BOLB   C2C 2274  19.210  27.980  21.980
   95BOLB   C3C 2275  19.160  27.700  21.600
   95BOLB   C4C 2276  19.130  27.230  21.560
   95BOLB   C1D 2277  19.280  28.980  21.940
   95BOLB   C2D 2278  19.280  29.230  21.800
   95BOLB   C3D 2279  19.050  29.340  21.440
   95BOLB   C4D 2280  19.010  29.300  21.050
   96BOLB   NC1 2281  24.550  26.360  15.840
   96BOLB   PO1 2282  24.640  26.690  16.280
   96BOLB   GL1 2283  24.970  26.830  16.620
   96BOLB   GL2 2284  25.190  27.200  16.500
   96BOLB   C1A 2285  25.180  27.060  17.000
   96BOLB   C2A 2286  25.460  27.340  17.310
   96BOLB   C3A 2287  25.860  27.320  17.590
   96BOLB   C4A 2288  26.380  27.270  17.750
   96BOLB   C1B 2289  25.570  27.360  16.710
   96BOLB   C2B 2290  25.840  27.480  17.060
   96BOLB   C3B 2291  26.210  27.560  17.110
   96BOLB   C4B 2292  26.530  27.850  17.140
   96BOLB   NC2 2293  27.720  28.270  18.960
   96BOLB   PO2 2294  27.730  27.880  19.050
   96BOLB   GL3 2295  27.760  27.790  18.550
   96BOLB   GL4 2296  27.620  27.470  18.490
   96BOLB   C1C 2297  27.990  27.660  18.050
   96BOLB   C2C 2298  27.660  27.400  17.920
   96BOLB   C3C 2299  27.310  27.160  18.080
   96BOLB   C4C 2300  26.780  27.190  17.930
   96BOLB   C1D 2301  27.260  27.540  18.300
   96BOLB   C2D 2302  26.880  27.680  18.210
   96BOLB   C3D 2303  26.360  27.700  18.020
   96BOLB   C4D 2304  25.940  27.820  17.940
   97BOLB   NC1 2305  14.740  24.870  19.050
   97BOLB   PO1 2306  15.070  24.510  19.170
   97BOLB   GL1 2307  15.000  24.830  19.520
   97BOLB   GL2 2308  14.800  25.140  19.430
   97BOLB   C1A 2309  15.030  24.800  19.930
   97BOLB   C2A 2310  15.030  24.790  20.400
   97BOLB   C3A 2311  15.170  24.950  20.710
   97BOLB   C4A 2312  15.000  24.880  21.130
   97BOLB   C1B 2313  14.640  25.140  19.820
   97BOLB   C2B 2314  14.450  25.250  20.240
   97BOLB   C3B 2315  14.070  25.260  20.510
   97BOLB   C4B 2316  14.020  24.990  20.800
   97BOLB   NC2 2317  15.560  25.380  23.830
   97BOLB   PO2 2318  15.120  25.450  23.610
   97BOLB   GL3 2319  15.450  25.200  23.390
   97BOLB   GL4 2320  15.720  25.040  23.470
   97BOLB   C1C 2321  15.530  25.140  22.970
   97BOLB   C2C 2322  15.230  25.140  22.550
   97BOLB   C3C 2323  15.090  24.960  22.140
   97BOLB   C4C 2324  15.130  24.800  21.670
   97BOLB   C1D 2325  15.990  24.860  23.040
   97BOLB   C2D 2326  16.060  24.690  22.760
   97BOLB   C3D 2327  16.040  24.600  22.320
   97BOLB   C4D 2328  16.320  24.530  21.950
   98BOLB   NC1 2329   5.410  21.170  17.220
   98BOLB   PO1 2330   5.380  21.600  17.020
   98BOLB   GL1 2331   5.900  21.450  16.980
   98BOLB   GL2 2332   5.810  21.530  16.620
   98BOLB   C1A 2333   6.240  21.520  17.130
   98BOLB   C2A 2334   6.710  21.590  16.970
   98BOLB   C3A 2335   7.030  21.340  16.840
   98BOLB   C4A 2336   7.470  21.280  16.720
   98BOLB   C1B 2337   6.200  21.290  16.610
   98BOLB   C2B 2338   6.590  21.150  16.470
   98BOLB   C3B 2339   7.040  21.040  16.360
   98BOLB   C4B 2340   7.410  21.000  16.210
   98BOLB   NC2 2341   9.960  21.120  16.340
   98BOLB   PO2 2342   9.570  21.310  16.470
   98BOLB   GL3 2343   9.240  21.440  16.670
   98BOLB   GL4 2344   8.990  21.330  16.600
   98BOLB   C1C 2345   8.980  21.470  17.070
   98BOLB   C2C 2346   8.540  21.370  17.060
   98BOLB   C3C 2347   8.150  21.240  16.880
   98BOLB   C4C 2348   7.830  21.300  16.940
   98BOLB   C1D 2349   8.860  21.830  16.640
   98BOLB   C2D 2350   8.650  22.170  16.730
   98BOLB   C3D 2351   8.380  22.170  16.890
   98BOLB   C4D 2352   7.960  22.200  16.680
   99BOLB   NC1 2353  18.090  34.570  12.730
   99BOLB   PO1 2354  17.930  34.230  13.020
   99BOLB   GL1 2355  17.960  33.790  12.970
   99BOLB   GL2 2356  17.890  33.690  13.270
   99BOLB   C1A 2357  18.200  33.450  12.890
   99BOLB   C2A 2358  18.300  33.060  13.100
   99BOLB   C3A 2359  18.680  32.790  13.050
   99BOLB   C4A 2360  19.130  32.710  13.070
   99BOLB   C1B 2361  17.770  33.150  13.100
   99BOLB   C2B 2362  17.900  32.740  13.070
   99BOLB   C3B 2363  17.730  32.290  12.900
   99BOLB   C4B 2364  17.740  31.950  12.670
   99BOLB   NC2 2365  20.670  34.460  11.930
   99BOLB   PO2 2366  20.500  34.420  12.390
   99BOLB   GL3 2367  20.300  34.010  12.410
   99BOLB   GL4 2368  20.060  33.890  12.700
   99BOLB   C1C 2369  20.070  33.490  12.230
   99BOLB   C2C 2370  19.860  33.090  12.170
   99BOLB   C3C 2371  19.710  32.770  12.440
   99BOLB   C4C 2372  19.470  32.610  12.730
   99BOLB   C1D 2373  20.400  33.540  12.640
   99BOLB   C2D 2374  20.660  33.210  12.720
   99BOLB   C3D 2375  20.880  33.010  13.060
   99BOLB   C4D 2376  20.790  33.220  13.500
  100BOLB   NC1 2377   5.350  22.540  16.970
  100BOLB   PO1 2378   5.510  22.980  16.810
  100BOLB   GL1 2379   5.780  23.180  16.580
  100BOLB   GL2 2380   6.010  23.240  16.770
  100BOLB   C1A 2381   6.220  23.480  16.340
  100BOLB   C2A 2382   6.620  23.510  15.890
  100BOLB   C3A 2383   7.040  23.330  15.900
  100BOLB   C4A 2384   7.400  23.250  16.130
  100BOLB   C1B 2385   6.150  22.790  16.850
  100BOLB   C2B 2386   6.270  22.450  16.870
  100BOLB   C3B 2387   6.680  22.170  16.840
  100BOLB   C4B 2388   7.010  21.890  16.770
  100BOLB   NC2 2389   9.150  21.510  16.140
  100BOLB   PO2 2390   9.380  21.840  15.910
  100BOLB   GL3 2391   9.160  22.000  16.170
  100BOLB   GL4 2392   9.300  21.930  16.480
  100BOLB   C1C 2393   8.850  22.320  16.290
  100BOLB   C2C 2394   8.430  22.560  16.430
  100BOLB   C3C 2395   8.020  22.700  16.550
  100BOLB   C4C 2396   7.670  22.950  16.420
  100BOLB   C1D 2397   9.190  22.350  16.680
  100BOLB   C2D 2398   8.890  22.510  16.910
  100BOLB   C3D 2399   8.640  22.420  17.270
  100BOLB   C4D 2400   8.440  22.140  17.500
  101BOLB   NC1 2401  13.190  12.130  13.680
  101BOLB   PO1 2402  13.060  12.520  13.520
  101BOLB   GL1 2403  12.760  12.450  13.860
  101BOLB   GL2 2404  12.700  12.110  13.770
  101BOLB   C1A 2405  12.370  12.390  13.990
  101BOLB   C2A 2406  12.190  12.050  14.220
  101BOLB   C3A 2407  11.850  12.040  14.560
  101BOLB   C4A 2408  11.780  12.270  15.060
  101BOLB   C1B 2409  12.700  11.680  13.560
  101BOLB   C2B 2410  12.460  11.470  13.250
  101BOLB   C3B 2411  12.340  11.090  13.120
  101BOLB   C4B 2412  12.000  10.890  12.830
  101BOLB   NC2 2413  12.700  13.580  16.850
  101BOLB   PO2 2414  12.540  13.630  16.510
  101BOLB   GL3 2415  12.130  13.510  16.560
  101BOLB   GL4 2416  12.180  13.450  16.890
  101BOLB   C1C 2417  12.010  13.070  16.440
  101BOLB   C2C 2418  11.730  12.820  16.030
  101BOLB   C3C 2419  11.490  12.590  15.610
  101BOLB   C4C 2420  11.620  12.260  15.420
  101BOLB   C1D 2421  12.300  13.030  17.040
  101BOLB   C2D 2422  12.410  12.660  17.280
  101BOLB   C3D 2423  12.540  12.460  17.530
  101BOLB   C4D 2424  12.700  12.000  17.730
  102BOLB   NC1 2425  22.050  29.000  16.370
  102BOLB   PO1 2426  22.190  28.670  16.690
  102BOLB   GL1 2427  22.460  29.080  16.820
  102BOLB   GL2 2428  22.280  29.340  16.720
  102BOLB   C1A 2429  22.540  29.330  17.150
  102BOLB   C2A 2430  22.680  29.760  17.130
  102BOLB   C3A 2431  22.650  30.130  17.290
  102BOLB   C4A 2432  22.750  30.500  17.450
  102BOLB   C1B 2433  22.220  29.780  16.910
  102BOLB   C2B 2434  22.140  30.170  17.120
  102BOLB   C3B 2435  22.070  30.410  17.460
  102BOLB   C4B 2436  21.930  30.470  17.900
  102BOLB   NC2 2437  22.150  32.970  17.280
  102BOLB   PO2 2438  22.540  32.870  17.440
  102BOLB   GL3 2439  22.630  32.540  17.310
  102BOLB   GL4 2440  22.820  32.210  17.370
  102BOLB   C1C 2441  22.450  32.180  17.070
  102BOLB   C2C 2442  22.590  31.680  17.130
  102BOLB   C3C 2443  22.620  31.200  17.200
  102BOLB   C4C 2444  22.630  30.930  17.430
  102BOLB   C1D 2445  22.940  31.860  17.520
  102BOLB   C2D 2446  23.020  31.460  17.270
  102BOLB   C3D 2447  23.280  31.170  17.280
  102BOLB   C4D 2448  23.150  30.810  17.300
  103BOLB   NC1 2449   5.100  25.440  12.880
  103BOLB   PO1 2450   5.320  25.700  12.610
  103BOLB   GL1 2451   5.640  25.450  12.880
  103BOLB   GL2 2452   5.520  25.170  13.020
  103BOLB   C1A 2453   6.120  25.430  13.000
  103BOLB   C2A 2454   6.590  25.260  13.080
  103BOLB   C3A 2455   6.800  24.930  12.860
  103BOLB   C4A 2456   7.190  24.710  13.040
  103BOLB   C1B 2457   5.730  24.850  12.910
  103BOLB   C2B 2458   6.030  24.610  12.710
  103BOLB   C3B 2459   6.450  24.570  12.870
  103BOLB   C4B 2460   6.810  24.360  12.850
  103BOLB   NC2 2461   8.560  22.560  12.280
  103BOLB   PO2 2462   8.620  22.790  12.730
  103BOLB   GL3 2463   8.240  22.890  12.820
  103BOLB   GL4 2464   8.060  22.760  13.020
  103BOLB   C1C 2465   7.860  23.160  12.830
  103BOLB   C2C 2466   7.650  23.550  13.130
  103BOLB   C3C 2467   7.560  23.970  13.220
  103BOLB   C4C 2468   7.290  24.290  13.170
  103BOLB   C1D 2469   7.840  22.800  13.400
  103BOLB   C2D 2470   7.400  23.010  13.380
  103BOLB   C3D 2471   7.080  22.790  13.070
  103BOLB   C4D 2472   6.690  22.830  12.840
  104BOLB   NC1 2473  17.600  34.030  14.480
  104BOLB   PO1 2474  17.290  34.190  14.240
  104BOLB   GL1 2475  17.120  33.720  14.380
  104BOLB   GL2 2476  17.320  33.650  14.190
  104BOLB   C1A 2477  17.150  33.140  14.410
  104BOLB   C2A 2478  17.330  32.680  14.540
  104BOLB   C3A 2479  17.490  32.300  14.680
  104BOLB   C4A 2480  17.180  32.110  14.650
  104BOLB   C1B 2481  17.700  33.410  14.150
  104BOLB   C2B 2482  17.600  33.000  14.270
  104BOLB   C3B 2483  17.700  32.610  14.130
  104BOLB   C4B 2484  17.940  32.360  13.890
  104BOLB   NC2 2485  16.970  34.120  14.600
  104BOLB   PO2 2486  16.520  34.000  14.380
  104BOLB   GL3 2487  16.680  33.590  14.150
  104BOLB   GL4 2488  16.890  33.590  13.840
  104BOLB   C1C 2489  16.770  33.140  14.070
  104BOLB   C2C 2490  16.780  32.760  14.230
  104BOLB   C3C 2491  16.600  32.460  14.410
  104BOLB   C4C 2492  16.860  32.170  14.430
  104BOLB   C1D 2493  17.250  33.250  13.880
  104BOLB   C2D 2494  17.180  32.760  13.970
  104BOLB   C3D 2495  17.340  32.270  14.020
  104BOLB   C4D 2496  17.440  31.960  14.290
  105BOLB   NC1 2497  21.440  24.140  19.600
  105BOLB   PO1 2498  21.410  23.920  19.990
  105BOLB   GL1 2499  21.230  24.230  20.330
  105BOLB   GL2 2500  21.450  24.380  20.380
  105BOLB   C1A 2501  21.130  24.400  20.830
  105BOLB   C2A 2502  21.230  24.860  20.950
  105BOLB   C3A 2503  21.090  25.240  21.250
  105BOLB   C4A 2504  21.190  25.490  21.690
  105BOLB   C1B 2505  21.620  24.510  20.800
  105BOLB   C2B 2506  21.760  24.630  21.260
  105BOLB   C3B 2507  21.790  24.690  21.640
  105BOLB   C4B 2508  21.570  24.690  22.070
  105BOLB   NC2 2509  22.020  25.290  23.800
  105BOLB   PO2 2510  21.520  25.420  23.930
  105BOLB   GL3 2511  21.540  25.010  23.750
  105BOLB   GL4 2512  21.820  24.980  23.420
  105BOLB   C1C 2513  21.250  24.910  23.440
  105BOLB   C2C 2514  21.040  24.980  23.070
  105BOLB   C3C 2515  21.030  25.250  22.580
  105BOLB   C4C 2516  21.190  25.410  22.140
  105BOLB   C1D 2517  21.680  24.830  23.000
  105BOLB   C2D 2518  21.370  24.860  22.680
  105BOLB   C3D 2519  21.170  24.880  22.220
  105BOLB   C4D 2520  21.100  24.600  21.860
  106BOLB   NC1 2521  17.120  29.520  14.170
  106BOLB   PO1 2522  17.500  29.670  14.460
  106BOLB   GL1 2523  17.690  30.120  14.460
  106BOLB   GL2 2524  17.790  30.220  14.190
  106BOLB   C1A 2525  17.430  30.490  14.560
  106BOLB   C2A 2526  17.310  30.770  14.250
  106BOLB   C3A 2527  17.340  31.130  14.130
  106BOLB   C4A 2528  17.370  31.500  14.370
  106BOLB   C1B 2529  17.750  30.660  14.080
  106BOLB   C2B 2530  17.780  31.010  13.840
  106BOLB   C3B 2531  18.040  31.390  13.910
  106BOLB   C4B 2532  17.970  31.890  13.840
  106BOLB   NC2 2533  16.530  33.740  15.280
  106BOLB   PO2 2534  16.610  33.510  15.630
  106BOLB   GL3 2535  16.840  33.200  15.610
  106BOLB   GL4 2536  16.920  33.030  15.820
  106BOLB   C1C 2537  16.820  32.800  15.340
  106BOLB   C2C 2538  17.130  32.460  15.370
  106BOLB   C3C 2539  17.280  32.050  15.180
  106BOLB   C4C 2540  17.370  31.700  14.830
  106BOLB   C1D 2541  17.410  33.140  16.000
  106BOLB   C2D 2542  17.720  32.850  16.300
  106BOLB   C3D 2543  18.070  32.620  16.350
  106BOLB   C4D 2544  18.300  32.210  16.280
  107BOLB   NC1 2545  24.130  18.310  22.550
  107BOLB   PO1 2546  24.620  18.420  22.360
  107BOLB   GL1 2547  24.240  18.400  22.060
  107BOLB   GL2 2548  24.230  18.100  21.850
  107BOLB   C1A 2549  23.990  18.570  21.760
  107BOLB   C2A 2550  23.550  18.590  21.730
  107BOLB   C3A 2551  23.090  18.800  21.750
  107BOLB   C4A 2552  22.650  18.920  21.900
  107BOLB   C1B 2553  24.150  18.170  21.470
  107BOLB   C2B 2554  24.180  18.550  21.250
  107BOLB   C3B 2555  24.470  18.620  20.870
  107BOLB   C4B 2556  24.690  18.900  20.710
  107BOLB   NC2 2557  21.440  18.730  24.080
  107BOLB   PO2 2558  21.780  18.680  23.890
  107BOLB   GL3 2559  21.810  18.930  23.530
  107BOLB   GL4 2560  21.790  18.710  23.330
  107BOLB   C1C 2561  21.910  19.160  23.190
  107BOLB   C2C 2562  22.240  19.050  23.010
  107BOLB   C3C 2563  22.500  19.170  22.720
  107BOLB   C4C 2564  22.650  19.170  22.240
  107BOLB   C1D 2565  21.850  18.720  22.830
  107BOLB   C2D 2566  22.070  18.860  22.430
  107BOLB   C3D 2567  22.120  19.070  22.070
  107BOLB   C4D 2568  22.060  19.420  21.760
  108BOLB   NC1 2569  10.630  20.850  17.750
  108BOLB   PO1 2570  11.000  21.100  18.060
  108BOLB   GL1 2571  10.890  21.270  18.350
  108BOLB   GL2 2572  11.120  21.260  18.550
  108BOLB   C1A 2573  10.700  21.410  18.820
  108BOLB   C2A 2574  10.630  21.420  19.270
  108BOLB   C3A 2575  10.760  21.600  19.700
  108BOLB   C4A 2576  10.790  21.510  20.110
  108BOLB   C1B 2577  11.050  20.990  18.860
  108BOLB   C2B 2578  10.880  20.830  19.200
  108BOLB   C3B 2579  10.610  20.870  19.580
  108BOLB   C4B 2580  10.180  20.780  19.780
  108BOLB   NC2 2581  10.270  23.220  22.360
  108BOLB   PO2 2582  10.260  22.840  22.300
  108BOLB   GL3 2583  10.490  22.700  21.910
  108BOLB   GL4 2584  10.380  22.730  21.550
  108BOLB   C1C 2585  10.780  22.450  21.450
  108BOLB   C2C 2586  10.920  22.030  21.250
  108BOLB   C3C 2587  10.950  21.820  20.910
  108BOLB   C4C 2588  10.760  21.600  20.510
  108BOLB   C1D 2589  10.480  22.590  21.120
  108BOLB   C2D 2590  10.900  22.570  20.940
  108BOLB   C3D 2591  11.300  22.200  20.940
  108BOLB   C4D 2592  11.640  22.260  20.720
  109BOLB   NC1 2593  16.940  27.810  17.780
  109BOLB   PO1 2594  16.960  28.300  17.650
  109BOLB   GL1 2595  16.920  28.550  18.030
  109BOLB   GL2 2596  16.980  28.380  18.290
  109BOLB   C1A 2597  17.120  28.910  18.180
  109BOLB   C2A 2598  17.450  29.130  18.450
  109BOLB   C3A 2599  17.650  29.180  18.860
  109BOLB   C4A 2600  17.610  29.340  19.250
  109BOLB   C1B 2601  16.840  28.640  18.660
  109BOLB   C2B 2602  16.890  28.640  18.990
  109BOLB   C3B 2603  16.980  28.980  19.310
  109BOLB   C4B 2604  16.840  29.230  19.630
  109BOLB   NC2 2605  17.520  30.790  21.100
  109BOLB   PO2 2606  17.390  30.940  20.790
  109BOLB   GL3 2607  17.420  30.720  20.430
  109BOLB   GL4 2608  17.300  30.790  20.110
  109BOLB   C1C 2609  17.620  30.280  20.370
  109BOLB   C2C 2610  17.490  29.890  20.160
  109BOLB   C3C 2611  17.520  29.510  19.960
  109BOLB   C4C 2612  17.360  29.360  19.620
  109BOLB   C1D 2613  17.620  30.520  19.910
  109BOLB   C2D 2614  17.670  30.180  19.730
  109BOLB   C3D 2615  17.600  29.850  19.550
  109BOLB   C4D 2616  17.940  29.770  19.290
  110BOLB   NC1 2617  16.540  21.670  20.090
  110BOLB   PO1 2618  16.500  21.940  20.470
  110BOLB   GL1 2619  16.100  22.210  20.600
  110BOLB   GL2 2620  15.960  22.070  20.910
  110BOLB   C1A 2621  15.800  22.470  20.660
  110BOLB   C2A 2622  15.540  22.640  21.000
  110BOLB   C3A 2623  15.490  22.630  21.410
  110BOLB   C4A 2624  15.500  22.860  21.760
  110BOLB   C1B 2625  15.750  22.200  21.250
  110BOLB   C2B 2626  15.820  22.310  21.680
  110BOLB   C3B 2627  15.950  22.080  22.040
  110BOLB   C4B 2628  16.290  21.790  22.200
  110BOLB   NC2 2629  15.160  23.210  24.200
  110BOLB   PO2 2630  15.180  23.610  23.930
  110BOLB   GL3 2631  15.280  23.870  23.570
  110BOLB   GL4 2632  15.440  24.180  23.540
  110BOLB   C1C 2633  15.510  23.710  23.190
  110BOLB   C2C 2634  15.540  23.400  22.850
  110BOLB   C3C 2635  15.690  23.130  22.520
  110BOLB   C4C 2636  15.740  23.020  22.050
  110BOLB   C1D 2637  15.310  24.180  23.090
  110BOLB   C2D 2638  15.450  23.930  22.730
  110BOLB   C3D 2639  15.440  23.830  22.340
  110BOLB   C4D 2640  15.450  23.890  21.830
  111BOLB   NC1 2641  19.640  20.800  20.020
  111BOLB   PO1 2642  19.280  20.720  20.370
  111BOLB   GL1 2643  19.280  20.860  20.750
  111BOLB   GL2 2644  19.290  21.230  20.680
  111BOLB   C1A 2645  19.430  20.910  21.100
  111BOLB   C2A 2646  19.550  20.690  21.450
  111BOLB   C3A 2647  19.510  20.440  21.770
  111BOLB   C4A 2648  19.680  20.330  22.190
  111BOLB   C1B 2649  19.340  21.470  21.120
  111BOLB   C2B 2650  19.160  21.560  21.520
  111BOLB   C3B 2651  19.290  21.480  21.830
  111BOLB   C4B 2652  19.680  21.510  22.030
  111BOLB   NC2 2653  21.370  19.570  24.210
  111BOLB   PO2 2654  21.230  19.890  24.110
  111BOLB   GL3 2655  21.190  20.060  23.740
  111BOLB   GL4 2656  21.440  20.010  23.680
  111BOLB   C1C 2657  20.750  20.110  23.650
  111BOLB   C2C 2658  20.380  20.140  23.250
  111BOLB   C3C 2659  20.250  20.130  22.840
  111BOLB   C4C 2660  20.000  20.250  22.540
  111BOLB   C1D 2661  21.460  20.330  23.330
  111BOLB   C2D 2662  21.370  20.250  22.940
  111BOLB   C3D 2663  21.180  19.890  22.600
  111BOLB   C4D 2664  20.800  19.840  22.320
  112BOLB   NC1 2665  26.530  20.430  21.580
  112BOLB   PO1 2666  26.350  20.680  21.780
  112BOLB   GL1 2667  26.020  20.390  21.590
  112BOLB   GL2 2668  26.050  20.090  21.720
  112BOLB   C1A 2669  25.790  20.430  21.080
  112BOLB   C2A 2670  25.780  20.510  20.590
  112BOLB   C3A 2671  25.530  20.390  20.190
  112BOLB   C4A 2672  25.400  20.000  20.030
  112BOLB   C1B 2673  25.710  19.960  21.420
  112BOLB   C2B 2674  25.470  20.020  20.960
  112BOLB   C3B 2675  25.300  20.340  20.740
  112BOLB   C4B 2676  24.960  20.630  20.510
  112BOLB   NC2 2677  26.360  18.220  21.010
  112BOLB   PO2 2678  26.200  18.320  21.400
  112BOLB   GL3 2679  25.850  18.300  21.040
  112BOLB   GL4 2680  25.990  18.540  20.810
  112BOLB   C1C 2681  25.520  18.430  20.730
  112BOLB   C2C 2682  25.550  18.740  20.420
  112BOLB   C3C 2683  25.530  19.110  20.340
  112BOLB   C4C 2684  25.550  19.520  20.340
  112BOLB   C1D 2685  25.930  18.310  20.470
  112BOLB   C2D 2686  25.760  18.420  20.060
  112BOLB   C3D 2687  25.620  18.790  19.920
  112BOLB   C4D 2688  25.580  19.240  19.810
  113BOLB   NC1 2689   8.920  21.680  11.260
  113BOLB   PO1 2690   8.950  21.970  11.470
  113BOLB   GL1 2691   8.710  22.130  11.120
  113BOLB   GL2 2692   8.610  21.880  10.980
  113BOLB   C1A 2693   8.410  22.440  10.940
  113BOLB   C2A 2694   7.960  22.690  11.110
  113BOLB   C3A 2695   7.510  22.650  11.070
  113BOLB   C4A 2696   7.140  22.950  11.070
  113BOLB   C1B 2697   8.300  21.950  10.730
  113BOLB   C2B 2698   8.040  21.980  10.470
  113BOLB   C3B 2699   7.570  22.140  10.470
  113BOLB   C4B 2700   7.380  22.480  10.540
  113BOLB   NC2 2701   4.860  23.660  10.080
  113BOLB   PO2 2702   4.730  23.300  10.350
  113BOLB   GL3 2703   5.150  23.200  10.370
  113BOLB   GL4 2704   5.150  23.120  10.760
  113BOLB   C1C 2705   5.630  23.180  10.510
  113BOLB   C2C 2706   6.080  23.130  10.580
  113BOLB   C3C 2707   6.520  22.970  10.650
  113BOLB   C4C 2708   6.880  22.960  10.750
  113BOLB   C1D 2709   5.380  22.910  10.880
  113BOLB   C2D 2710   5.830  22.830  10.920
  113BOLB   C3D 2711   6.210  22.810  11.110
  113BOLB   C4D 2712   6.650  22.800  11.220
  114BOLB   NC1 2713  17.120  28.130  17.210
  114BOLB   PO1 2714  17.500  28.380  17.070
  114BOLB   GL1 2715  17.280  28.660  17.400
  114BOLB   GL2 2716  16.910  28.600  17.240
  114BOLB   C1A 2717  17.050  28.920  17.640
  114BOLB   C2A 2718  16.800  29.260  17.790
  114BOLB   C3A 2719  16.480  29.510  17.930
  114BOLB   C4A 2720  16.370  29.890  17.960
  114BOLB   C1B 2721  16.740  29.010  17.220
  114BOLB   C2B 2722  16.360  29.210  17.440
  114BOLB   C3B 2723  16.140  29.610  17.450
  114BOLB   C4B 2724  15.930  29.660  17.800
  114BOLB   NC2 2725  16.560  31.970  19.940
  114BOLB   PO2 2726  16.800  31.620  19.850
  114BOLB   GL3 2727  16.910  31.400  19.390
  114BOLB   GL4 2728  17.210  31.170  19.490
  114BOLB   C1C 2729  16.700  31.330  19.020
  114BOLB   C2C 2730  16.660  30.950  18.850
  114BOLB   C3C 2731  16.450  30.760  18.480
  114BOLB   C4C 2732  16.410  30.380  18.150
  114BOLB   C1D 2733  17.540  30.860  19.350
  114BOLB   C2D 2734  17.860  30.690  19.530
  114BOLB   C3D 2735  18.190  30.450  19.730
  114BOLB   C4D 2736  18.460  30.100  19.820
  115BOLB   NC1 2737   6.320  24.360  17.160
  115BOLB   PO1 2738   6.210  24.760  17.110
  115BOLB   GL1 2739   6.480  24.620  16.760
  115BOLB   GL2 2740   6.510  24.770  16.350
  115BOLB   C1A 2741   6.670  24.360  16.580
  115BOLB   C2A 2742   7.040  24.270  16.270
  115BOLB   C3A 2743   7.270  24.260  15.920
  115BOLB   C4A 2744   7.780  24.160  15.880
  115BOLB   C1B 2745   6.590  24.380  16.090
  115BOLB   C2B 2746   6.790  24.130  15.830
  115BOLB   C3B 2747   7.020  23.800  15.680
  115BOLB   C4B 2748   7.250  23.390  15.510
  115BOLB   NC2 2749   9.820  23.260  15.050
  115BOLB   PO2 2750   9.510  22.870  15.210
  115BOLB   GL3 2751   9.270  23.100  15.320
  115BOLB   GL4 2752   9.420  23.460  15.200
  115BOLB   C1C 2753   8.830  23.060  15.400
  115BOLB   C2C 2754   8.610  23.390  15.640
  115BOLB   C3C 2755   8.250  23.470  15.740
  115BOLB   C4C 2756   8.030  23.830  15.800
  115BOLB   C1D 2757   9.000  23.610  15.320
  115BOLB   C2D 2758   8.710  23.890  15.270
  115BOLB   C3D 2759   8.480  24.220  15.420
  115BOLB   C4D 2760   8.080  24.250  15.520
  116BOLB   NC1 2761  24.230  27.240   9.880
  116BOLB   PO1 2762  24.040  27.640  10.090
  116BOLB   GL1 2763  24.250  27.780   9.810
  116BOLB   GL2 2764  24.310  28.020   9.930
  116BOLB   C1A 2765  24.560  27.960   9.440
  116BOLB   C2A 2766  24.680  28.120   9.010
  116BOLB   C3A 2767  24.870  28.200   8.670
  116BOLB   C4A 2768  24.590  28.400   8.440
  116BOLB   C1B 2769  24.770  28.110   9.840
  116BOLB   C2B 2770  25.140  28.200   9.890
  116BOLB   C3B 2771  25.470  28.170   9.570
  116BOLB   C4B 2772  25.760  27.990   9.270
  116BOLB   NC2 2773  26.270  29.220   6.640
  116BOLB   PO2 2774  25.900  29.490   6.640
  116BOLB   GL3 2775  25.820  29.210   7.010
  116BOLB   GL4 2776  26.070  28.960   7.040
  116BOLB   C1C 2777  25.610  29.040   7.240
  116BOLB   C2C 2778  25.450  28.960   7.670
  116BOLB   C3C 2779  25.050  28.760   8.040
  116BOLB   C4C 2780  24.690  28.700   8.280
  116BOLB   C1D 2781  25.890  28.600   7.340
  116BOLB   C2D 2782  25.520  28.460   7.630
  116BOLB   C3D 2783  25.200  28.270   7.850
  116BOLB   C4D 2784  25.170  28.330   8.330
  117BOLB   NC1 2785  17.660  12.280  10.900
  117BOLB   PO1 2786  17.440  12.400  10.620
  117BOLB   GL1 2787  17.450  11.960  10.430
  117BOLB   GL2 2788  17.750  11.850  10.570
  117BOLB   C1A 2789  17.260  11.700  10.150
  117BOLB   C2A 2790  17.260  11.310   9.940
  117BOLB   C3A 2791  17.740  11.140   9.820
  117BOLB   C4A 2792  17.940  10.730  10.100
  117BOLB   C1B 2793  17.880  11.400  10.630
  117BOLB   C2B 2794  18.150  11.050  10.710
  117BOLB   C3B 2795  18.200  10.460  10.670
  117BOLB   C4B 2796  18.440   9.970  10.810
  117BOLB   NC2 2797  19.210   8.680  10.600
  117BOLB   PO2 2798  19.020   8.530  10.270
  117BOLB   GL3 2799  18.890   8.910  10.270
  117BOLB   GL4 2800  19.100   9.120  10.260
  117BOLB   C1C 2801  18.640   9.330  10.260
  117BOLB   C2C 2802  18.500   9.650  10.360
  117BOLB   C3C 2803  18.290  10.050  10.330
  117BOLB   C4C 2804  17.920  10.390  10.250
  117BOLB   C1D 2805  18.960   9.510  10.590
  117BOLB   C2D 2806  18.930   9.900  10.580
  117BOLB   C3D 2807  18.780  10.330  10.780
  117BOLB   C4D 2808  18.570  10.730  10.800
  118BOLB   NC1 2809  18.800  13.330  22.250
  118BOLB   PO1 2810  18.720  13.650  22.520
  118BOLB   GL1 2811  18.840  13.950  22.140
  118BOLB   GL2 2812  18.970  13.740  21.920
  118BOLB   C1A 2813  19.020  14.200  21.900
  118BOLB   C2A 2814  19.140  14.410  21.560
  118BOLB   C3A 2815  19.060  14.430  21.150
  118BOLB   C4A 2816  19.200  14.330  20.780
  118BOLB   C1B 2817  19.060  13.750  21.390
  118BOLB   C2B 2818  19.020  13.820  20.940
  118BOLB   C3B 2819  18.730  14.150  20.620
  118BOLB   C4B 2820  18.560  14.180  20.150
  118BOLB   NC2 2821  19.080  15.980  18.120
  118BOLB   PO2 2822  18.960  15.680  18.590
  118BOLB   GL3 2823  18.990  15.310  18.960
  118BOLB   GL4 2824  18.800  15.060  19.080
  118BOLB   C1C 2825  19.200  15.180  19.400
  118BOLB   C2C 2826  19.270  14.760  19.650
  118BOLB   C3C 2827  19.520  14.730  20.120
  118BOLB   C4C 2828  19.410  14.580  20.500
  118BOLB   C1D 2829  18.800  14.950  19.570
  118BOLB   C2D 2830  18.810  14.510  19.790
  118BOLB   C3D 2831  19.190  14.310  19.700
  118BOLB   C4D 2832  19.600  14.270  19.880
  119BOLB   NC1 2833  16.340  13.580  17.510
  119BOLB   PO1 2834  16.080  13.380  17.460
  119BOLB   GL1 2835  15.870  13.210  17.700
  119BOLB   GL2 2836  15.610  13.130  17.630
  119BOLB   C1A 2837  15.910  12.900  17.960
  119BOLB   C2A 2838  15.990  12.590  18.320
  119BOLB   C3A 2839  16.230  12.480  18.670
  119BOLB   C4A 2840  16.580  12.290  18.840
  119BOLB   C1B 2841  15.500  12.770  17.760
  119BOLB   C2B 2842  15.520  12.600  18.270
  119BOLB   C3B 2843  15.560  12.270  18.330
  119BOLB   C4B 2844  15.850  11.990  18.390
  119BOLB   NC2 2845  18.090  10.530  19.870
  119BOLB   PO2 2846  17.700  10.310  19.750
  119BOLB   GL3 2847  17.700  10.710  19.640
  119BOLB   GL4 2848  17.960  10.950  19.660
  119BOLB   C1C 2849  17.540  11.160  19.480
  119BOLB   C2C 2850  17.280  11.500  19.350
  119BOLB   C3C 2851  16.930  11.770  19.310
  119BOLB   C4C 2852  16.630  12.080  19.150
  119BOLB   C1D 2853  18.130  11.310  19.330
  119BOLB   C2D 2854  18.000  11.700  19.020
  119BOLB   C3D 2855  17.820  11.780  18.630
  119BOLB   C4D 2856  17.320  11.630  18.440
  120BOLB   NC1 2857  13.600  11.680  13.030
  120BOLB   PO1 2858  13.790  11.760  12.620
  120BOLB   GL1 2859  13.470  11.460  12.590
  120BOLB   GL2 2860  13.490  11.160  12.760
  120BOLB   C1A 2861  13.190  11.210  12.330
  120BOLB   C2A 2862  13.110  10.870  12.520
  120BOLB   C3A 2863  13.310  10.690  12.830
  120BOLB   C4A 2864  13.360  10.390  13.140
  120BOLB   C1B 2865  13.370  11.000  13.230
  120BOLB   C2B 2866  13.110  11.100  13.490
  120BOLB   C3B 2867  12.860  11.020  13.890
  120BOLB   C4B 2868  12.700  10.680  13.890
  120BOLB   NC2 2869  13.050   7.700  13.440
  120BOLB   PO2 2870  12.930   8.020  13.720
  120BOLB   GL3 2871  13.090   8.330  13.390
  120BOLB   GL4 2872  13.350   8.120  13.240
  120BOLB   C1C 2873  13.230   8.700  13.230
  120BOLB   C2C 2874  13.220   9.150  13.240
  120BOLB   C3C 2875  13.480   9.500  13.340
  120BOLB   C4C 2876  13.530   9.960  13.290
  120BOLB   C1D 2877  13.680   8.460  13.430
  120BOLB   C2D 2878  14.110   8.660  13.560
  120BOLB   C3D 2879  14.460   8.970  13.550
  120BOLB   C4D 2880  14.570   9.200  13.880
  121BOLB   NC1 2881  10.360  14.110  22.570
  121BOLB   PO1 2882  10.880  14.050  22.500
  121BOLB   GL1 2883  10.800  14.250  22.040
  121BOLB   GL2 2884  10.970  14.480  21.960
  121BOLB   C1A 2885  10.740  14.220  21.520
  121BOLB   C2A 2886  10.850  14.320  21.110
  121BOLB   C3A 2887  11.190  14.460  20.760
  121BOLB   C4A 2888  11.190  14.400  20.360
  121BOLB   C1B 2889  11.140  14.980  21.720
  121BOLB   C2B 2890  11.220  15.460  21.660
  121BOLB   C3B 2891  11.420  15.740  21.330
  121BOLB   C4B 2892  11.810  15.660  21.120
  121BOLB   NC2 2893  10.350  12.600  21.250
  121BOLB   PO2 2894  10.700  12.880  21.150
  121BOLB   GL3 2895  10.750  13.350  20.830
  121BOLB   GL4 2896  11.010  13.180  20.730
  121BOLB   C1C 2897  10.710  13.450  20.480
  121BOLB   C2C 2898  10.610  13.710  20.180
  121BOLB   C3C 2899  10.700  14.110  19.930
  121BOLB   C4C 2900  11.010  14.290  19.850
  121BOLB   C1D 2901  11.320  13.290  20.410
  121BOLB   C2D 2902  11.500  13.410  19.980
  121BOLB   C3D 2903  11.830  13.700  19.790
  121BOLB   C4D 2904  12.100  13.640  19.380
  122BOLB   NC1 2905  13.470   8.360  15.390
  122BOLB   PO1 2906  13.680   8.220  15.070
  122BOLB   GL1 2907  13.700   8.650  14.880
  122BOLB   GL2 2908  14.060   8.660  14.940
  122BOLB   C1A 2909  13.840   9.010  15.160
  122BOLB   C2A 2910  14.170   9.260  15.390
  122BOLB   C3A 2911  14.120   9.660  15.450
  122BOLB   C4A 2912  13.740   9.960  15.280
  122BOLB   C1B 2913  13.870   8.840  14.450
  122BOLB   C2B 2914  13.930   9.200  14.280
  122BOLB   C3B 2915  14.190   9.500  14.100
  122BOLB   C4B 2916  14.480   9.650  13.800
  122BOLB   NC2 2917  11.980   8.580  16.820
  122BOLB   PO2 2918  12.140   8.510  16.420
  122BOLB   GL3 2919  12.380   8.780  16.160
  122BOLB   GL4 2920  12.190   8.980  15.930
  122BOLB   C1C 2921  12.700   8.790  15.900
  122BOLB   C2C 2922  12.830   9.070  15.460
  122BOLB   C3C 2923  13.050   9.420  15.310
  122BOLB   C4C 2924  13.330   9.770  15.280
  122BOLB   C1D 2925  12.510   9.260  15.850
  122BOLB   C2D 2926  12.670   9.620  15.630
  122BOLB   C3D 2927  12.960   9.870  15.620
  122BOLB   C4D 2928  13.400   9.960  15.750
  123BOLB   NC1 2929  14.350  20.320  20.060
  123BOLB   PO1 2930  14.510  20.850  20.000
  123BOLB   GL1 2931  14.510  21.150  20.430
  123BOLB   GL2 2932  14.830  21.030  20.470
  123BOLB   C1A 2933  14.470  21.070  20.880
  123BOLB   C2A 2934  14.350  20.840  21.300
  123BOLB   C3A 2935  14.100  20.810  21.640
  123BOLB   C4A 2936  14.090  21.080  22.030
  123BOLB   C1B 2937  15.000  21.240  20.850
  123BOLB   C2B 2938  14.830  21.190  21.280
  123BOLB   C3B 2939  14.780  20.940  21.650
  123BOLB   C4B 2940  14.520  20.780  21.960
  123BOLB   NC2 2941  13.240  22.070  24.030
  123BOLB   PO2 2942  12.830  21.810  23.710
  123BOLB   GL3 2943  12.970  21.710  23.210
  123BOLB   GL4 2944  12.680  21.690  23.080
  123BOLB   C1C 2945  13.220  21.680  22.930
  123BOLB   C2C 2946  13.540  21.780  22.720
  123BOLB   C3C 2947  13.860  21.840  22.350
  123BOLB   C4C 2948  13.860  21.440  22.140
  123BOLB   C1D 2949  12.530  21.630  22.690
  123BOLB   C2D 2950  12.600  21.910  22.290
  123BOLB   C3D 2951  12.890  21.890  21.940
  123BOLB   C4D 2952  12.980  21.740  21.510
  124BOLB   NC1 2953  14.410  20.020  19.340
  124BOLB   PO1 2954  14.090  20.150  19.630
  124BOLB   GL1 2955  13.850  20.300  20.050
  124BOLB   GL2 2956  13.570  20.290  20.010
  124BOLB   C1A 2957  13.730  20.310  20.500
  124BOLB   C2A 2958  13.370  20.260  20.710
  124BOLB   C3A 2959  13.080  20.350  20.980
  124BOLB   C4A 2960  12.710  20.260  21.230
  124BOLB   C1B 2961  13.310  20.550  20.330
  124BOLB   C2B 2962  13.110  20.770  20.690
  124BOLB   C3B 2963  13.210  20.870  21.050
  124BOLB   C4B 2964  13.080  21.140  21.460
  124BOLB   NC2 2965  12.470  21.510  23.440
  124BOLB   PO2 2966  12.090  21.210  23.460
  124BOLB   GL3 2967  12.100  21.030  23.020
  124BOLB   GL4 2968  12.070  20.700  22.980
  124BOLB   C1C 2969  12.090  21.180  22.660
  124BOLB   C2C 2970  12.120  21.010  22.200
  124BOLB   C3C 2971  12.350  20.630  21.910
  124BOLB   C4C 2972  12.510  20.380  21.610
  124BOLB   C1D 2973  12.290  20.730  22.590
  124BOLB   C2D 2974  12.530  20.470  22.400
  124BOLB   C3D 2975  12.790  20.370  22.060
  124BOLB   C4D 2976  13.220  20.350  21.910
  125BOLB   NC1 2977  16.680  16.080  19.420
  125BOLB   PO1 2978  16.790  16.500  19.470
  125BOLB   GL1 2979  16.960  16.820  19.770
  125BOLB   GL2 2980  16.880  17.100  19.820
  125BOLB   C1A 2981  17.170  16.870  20.130
  125BOLB   C2A 2982  17.080  16.670  20.500
  125BOLB   C3A 2983  17.030  16.630  20.850
  125BOLB   C4A 2984  16.830  16.400  21.130
  125BOLB   C1B 2985  16.780  17.050  20.240
  125BOLB   C2B 2986  16.670  17.000  20.680
  125BOLB   C3B 2987  16.680  16.890  21.110
  125BOLB   C4B 2988  16.540  16.940  21.510
  125BOLB   NC2 2989  16.650  16.150  23.310
  125BOLB   PO2 2990  16.400  16.310  23.110
  125BOLB   GL3 2991  16.100  16.090  22.770
  125BOLB   GL4 2992  15.980  15.830  22.790
  125BOLB   C1C 2993  16.160  15.900  22.360
  125BOLB   C2C 2994  16.250  15.920  21.970
  125BOLB   C3C 2995  16.390  16.050  21.640
  125BOLB   C4C 2996  16.580  16.090  21.280
  125BOLB   C1D 2997  15.920  15.480  22.540
  125BOLB   C2D 2998  15.990  15.440  22.080
  125BOLB   C3D 2999  16.150  15.440  21.660
  125BOLB   C4D 3000  16.370  15.550  21.400
  126BOLB   NC1 3001  17.430  13.000  11.420
  126BOLB   PO1 3002  17.430  12.520  11.340
  126BOLB   GL1 3003  17.570  11.960  11.270
  126BOLB   GL2 3004  17.520  11.840  11.580
  126BOLB   C1A 3005  17.760  11.620  11.080
  126BOLB   C2A 3006  17.790  11.220  11.110
  126BOLB   C3A 3007  17.910  10.700  11.100
  126BOLB   C4A 3008  18.140  10.210  11.250
  126BOLB   C1B 3009  17.600  11.340  11.540
  126BOLB   C2B 3010  17.480  10.920  11.370
  126BOLB   C3B 3011  17.400  10.560  11.140
  126BOLB   C4B 3012  17.670  10.200  11.380
  126BOLB   NC2 3013  17.760   8.260   9.960
  126BOLB   PO2 3014  17.880   8.040  10.390
  126BOLB   GL3 3015  17.970   8.420  10.700
  126BOLB   GL4 3016  17.810   8.460  10.940
  126BOLB   C1C 3017  18.160   8.850  11.010
  126BOLB   C2C 3018  18.520   9.150  10.970
  126BOLB   C3C 3019  18.620   9.560  10.960
  126BOLB   C4C 3020  18.460   9.890  11.310
  126BOLB   C1D 3021  17.610   8.850  10.850
  126BOLB   C2D 3022  17.490   8.950  10.540
  126BOLB   C3D 3023  17.270   8.910  10.160
  126BOLB   C4D 3024  16.970   8.760   9.740
  127BOLB   NC1 3025  17.660  17.910  19.710
  127BOLB   PO1 3026  17.860  17.510  19.790
  127BOLB   GL1 3027  17.860  17.490  20.090
  127BOLB   GL2 3028  17.670  17.560  20.330
  127BOLB   C1A 3029  18.130  17.320  20.460
  127BOLB   C2A 3030  18.240  17.310  20.890
  127BOLB   C3A 3031  18.300  17.110  21.260
  127BOLB   C4A 3032  18.500  16.980  21.590
  127BOLB   C1B 3033  17.670  17.360  20.710
  127BOLB   C2B 3034  17.910  16.970  20.880
  127BOLB   C3B 3035  18.320  16.730  20.820
  127BOLB   C4B 3036  18.630  16.640  20.810
  127BOLB   NC2 3037  19.380  15.880  23.660
  127BOLB   PO2 3038  19.080  15.570  23.450
  127BOLB   GL3 3039  19.080  15.770  23.010
  127BOLB   GL4 3040  19.130  16.060  23.160
  127BOLB   C1C 3041  19.150  15.920  22.560
  127BOLB   C2C 3042  19.190  16.280  22.430
  127BOLB   C3C 3043  19.180  16.690  22.180
  127BOLB   C4C 3044  18.930  16.940  21.930
  127BOLB   C1D 3045  18.830  16.230  22.830
  127BOLB   C2D 3046  18.440  16.320  22.780
  127BOLB   C3D 3047  18.240  16.290  22.360
  127BOLB   C4D 3048  18.140  16.200  21.980
  128BOLB   NC1 3049  12.530   9.380  19.240
  128BOLB   PO1 3050  12.500   9.340  18.750
  128BOLB   GL1 3051  12.570   9.690  18.420
  128BOLB   GL2 3052  12.410  10.030  18.530
  128BOLB   C1A 3053  12.680   9.910  18.050
  128BOLB   C2A 3054  12.790  10.360  17.850
  128BOLB   C3A 3055  13.090  10.690  17.700
  128BOLB   C4A 3056  12.980  11.030  17.420
  128BOLB   C1B 3057  12.580  10.450  18.590
  128BOLB   C2B 3058  12.850  10.770  18.790
  128BOLB   C3B 3059  12.820  11.210  18.800
  128BOLB   C4B 3060  13.220  11.440  18.820
  128BOLB   NC2 3061  14.010  12.980  16.770
  128BOLB   PO2 3062  14.270  12.680  16.570
  128BOLB   GL3 3063  14.110  12.470  16.930
  128BOLB   GL4 3064  14.320  12.370  17.220
  128BOLB   C1C 3065  13.870  12.390  17.270
  128BOLB   C2C 3066  13.500  12.130  17.360
  128BOLB   C3C 3067  13.480  11.700  17.230
  128BOLB   C4C 3068  13.180  11.440  17.370
  128BOLB   C1D 3069  14.250  12.030  17.440
  128BOLB   C2D 3070  13.940  11.900  17.650
  128BOLB   C3D 3071  13.520  12.090  17.910
  128BOLB   C4D 3072  13.100  12.090  18.100
  129BOLB   NC1 3073  14.050   7.760  11.500
  129BOLB   PO1 3074  14.380   7.990  11.660
  129BOLB   GL1 3075  14.640   8.350  11.790
  129BOLB   GL2 3076  14.670   8.330  12.090
  129BOLB   C1A 3077  15.080   8.440  11.850
  129BOLB   C2A 3078  15.160   8.800  11.850
  129BOLB   C3A 3079  14.980   9.100  11.970
  129BOLB   C4A 3080  14.730   9.370  11.730
  129BOLB   C1B 3081  14.720   8.680  12.200
  129BOLB   C2B 3082  14.640   9.080  12.490
  129BOLB   C3B 3083  14.870   9.440  12.740
  129BOLB   C4B 3084  14.970   9.770  13.070
  129BOLB   NC2 3085  13.340   8.840  10.480
  129BOLB   PO2 3086  13.160   9.130  10.260
  129BOLB   GL3 3087  13.420   9.500  10.200
  129BOLB   GL4 3088  13.270   9.810  10.250
  129BOLB   C1C 3089  13.740   9.660  10.510
  129BOLB   C2C 3090  14.000   9.750  10.780
  129BOLB   C3C 3091  14.170   9.560  11.100
  129BOLB   C4C 3092  14.330   9.460  11.460
  129BOLB   C1D 3093  13.430  10.240  10.380
  129BOLB   C2D 3094  13.820  10.510  10.590
  129BOLB   C3D 3095  14.240  10.510  10.500
  129BOLB   C4D 3096  14.560  10.530  10.170
  130BOLB   NC1 3097  20.040  18.410  18.940
  130BOLB   PO1 3098  20.190  18.100  19.240
  130BOLB   GL1 3099  20.260  18.070  19.720
  130BOLB   GL2 3100  20.560  18.080  19.800
  130BOLB   C1A 3101  20.220  18.190  20.250
  130BOLB   C2A 3102  20.500  18.010  20.530
  130BOLB   C3A 3103  20.720  17.870  20.900
  130BOLB   C4A 3104  20.950  17.730  21.220
  130BOLB   C1B 3105  20.730  17.710  20.070
  130BOLB   C2B 3106  20.830  17.260  19.970
  130BOLB   C3B 3107  20.760  16.970  20.350
  130BOLB   C4B 3108  20.990  16.830  20.680
  130BOLB   NC2 3109  20.470  17.070  23.650
  130BOLB   PO2 3110  20.890  16.890  23.500
  130BOLB   GL3 3111  21.110  17.030  23.090
  130BOLB   GL4 3112  20.920  16.760  22.950
  130BOLB   C1C 3113  21.050  17.200  22.690
  130BOLB   C2C 3114  20.990  17.620  22.460
  130BOLB   C3C 3115  20.950  17.930  22.110
  130BOLB   C4C 3116  20.990  17.820  21.720
  130BOLB   C1D 3117  20.620  16.740  22.650
  130BOLB   C2D 3118  20.490  17.060  22.500
  130BOLB   C3D 3119  20.260  17.320  22.210
  130BOLB   C4D 3120  20.200  17.330  21.760
  131BOLB   NC1 3121   7.610  15.440  21.130
  131BOLB   PO1 3122   8.010  15.800  21.060
  131BOLB   GL1 3123   8.420  15.990  20.800
  131BOLB   GL2 3124   8.490  15.990  20.450
  131BOLB   C1A 3125   8.800  16.210  20.870
  131BOLB   C2A 3126   9.240  16.040  20.810
  131BOLB   C3A 3127   9.540  15.700  20.850
  131BOLB   C4A 3128   9.850  15.350  20.840
  131BOLB   C1B 3129   8.980  16.100  20.380
  131BOLB   C2B 3130   9.400  15.960  20.340
  131BOLB   C3B 3131   9.810  15.810  20.320
  131BOLB   C4B 3132  10.130  15.850  20.340
  131BOLB   NC2 3133   9.950  13.420  21.420
  131BOLB   PO2 3134  10.270  13.420  21.820
  131BOLB   GL3 3135  10.600  13.690  21.590
  131BOLB   GL4 3136  10.900  13.720  21.850
  131BOLB   C1C 3137  10.570  13.880  21.160
  131BOLB   C2C 3138  10.300  14.150  21.060
  131BOLB   C3C 3139   9.950  14.480  21.030
  131BOLB   C4C 3140  10.010  14.920  20.890
  131BOLB   C1D 3141  11.090  13.890  21.500
  131BOLB   C2D 3142  11.540  13.930  21.540
  131BOLB   C3D 3143  11.940  14.010  21.230
  131BOLB   C4D 3144  12.390  14.190  21.370
  132BOLB   NC1 3145  12.010  13.940  17.160
  132BOLB   PO1 3146  12.450  13.810  17.200
  132BOLB   GL1 3147  12.350  13.600  17.520
  132BOLB   GL2 3148  11.980  13.550  17.460
  132BOLB   C1A 3149  12.210  13.320  17.890
  132BOLB   C2A 3150  11.830  13.200  18.180
  132BOLB   C3A 3151  11.530  12.980  18.160
  132BOLB   C4A 3152  11.470  12.560  18.170
  132BOLB   C1B 3153  11.710  13.310  17.730
  132BOLB   C2B 3154  11.570  13.040  17.570
  132BOLB   C3B 3155  11.440  12.670  17.680
  132BOLB   C4B 3156  11.480  12.220  17.780
  132BOLB   NC2 3157  10.950  11.180  20.190
  132BOLB   PO2 3158  11.370  11.120  20.270
  132BOLB   GL3 3159  11.330  11.460  20.040
  132BOLB   GL4 3160  11.610  11.700  20.120
  132BOLB   C1C 3161  11.380  11.430  19.590
  132BOLB   C2C 3162  11.470  11.660  19.170
  132BOLB   C3C 3163  11.660  11.860  18.790
  132BOLB   C4C 3164  11.510  12.160  18.420
  132BOLB   C1D 3165  11.710  11.770  19.680
  132BOLB   C2D 3166  11.730  12.080  19.370
  132BOLB   C3D 3167  11.910  12.170  19.070
  132BOLB   C4D 3168  11.960  12.360  18.610
  133BOLB   NC1 3169  13.030  19.510  18.750
  133BOLB   PO1 3170  12.970  19.170  19.040
  133BOLB   GL1 3171  12.930  19.140  19.390
  133BOLB   GL2 3172  12.680  18.870  19.540
  133BOLB   C1A 3173  12.660  19.370  19.800
  133BOLB   C2A 3174  12.550  19.410  20.190
  133BOLB   C3A 3175  12.490  19.520  20.560
  133BOLB   C4A 3176  12.710  19.460  20.900
  133BOLB   C1B 3177  12.640  18.920  20.030
  133BOLB   C2B 3178  12.420  19.000  20.410
  133BOLB   C3B 3179  12.210  19.060  20.760
  133BOLB   C4B 3180  12.190  19.450  21.030
  133BOLB   NC2 3181  11.810  19.160  23.510
  133BOLB   PO2 3182  12.160  18.860  23.270
  133BOLB   GL3 3183  12.220  18.690  22.870
  133BOLB   GL4 3184  12.460  18.490  22.980
  133BOLB   C1C 3185  12.310  18.860  22.440
  133BOLB   C2C 3186  12.500  18.890  22.020
  133BOLB   C3C 3187  12.610  19.070  21.650
  133BOLB   C4C 3188  12.700  19.240  21.280
  133BOLB   C1D 3189  12.730  18.690  22.670
  133BOLB   C2D 3190  12.910  18.950  22.340
  133BOLB   C3D 3191  13.080  19.000  21.950
  133BOLB   C4D 3192  13.480  18.890  21.740
  134BOLB   NC1 3193  12.770  14.000  17.590
  134BOLB   PO1 3194  13.090  13.920  17.930
  134BOLB   GL1 3195  12.870  13.530  18.080
  134BOLB   GL2 3196  12.680  13.390  17.860
  134BOLB   C1A 3197  12.530  13.400  18.360
  134BOLB   C2A 3198  12.230  13.270  18.580
  134BOLB   C3A 3199  12.130  13.130  19.090
  134BOLB   C4A 3200  12.090  12.850  19.490
  134BOLB   C1B 3201  12.620  13.020  18.020
  134BOLB   C2B 3202  12.490  12.710  18.080
  134BOLB   C3B 3203  12.480  12.380  18.060
  134BOLB   C4B 3204  12.500  11.960  18.240
  134BOLB   NC2 3205  10.030  11.460  20.690
  134BOLB   PO2 3206  10.070  11.900  20.480
  134BOLB   GL3 3207  10.300  12.130  20.010
  134BOLB   GL4 3208  10.050  12.320  19.760
  134BOLB   C1C 3209  10.670  12.230  19.960
  134BOLB   C2C 3210  11.030  12.550  19.850
  134BOLB   C3C 3211  11.260  12.940  19.710
  134BOLB   C4C 3212  11.660  12.810  19.780
  134BOLB   C1D 3213  10.240  12.790  19.940
  134BOLB   C2D 3214  10.680  12.960  19.770
  134BOLB   C3D 3215  10.900  13.240  19.490
  134BOLB   C4D 3216  11.360  13.430  19.520
  135BOLB   NC1 3217  17.130  12.310  11.040
  135BOLB   PO1 3218  17.230  12.000  10.880
  135BOLB   GL1 3219  17.120  11.590  11.000
  135BOLB   GL2 3220  17.430  11.490  10.810
  135BOLB   C1A 3221  16.860  11.330  10.870
  135BOLB   C2A 3222  16.920  10.920  11.020
  135BOLB   C3A 3223  16.830  10.560  11.290
  135BOLB   C4A 3224  16.580  10.230  11.450
  135BOLB   C1B 3225  17.320  11.080  10.770
  135BOLB   C2B 3226  17.210  10.660  10.650
  135BOLB   C3B 3227  17.290  10.160  10.660
  135BOLB   C4B 3228  17.500   9.880  10.470
  135BOLB   NC2 3229  15.750   7.520  11.280
  135BOLB   PO2 3230  16.090   7.750  11.010
  135BOLB   GL3 3231  16.310   8.120  11.050
  135BOLB   GL4 3232  16.440   8.190  11.340
  135BOLB   C1C 3233  16.240   8.560  10.980
  135BOLB   C2C 3234  16.120   9.060  11.150
  135BOLB   C3C 3235  16.200   9.400  11.390
  135BOLB   C4C 3236  16.410   9.860  11.600
  135BOLB   C1D 3237  16.560   8.640  11.390
  135BOLB   C2D 3238  16.520   9.050  11.530
  135BOLB   C3D 3239  16.700   9.430  11.630
  135BOLB   C4D 3240  16.840   9.790  11.800
  136BOLB   NC1 3241  22.990  17.050  14.590
  136BOLB   PO1 3242  23.160  16.610  14.460
  136BOLB   GL1 3243  23.620  16.360  14.540
  136BOLB   GL2 3244  23.820  16.550  14.280
  136BOLB   C1A 3245  23.870  16.050  14.700
  136BOLB   C2A 3246  24.230  15.850  14.820
  136BOLB   C3A 3247  24.640  15.700  14.970
  136BOLB   C4A 3248  24.840  15.480  15.340
  136BOLB   C1B 3249  24.170  16.350  14.400
  136BOLB   C2B 3250  24.680  16.160  14.270
  136BOLB   C3B 3251  24.990  16.050  14.120
  136BOLB   C4B 3252  25.250  15.680  13.950
  136BOLB   NC2 3253  26.690  14.160  16.160
  136BOLB   PO2 3254  26.850  14.220  15.710
  136BOLB   GL3 3255  26.680  14.600  15.810
  136BOLB   GL4 3256  26.460  14.720  15.590
  136BOLB   C1C 3257  26.180  14.630  16.000
  136BOLB   C2C 3258  25.740  14.820  16.090
  136BOLB   C3C 3259  25.340  15.050  15.920
  136BOLB   C4C 3260  25.080  15.280  15.650
  136BOLB   C1D 3261  26.090  15.030  15.690
  136BOLB   C2D 3262  25.930  15.390  15.810
  136BOLB   C3D 3263  25.490  15.600  15.920
  136BOLB   C4D 3264  24.990  15.730  15.900
  137BOLB   NC1 3265  16.960  12.480  11.650
  137BOLB   PO1 3266  16.710  12.290  11.360
  137BOLB   GL1 3267  16.550  11.910  11.390
  137BOLB   GL2 3268  16.700  11.580  11.290
  137BOLB   C1A 3269  16.230  11.570  11.420
  137BOLB   C2A 3270  16.010  11.190  11.470
  137BOLB   C3A 3271  16.030  10.750  11.480
  137BOLB   C4A 3272  16.070  10.300  11.510
  137BOLB   C1B 3273  16.970  11.280  11.340
  137BOLB   C2B 3274  17.020  10.950  11.590
  137BOLB   C3B 3275  17.240  10.500  11.590
  137BOLB   C4B 3276  17.100  10.180  11.820
  137BOLB   NC2 3277  16.330   7.830  11.860
  137BOLB   PO2 3278  16.040   7.910  11.480
  137BOLB   GL3 3279  15.920   8.310  11.310
  137BOLB   GL4 3280  15.640   8.300  11.150
  137BOLB   C1C 3281  16.000   8.740  11.560
  137BOLB   C2C 3282  16.040   9.150  11.800
  137BOLB   C3C 3283  15.930   9.630  11.790
  137BOLB   C4C 3284  15.940  10.060  11.750
  137BOLB   C1D 3285  15.730   8.650  11.120
  137BOLB   C2D 3286  15.670   9.030  11.340
  137BOLB   C3D 3287  15.530   9.060  11.710
  137BOLB   C4D 3288  15.590   8.900  12.140
  138BOLB   NC1 3289  11.980  16.900  19.090
  138BOLB   PO1 3290  12.350  16.820  19.350
  138BOLB   GL1 3291  12.110  17.120  19.530
  138BOLB   GL2 3292  11.770  17.150  19.570
  138BOLB   C1A 3293  11.980  17.590  19.630
  138BOLB   C2A 3294  11.920  17.770  20.090
  138BOLB   C3A 3295  11.910  17.460  20.420
  138BOLB   C4A 3296  11.720  17.220  20.840
  138BOLB   C1B 3297  11.710  17.270  19.940
  138BOLB   C2B 3298  11.490  17.290  20.310
  138BOLB   C3B 3299  11.270  17.430  20.590
  138BOLB   C4B 3300  10.970  17.730  20.900
  138BOLB   NC2 3301  12.000  16.980  23.400
  138BOLB   PO2 3302  12.410  17.110  23.250
  138BOLB   GL3 3303  12.090  17.000  22.890
  138BOLB   GL4 3304  12.050  16.700  22.700
  138BOLB   C1C 3305  11.940  17.110  22.530
  138BOLB   C2C 3306  11.960  17.290  22.090
  138BOLB   C3C 3307  11.690  17.140  21.720
  138BOLB   C4C 3308  11.730  17.170  21.280
  138BOLB   C1D 3309  12.210  16.540  22.240
  138BOLB   C2D 3310  12.160  16.820  21.900
  138BOLB   C3D 3311  12.190  17.130  21.530
  138BOLB   C4D 3312  12.460  17.440  21.480
  139BOLB   NC1 3313  14.940  11.420  13.870
  139BOLB   PO1 3314  15.380  11.480  13.770
  139BOLB   GL1 3315  15.310  11.110  13.920
  139BOLB   GL2 3316  15.230  10.790  13.710
  139BOLB   C1A 3317  15.570  10.710  14.010
  139BOLB   C2A 3318  15.860  10.380  13.820
  139BOLB   C3A 3319  16.040  10.010  13.610
  139BOLB   C4A 3320  15.910   9.750  13.200
  139BOLB   C1B 3321  15.200  10.410  13.930
  139BOLB   C2B 3322  15.200   9.970  13.980
  139BOLB   C3B 3323  15.390   9.750  13.790
  139BOLB   C4B 3324  15.660   9.420  13.760
  139BOLB   NC2 3325  16.530   7.290  13.420
  139BOLB   PO2 3326  16.150   7.580  13.360
  139BOLB   GL3 3327  16.340   7.770  13.020
  139BOLB   GL4 3328  16.630   7.920  13.030
  139BOLB   C1C 3329  16.110   8.030  12.830
  139BOLB   C2C 3330  15.820   8.440  12.980
  139BOLB   C3C 3331  15.810   8.860  13.130
  139BOLB   C4C 3332  15.820   9.340  13.110
  139BOLB   C1D 3333  16.470   8.330  13.020
  139BOLB   C2D 3334  16.250   8.570  12.820
  139BOLB   C3D 3335  16.200   8.940  12.830
  139BOLB   C4D 3336  16.350   9.270  12.940
  140BOLB   NC1 3337  11.020  22.700  16.830
  140BOLB   PO1 3338  10.760  22.540  17.230
  140BOLB   GL1 3339  10.730  22.790  17.610
  140BOLB   GL2 3340  10.930  23.070  17.570
  140BOLB   C1A 3341  10.470  22.720  17.980
  140BOLB   C2A 3342   9.890  22.530  18.090
  140BOLB   C3A 3343   9.560  22.430  18.320
  140BOLB   C4A 3344   9.280  22.010  18.560
  140BOLB   C1B 3345  10.550  23.230  17.830
  140BOLB   C2B 3346  10.580  23.580  18.260
  140BOLB   C3B 3347  10.480  23.770  18.590
  140BOLB   C4B 3348  10.180  24.050  18.590
  140BOLB   NC2 3349   7.480  22.020  19.400
  140BOLB   PO2 3350   7.330  22.250  19.180
  140BOLB   GL3 3351   7.590  22.220  18.890
  140BOLB   GL4 3352   7.730  22.590  18.980
  140BOLB   C1C 3353   7.820  22.040  18.560
  140BOLB   C2C 3354   8.260  22.070  18.500
  140BOLB   C3C 3355   8.600  21.830  18.400
  140BOLB   C4C 3356   8.920  21.720  18.470
  140BOLB   C1D 3357   8.070  22.510  18.660
  140BOLB   C2D 3358   8.160  22.530  18.150
  140BOLB   C3D 3359   8.220  22.590  17.690
  140BOLB   C4D 3360   8.350  22.830  17.410
  141BOLB   NC1 3361  14.870  12.370  16.030
  141BOLB   PO1 3362  14.530  12.320  16.200
  141BOLB   GL1 3363  14.530  12.140  16.560
  141BOLB   GL2 3364  14.760  12.310  16.800
  141BOLB   C1A 3365  14.530  11.820  16.980
  141BOLB   C2A 3366  14.540  11.360  17.220
  141BOLB   C3A 3367  14.190  11.060  17.340
  141BOLB   C4A 3368  13.810  10.930  17.520
  141BOLB   C1B 3369  14.920  11.820  16.730
  141BOLB   C2B 3370  15.140  11.440  16.560
  141BOLB   C3B 3371  15.220  11.010  16.560
  141BOLB   C4B 3372  15.310  10.750  16.840
  141BOLB   NC2 3373  12.810  10.080  19.440
  141BOLB   PO2 3374  12.890   9.690  19.390
  141BOLB   GL3 3375  13.030   9.980  18.990
  141BOLB   GL4 3376  12.910   9.960  18.670
  141BOLB   C1C 3377  13.270  10.330  18.800
  141BOLB   C2C 3378  13.440  10.450  18.440
  141BOLB   C3C 3379  13.510  10.630  18.120
  141BOLB   C4C 3380  13.700  10.700  17.790
  141BOLB   C1D 3381  13.040  10.260  18.290
  141BOLB   C2D 3382  13.000  10.650  18.230
  141BOLB   C3D 3383  12.800  11.040  17.940
  141BOLB   C4D 3384  12.800  11.360  17.710
  142BOLB   NC1 3385  21.280  15.790  10.330
  142BOLB   PO1 3386  21.370  15.390  10.120
  142BOLB   GL1 3387  21.490  15.080   9.770
  142BOLB   GL2 3388  21.280  14.850   9.620
  142BOLB   C1A 3389  21.810  14.850   9.590
  142BOLB   C2A 3390  21.880  14.480   9.570
  142BOLB   C3A 3391  22.160  14.000   9.420
  142BOLB   C4A 3392  22.320  13.660   9.350
  142BOLB   C1B 3393  21.400  14.340   9.560
  142BOLB   C2B 3394  21.620  13.920   9.580
  142BOLB   C3B 3395  21.640  13.630   9.920
  142BOLB   C4B 3396  21.400  13.650  10.190
  142BOLB   NC2 3397  23.290  10.860   8.860
  142BOLB   PO2 3398  23.200  11.280   8.770
  142BOLB   GL3 3399  22.860  11.560   9.000
  142BOLB   GL4 3400  22.640  11.660   9.260
  142BOLB   C1C 3401  22.650  12.020   8.810
  142BOLB   C2C 3402  22.400  12.410   8.960
  142BOLB   C3C 3403  22.290  12.870   9.010
  142BOLB   C4C 3404  22.230  13.320   9.090
  142BOLB   C1D 3405  22.320  11.960   9.210
  142BOLB   C2D 3406  21.950  12.250   9.160
  142BOLB   C3D 3407  21.620  12.600   9.250
  142BOLB   C4D 3408  21.230  12.890   9.250
  143BOLB   NC1 3409  14.600  17.840  19.920
  143BOLB   PO1 3410  14.590  17.420  19.920
  143BOLB   GL1 3411  14.460  17.200  20.260
  143BOLB   GL2 3412  14.580  16.870  20.250
  143BOLB   C1A 3413  14.350  17.250  20.560
  143BOLB   C2A 3414  14.280  17.060  20.910
  143BOLB   C3A 3415  13.890  16.780  20.880
  143BOLB   C4A 3416  13.530  16.610  21.050
  143BOLB   C1B 3417  14.780  16.900  20.650
  143BOLB   C2B 3418  15.190  16.980  20.660
  143BOLB   C3B 3419  15.300  17.420  20.910
  143BOLB   C4B 3420  15.000  17.720  21.080
  143BOLB   NC2 3421  12.680  16.180  23.140
  143BOLB   PO2 3422  12.970  15.820  23.160
  143BOLB   GL3 3423  12.940  15.680  22.740
  143BOLB   GL4 3424  12.920  15.410  22.700
  143BOLB   C1C 3425  13.110  15.830  22.370
  143BOLB   C2C 3426  12.960  15.920  21.940
  143BOLB   C3C 3427  13.070  16.070  21.540
  143BOLB   C4C 3428  13.420  16.320  21.350
  143BOLB   C1D 3429  13.000  15.160  22.340
  143BOLB   C2D 3430  13.080  14.910  21.970
  143BOLB   C3D 3431  13.030  14.750  21.650
  143BOLB   C4D 3432  12.740  14.450  21.410
  144BOLB   NC1 3433  12.960  12.880  14.570
  144BOLB   PO1 3434  13.060  12.490  14.510
  144BOLB   GL1 3435  13.010  12.160  14.720
  144BOLB   GL2 3436  13.270  11.810  14.640
  144BOLB   C1A 3437  12.800  11.920  15.110
  144BOLB   C2A 3438  12.530  11.570  15.050
  144BOLB   C3A 3439  12.510  11.200  14.880
  144BOLB   C4A 3440  12.580  10.800  15.090
  144BOLB   C1B 3441  13.180  11.340  14.750
  144BOLB   C2B 3442  13.070  10.930  14.750
  144BOLB   C3B 3443  13.090  10.570  14.760
  144BOLB   C4B 3444  12.670  10.360  14.810
  144BOLB   NC2 3445  11.600   8.770  15.150
  144BOLB   PO2 3446  11.950   8.490  15.310
  144BOLB   GL3 3447  12.060   8.900  15.360
  144BOLB   GL4 3448  12.350   8.830  15.480
  144BOLB   C1C 3449  11.950   9.350  15.460
  144BOLB   C2C 3450  12.100   9.710  15.560
  144BOLB   C3C 3451  12.430  10.040  15.600
  144BOLB   C4C 3452  12.530  10.420  15.370
  144BOLB   C1D 3453  12.510   8.860  15.020
  144BOLB   C2D 3454  12.710   8.830  14.610
  144BOLB   C3D 3455  12.940   9.060  14.410
  144BOLB   C4D 3456  12.990   9.420  14.410
  145BOLB   NC1 3457  10.350  21.420  22.280
  145BOLB   PO1 3458  10.120  21.070  22.040
  145BOLB   GL1 3459  10.140  20.900  21.660
  145BOLB   GL2 3460   9.930  20.920  21.480
  145BOLB   C1A 3461  10.530  20.790  21.370
  145BOLB   C2A 3462  10.850  20.700  21.060
  145BOLB   C3A 3463  11.320  20.760  20.850
  145BOLB   C4A 3464  11.600  21.110  20.790
  145BOLB   C1B 3465   9.780  21.290  21.190
  145BOLB   C2B 3466   9.880  21.640  20.990
  145BOLB   C3B 3467  10.090  21.950  21.040
  145BOLB   C4B 3468  10.420  22.100  20.840
  145BOLB   NC2 3469  12.120  20.490  18.970
  145BOLB   PO2 3470  11.890  20.770  18.870
  145BOLB   GL3 3471  11.830  20.960  19.260
  145BOLB   GL4 3472  11.740  21.300  19.300
  145BOLB   C1C 3473  12.010  21.110  19.660
  145BOLB   C2C 3474  12.180  21.300  20.000
  145BOLB   C3C 3475  12.170  21.480  20.420
  145BOLB   C4C 3476  11.940  21.410  20.730
  145BOLB   C1D 3477  11.240  21.200  19.260
  145BOLB   C2D 3478  11.020  21.150  19.620
  145BOLB   C3D 3479  10.840  21.030  20.010
  145BOLB   C4D 3480  10.790  20.810  20.330
  146BOLB   NC1 3481  17.700  13.040  16.030
  146BOLB   PO1 3482  18.170  12.860  16.170
  146BOLB   GL1 3483  18.250  12.430  16.230
  146BOLB   GL2 3484  18.260  12.370  15.890
  146BOLB   C1A 3485  18.250  11.920  16.350
  146BOLB   C2A 3486  18.240  11.480  16.560
  146BOLB   C3A 3487  18.320  11.200  16.850
  146BOLB   C4A 3488  18.330  10.820  16.710
  146BOLB   C1B 3489  18.290  11.980  15.880
  146BOLB   C2B 3490  18.470  11.580  15.860
  146BOLB   C3B 3491  18.440  11.030  15.780
  146BOLB   C4B 3492  18.670  10.630  15.590
  146BOLB   NC2 3493  18.560   8.750  17.080
  146BOLB   PO2 3494  18.620   8.380  16.700
  146BOLB   GL3 3495  18.660   8.920  16.550
  146BOLB   GL4 3496  18.890   8.840  16.700
  146BOLB   C1C 3497  18.600   9.350  16.470
  146BOLB   C2C 3498  18.470   9.690  16.700
  146BOLB   C3C 3499  18.650  10.080  16.680
  146BOLB   C4C 3500  18.470  10.460  16.550
  146BOLB   C1D 3501  19.050   9.330  16.680
  146BOLB   C2D 3502  18.990   9.660  16.440
  146BOLB   C3D 3503  18.620   9.830  16.280
  146BOLB   C4D 3504  18.330  10.130  15.900
  147BOLB   NC1 3505  15.480   9.430   7.080
  147BOLB   PO1 3506  15.090   9.470   7.270
  147BOLB   GL1 3507  15.110   9.830   7.620
  147BOLB   GL2 3508  14.920   9.880   7.800
  147BOLB   C1A 3509  15.380  10.090   7.690
  147BOLB   C2A 3510  15.460  10.500   7.740
  147BOLB   C3A 3511  15.900  10.660   7.650
  147BOLB   C4A 3512  16.370  10.560   7.760
  147BOLB   C1B 3513  14.860  10.250   7.910
  147BOLB   C2B 3514  14.650  10.740   8.130
  147BOLB   C3B 3515  14.570  11.020   8.470
  147BOLB   C4B 3516  14.460  11.420   8.700
  147BOLB   NC2 3517  16.790   9.500   5.840
  147BOLB   PO2 3518  17.150   9.600   5.770
  147BOLB   GL3 3519  16.980   9.950   6.110
  147BOLB   GL4 3520  16.860   9.830   6.340
  147BOLB   C1C 3521  17.200  10.040   6.610
  147BOLB   C2C 3522  17.050  10.170   6.970
  147BOLB   C3C 3523  16.840  10.230   7.340
  147BOLB   C4C 3524  16.720  10.440   7.600
  147BOLB   C1D 3525  16.650  10.270   6.320
  147BOLB   C2D 3526  16.500  10.690   6.450
  147BOLB   C3D 3527  16.500  10.990   6.670
  147BOLB   C4D 3528  16.430  11.260   7.070
  148BOLB   NC1 3529  17.780  12.900  15.090
  148BOLB   PO1 3530  17.970  12.590  14.800
  148BOLB   GL1 3531  18.060  12.180  14.980
  148BOLB   GL2 3532  18.320  12.120  15.200
  148BOLB   C1A 3533  18.060  11.680  15.030
  148BOLB   C2A 3534  18.270  11.460  15.290
  148BOLB   C3A 3535  18.600  11.100  15.300
  148BOLB   C4A 3536  18.940  10.960  15.320
  148BOLB   C1B 3537  18.660  11.760  15.340
  148BOLB   C2B 3538  18.900  11.420  15.450
  148BOLB   C3B 3539  19.110  11.170  15.780
  148BOLB   C4B 3540  19.410  11.020  15.810
  148BOLB   NC2 3541  20.910   9.540  15.620
  148BOLB   PO2 3542  20.510   9.310  15.720
  148BOLB   GL3 3543  20.180   9.630  15.870
  148BOLB   GL4 3544  20.320   9.710  16.220
  148BOLB   C1C 3545  19.850  10.020  15.830
  148BOLB   C2C 3546  19.620  10.340  15.890
  148BOLB   C3C 3547  19.250  10.470  15.700
  148BOLB   C4C 3548  19.120  10.680  15.420
  148BOLB   C1D 3549  20.130  10.130  16.320
  148BOLB   C2D 3550  19.730  10.360  16.380
  148BOLB   C3D 3551  19.410  10.700  16.200
  148BOLB   C4D 3552  19.000  10.740  15.990
  149BOLB   NC1 3553  11.130  18.720  18.560
  149BOLB   PO1 3554  11.330  19.050  18.550
  149BOLB   GL1 3555  11.030  19.300  18.750
  149BOLB   GL2 3556  10.780  19.530  18.770
  149BOLB   C1A 3557  10.920  19.190  19.110
  149BOLB   C2A 3558  10.600  19.130  19.320
  149BOLB   C3A 3559  10.290  19.330  19.510
  149BOLB   C4A 3560  10.110  19.620  19.920
  149BOLB   C1B 3561  10.400  19.530  19.010
  149BOLB   C2B 3562  10.260  19.800  19.310
  149BOLB   C3B 3563  10.020  20.340  19.260
  149BOLB   C4B 3564   9.710  20.740  19.220
  149BOLB   NC2 3565   8.800  20.180  21.740
  149BOLB   PO2 3566   9.160  19.910  21.770
  149BOLB   GL3 3567   9.590  20.050  21.560
  149BOLB   GL4 3568   9.690  20.290  21.560
  149BOLB   C1C 3569  10.020  19.920  21.440
  149BOLB   C2C 3570  10.340  19.620  21.210
  149BOLB   C3C 3571  10.340  19.830  20.750
  149BOLB   C4C 3572  10.210  19.740  20.320
  149BOLB   C1D 3573   9.730  20.240  21.110
  149BOLB   C2D 3574  10.000  20.460  20.800
  149BOLB   C3D 3575  10.220  20.590  20.340
  149BOLB   C4D 3576  10.560  20.530  20.070
  150BOLB   NC1 3577  15.120  15.220  18.140
  150BOLB   PO1 3578  15.350  15.180  18.440
  150BOLB   GL1 3579  15.430  14.990  18.810
  150BOLB   GL2 3580  15.570  14.810  18.660
  150BOLB   C1A 3581  15.480  14.930  19.220
  150BOLB   C2A 3582  15.390  14.710  19.680
  150BOLB   C3A 3583  15.500  14.600  20.130
  150BOLB   C4A 3584  15.680  14.490  20.450
  150BOLB   C1B 3585  15.260  14.460  18.890
  150BOLB   C2B 3586  15.450  14.250  19.180
  150BOLB   C3B 3587  15.660  14.060  19.510
  150BOLB   C4B 3588  15.940  13.830  19.670
  150BOLB   NC2 3589  16.040  13.750  22.870
  150BOLB   PO2 3590  15.810  14.190  22.850
  150BOLB   GL3 3591  15.630  14.480  22.540
  150BOLB   GL4 3592  15.620  14.230  22.370
  150BOLB   C1C 3593  15.650  14.680  22.090
  150BOLB   C2C 3594  15.800  14.550  21.720
  150BOLB   C3C 3595  15.900  14.630  21.280
  150BOLB   C4C 3596  15.950  14.560  20.880
  150BOLB   C1D 3597  15.350  14.200  22.000
  150BOLB   C2D 3598  15.480  14.080  21.580
  150BOLB   C3D 3599  15.450  14.400  21.350
  150BOLB   C4D 3600  15.370  14.650  21.040
  151BOLB   NC1 3601   5.160  21.430  12.070
  151BOLB   PO1 3602   5.320  21.800  12.350
  151BOLB   GL1 3603   5.640  22.000  12.560
  151BOLB   GL2 3604   5.770  22.280  12.600
  151BOLB   C1A 3605   6.120  21.970  12.630
  151BOLB   C2A 3606   6.520  21.710  12.650
  151BOLB   C3A 3607   6.750  21.450  12.520
  151BOLB   C4A 3608   7.080  21.470  12.200
  151BOLB   C1B 3609   5.990  22.640  12.680
  151BOLB   C2B 3610   6.290  23.100  12.810
  151BOLB   C3B 3611   6.630  23.290  12.900
  151BOLB   C4B 3612   7.060  23.440  13.070
  151BOLB   NC2 3613   5.310  20.610  11.840
  151BOLB   PO2 3614   5.180  20.750  11.490
  151BOLB   GL3 3615   5.490  21.000  11.360
  151BOLB   GL4 3616   5.840  20.860  11.360
  151BOLB   C1C 3617   5.750  21.370  11.390
  151BOLB   C2C 3618   6.190  21.560  11.410
  151BOLB   C3C 3619   6.600  21.640  11.500
  151BOLB   C4C 3620   7.010  21.590  11.820
  151BOLB   C1D 3621   6.250  20.990  11.480
  151BOLB   C2D 3622   6.600  21.150  11.390
  151BOLB   C3D 3623   6.930  21.220  11.540
  151BOLB   C4D 3624   7.360  21.480  11.410
  152BOLB   NC1 3625  16.880  18.260  19.770
  152BOLB   PO1 3626  17.260  18.030  19.980
  152BOLB   GL1 3627  17.500  18.060  20.390
  152BOLB   GL2 3628  17.380  18.320  20.540
  152BOLB   C1A 3629  17.310  17.730  20.640
  152BOLB   C2A 3630  17.370  17.630  21.140
  152BOLB   C3A 3631  17.480  17.660  21.530
  152BOLB   C4A 3632  17.590  17.400  21.820
  152BOLB   C1B 3633  17.530  18.050  20.970
  152BOLB   C2B 3634  17.890  17.730  21.120
  152BOLB   C3B 3635  17.870  17.330  21.260
  152BOLB   C4B 3636  17.590  17.030  21.240
  152BOLB   NC2 3637  18.070  15.350  23.390
  152BOLB   PO2 3638  17.770  15.740  23.390
  152BOLB   GL3 3639  17.500  15.780  23.070
  152BOLB   GL4 3640  17.330  15.420  22.880
  152BOLB   C1C 3641  17.580  15.860  22.650
  152BOLB   C2C 3642  17.680  16.140  22.370
  152BOLB   C3C 3643  17.740  16.650  22.170
  152BOLB   C4C 3644  17.740  17.110  22.050
  152BOLB   C1D 3645  17.120  15.670  22.490
  152BOLB   C2D 3646  17.080  15.930  22.150
  152BOLB   C3D 3647  17.500  16.240  21.820
  152BOLB   C4D 3648  17.770  16.470  21.410
  153BOLB   NC1 3649  14.120  12.600  16.050
  153BOLB   PO1 3650  13.710  12.520  15.920
  153BOLB   GL1 3651  13.780  12.230  16.240
  153BOLB   GL2 3652  14.120  12.090  16.300
  153BOLB   C1A 3653  13.640  11.810  16.280
  153BOLB   C2A 3654  13.550  11.350  16.320
  153BOLB   C3A 3655  13.780  10.890  16.420
  153BOLB   C4A 3656  13.980  10.440  16.420
  153BOLB   C1B 3657  14.050  11.920  16.680
  153BOLB   C2B 3658  13.920  11.830  17.110
  153BOLB   C3B 3659  13.920  11.530  17.370
  153BOLB   C4B 3660  13.690  11.510  17.770
  153BOLB   NC2 3661  12.360   8.670  17.740
  153BOLB   PO2 3662  12.580   8.950  17.570
  153BOLB   GL3 3663  12.740   9.080  17.240
  153BOLB   GL4 3664  12.890   9.030  16.880
  153BOLB   C1C 3665  12.950   9.480  17.280
  153BOLB   C2C 3666  13.170   9.840  17.130
  153BOLB   C3C 3667  13.390  10.130  16.890
  153BOLB   C4C 3668  13.830  10.120  16.650
  153BOLB   C1D 3669  12.920   9.450  16.830
  153BOLB   C2D 3670  13.180   9.700  16.640
  153BOLB   C3D 3671  13.200  10.130  16.350
  153BOLB   C4D 3672  13.460  10.470  16.430
  154BOLB   NC1 3673  12.690  19.810  23.660
  154BOLB   PO1 3674  12.770  20.160  23.470
  154BOLB   GL1 3675  12.580  19.820  23.110
  154BOLB   GL2 3676  12.290  19.910  23.010
  154BOLB   C1A 3677  12.740  19.620  22.730
  154BOLB   C2A 3678  12.790  19.440  22.400
  154BOLB   C3A 3679  12.820  19.420  21.970
  154BOLB   C4A 3680  12.960  19.560  21.540
  154BOLB   C1B 3681  12.520  20.050  22.680
  154BOLB   C2B 3682  12.840  19.940  22.280
  154BOLB   C3B 3683  13.080  19.850  21.960
  154BOLB   C4B 3684  13.170  20.030  21.510
  154BOLB   NC2 3685  13.980  18.940  19.470
  154BOLB   PO2 3686  14.300  18.860  19.730
  154BOLB   GL3 3687  14.270  18.960  20.180
  154BOLB   GL4 3688  14.380  18.620  20.280
  154BOLB   C1C 3689  13.840  18.930  20.460
  154BOLB   C2C 3690  13.820  18.830  20.940
  154BOLB   C3C 3691  13.470  18.960  21.250
  154BOLB   C4C 3692  13.170  19.350  21.180
  154BOLB   C1D 3693  14.190  18.660  20.570
  154BOLB   C2D 3694  14.340  18.790  20.920
  154BOLB   C3D 3695  14.270  18.960  21.360
  154BOLB   C4D 3696  14.420  19.310  21.570
  155BOLB   NC1 3697  20.380   9.100  13.390
  155BOLB   PO1 3698  20.730   9.080  13.250
  155BOLB   GL1 3699  20.630   9.530  13.350
  155BOLB   GL2 3700  20.670   9.670  13.690
  155BOLB   C1A 3701  20.550   9.860  13.000
  155BOLB   C2A 3702  20.460  10.160  12.960
  155BOLB   C3A 3703  20.530  10.610  13.010
  155BOLB   C4A 3704  20.420  10.910  12.830
  155BOLB   C1B 3705  20.660  10.020  13.450
  155BOLB   C2B 3706  20.760  10.430  13.420
  155BOLB   C3B 3707  20.930  10.910  13.660
  155BOLB   C4B 3708  20.840  11.320  13.800
  155BOLB   NC2 3709  20.090  13.300  12.850
  155BOLB   PO2 3710  19.990  12.970  13.190
  155BOLB   GL3 3711  19.840  12.590  12.980
  155BOLB   GL4 3712  19.720  12.530  12.750
  155BOLB   C1C 3713  19.920  12.130  13.140
  155BOLB   C2C 3714  20.110  11.740  13.230
  155BOLB   C3C 3715  20.240  11.690  12.820
  155BOLB   C4C 3716  20.340  11.320  12.660
  155BOLB   C1D 3717  19.600  12.120  12.720
  155BOLB   C2D 3718  19.710  11.780  12.800
  155BOLB   C3D 3719  19.830  11.440  13.020
  155BOLB   C4D 3720  19.660  11.080  13.250
  156BOLB   NC1 3721  19.240  17.680   5.610
  156BOLB   PO1 3722  19.320  17.310   5.910
  156BOLB   GL1 3723  19.270  17.110   5.470
  156BOLB   GL2 3724  19.160  17.310   5.240
  156BOLB   C1A 3725  19.540  17.040   5.160
  156BOLB   C2A 3726  19.570  16.950   4.790
  156BOLB   C3A 3727  19.880  16.820   4.670
  156BOLB   C4A 3728  20.140  16.560   4.400
  156BOLB   C1B 3729  19.120  17.250   4.840
  156BOLB   C2B 3730  19.190  17.180   4.370
  156BOLB   C3B 3731  19.520  16.910   4.160
  156BOLB   C4B 3732  19.840  16.760   3.960
  156BOLB   NC2 3733  20.670  15.810   2.120
  156BOLB   PO2 3734  20.870  16.130   2.170
  156BOLB   GL3 3735  20.720  16.380   2.520
  156BOLB   GL4 3736  20.550  16.040   2.620
  156BOLB   C1C 3737  20.740  16.380   2.950
  156BOLB   C2C 3738  20.820  16.420   3.340
  156BOLB   C3C 3739  20.450  16.250   3.630
  156BOLB   C4C 3740  20.230  16.280   4.010
  156BOLB   C1D 3741  20.420  15.980   2.970
  156BOLB   C2D 3742  20.100  15.750   3.340
  156BOLB   C3D 3743  19.800  15.670   3.620
  156BOLB   C4D 3744  19.440  15.560   3.870
  157BOLB   NC1 3745  14.130  11.710  12.280
  157BOLB   PO1 3746  14.400  11.650  11.920
  157BOLB   GL1 3747  14.320  11.470  11.650
  157BOLB   GL2 3748  14.530  11.450  11.320
  157BOLB   C1A 3749  14.020  11.320  11.350
  157BOLB   C2A 3750  14.150  11.040  10.870
  157BOLB   C3A 3751  13.950  11.120  10.490
  157BOLB   C4A 3752  13.680  10.990  10.390
  157BOLB   C1B 3753  14.500  11.140  11.230
  157BOLB   C2B 3754  14.420  10.960  11.620
  157BOLB   C3B 3755  14.290  10.600  11.740
  157BOLB   C4B 3756  14.200  10.150  11.910
  157BOLB   NC2 3757  12.300   9.000   8.820
  157BOLB   PO2 3758  12.610   9.300   8.880
  157BOLB   GL3 3759  12.930   9.590   9.010
  157BOLB   GL4 3760  12.880   9.980   9.000
  157BOLB   C1C 3761  13.280   9.740   9.200
  157BOLB   C2C 3762  13.260  10.080   9.620
  157BOLB   C3C 3763  13.220  10.490   9.890
  157BOLB   C4C 3764  13.500  10.740  10.050
  157BOLB   C1D 3765  13.260  10.230   9.130
  157BOLB   C2D 3766  13.510  10.530   9.230
  157BOLB   C3D 3767  13.570  10.960   9.080
  157BOLB   C4D 3768  13.950  11.210   9.180
  158BOLB   NC1 3769  13.690  12.560  13.100
  158BOLB   PO1 3770  13.570  12.210  13.340
  158BOLB   GL1 3771  13.170  11.760  13.290
  158BOLB   GL2 3772  13.150  11.440  13.140
  158BOLB   C1A 3773  12.860  11.850  13.130
  158BOLB   C2A 3774  12.520  12.080  13.320
  158BOLB   C3A 3775  12.220  11.860  13.610
  158BOLB   C4A 3776  11.960  11.680  13.930
  158BOLB   C1B 3777  12.790  11.330  12.750
  158BOLB   C2B 3778  12.380  11.350  12.610
  158BOLB   C3B 3779  11.940  11.310  12.360
  158BOLB   C4B 3780  11.590  11.210  12.220
  158BOLB   NC2 3781  10.010  10.820  13.520
  158BOLB   PO2 3782  10.400  10.560  13.430
  158BOLB   GL3 3783  10.490  11.020  13.420
  158BOLB   GL4 3784  10.730  10.950  13.680
  158BOLB   C1C 3785  10.590  11.400  13.570
  158BOLB   C2C 3786  11.020  11.550  13.860
  158BOLB   C3C 3787  11.190  11.760  14.130
  158BOLB   C4C 3788  11.540  11.890  14.080
  158BOLB   C1D 3789  10.970  11.150  13.340
  158BOLB   C2D 3790  11.220  11.270  13.000
  158BOLB   C3D 3791  11.170  11.190  12.590
  158BOLB   C4D 3792  11.090  11.040  12.230
  159BOLB   NC1 3793   7.930  13.410  15.040
  159BOLB   PO1 3794   8.350  13.220  14.830
  159BOLB   GL1 3795   8.650  13.440  14.590
  159BOLB   GL2 3796   8.790  13.620  14.880
  159BOLB   C1A 3797   9.040  13.520  14.390
  159BOLB   C2A 3798   9.440  13.840  14.580
  159BOLB   C3A 3799   9.890  13.740  14.610
  159BOLB   C4A 3800  10.240  14.120  14.590
  159BOLB   C1B 3801   9.140  13.600  15.010
  159BOLB   C2B 3802   9.610  13.690  15.050
  159BOLB   C3B 3803   9.930  13.570  15.300
  159BOLB   C4B 3804  10.250  13.740  15.540
  159BOLB   NC2 3805  12.060  15.040  16.250
  159BOLB   PO2 3806  11.760  14.820  16.030
  159BOLB   GL3 3807  11.560  14.880  15.630
  159BOLB   GL4 3808  11.170  14.930  15.610
  159BOLB   C1C 3809  11.530  14.980  15.170
  159BOLB   C2C 3810  11.350  14.840  14.660
  159BOLB   C3C 3811  11.160  14.470  14.420
  159BOLB   C4C 3812  10.700  14.290  14.440
  159BOLB   C1D 3813  11.000  14.810  15.210
  159BOLB   C2D 3814  10.870  14.390  15.010
  159BOLB   C3D 3815  11.090  13.950  15.160
  159BOLB   C4D 3816  11.330  13.570  15.090
  160BOLB   NC1 3817  16.660  15.210   6.440
  160BOLB   PO1 3818  16.920  14.750   6.330
  160BOLB   GL1 3819  16.830  14.510   5.990
  160BOLB   GL2 3820  16.580  14.170   6.040
  160BOLB   C1A 3821  17.070  14.280   5.670
  160BOLB   C2A 3822  17.150  14.180   5.350
  160BOLB   C3A 3823  17.460  13.820   5.180
  160BOLB   C4A 3824  17.670  13.540   5.100
  160BOLB   C1B 3825  16.620  13.910   5.680
  160BOLB   C2B 3826  16.430  13.660   5.290
  160BOLB   C3B 3827  16.490  13.530   4.870
  160BOLB   C4B 3828  16.240  13.520   4.480
  160BOLB   NC2 3829  17.730  11.420   4.010
  160BOLB   PO2 3830  18.140  11.560   3.870
  160BOLB   GL3 3831  18.130  11.770   4.250
  160BOLB   GL4 3832  18.260  11.870   4.450
  160BOLB   C1C 3833  17.960  12.210   4.200
  160BOLB   C2C 3834  17.720  12.570   4.420
  160BOLB   C3C 3835  17.730  12.950   4.640
  160BOLB   C4C 3836  17.860  13.400   4.710
  160BOLB   C1D 3837  18.430  12.220   4.860
  160BOLB   C2D 3838  18.420  12.590   5.080
  160BOLB   C3D 3839  18.300  12.930   5.290
  160BOLB   C4D 3840  18.210  13.070   5.710
  161BOLB   NC1 3841  10.590  15.210  17.040
  161BOLB   PO1 3842  10.660  15.370  17.490
  161BOLB   GL1 3843  10.780  15.140  17.890
  161BOLB   GL2 3844  10.720  14.840  17.740
  161BOLB   C1A 3845  10.560  15.140  18.200
  161BOLB   C2A 3846  10.330  15.070  18.550
  161BOLB   C3A 3847   9.900  14.990  18.630
  161BOLB   C4A 3848   9.640  15.030  18.980
  161BOLB   C1B 3849  10.460  14.660  17.990
  161BOLB   C2B 3850  10.410  14.670  18.350
  161BOLB   C3B 3851  10.350  14.640  18.780
  161BOLB   C4B 3852  10.530  14.670  19.150
  161BOLB   NC2 3853   7.880  13.950  20.100
  161BOLB   PO2 3854   8.290  13.840  20.200
  161BOLB   GL3 3855   8.690  13.830  20.060
  161BOLB   GL4 3856   8.700  13.720  19.660
  161BOLB   C1C 3857   9.030  13.960  19.860
  161BOLB   C2C 3858   9.420  14.140  19.760
  161BOLB   C3C 3859   9.390  14.620  19.650
  161BOLB   C4C 3860   9.580  14.950  19.350
  161BOLB   C1D 3861   8.750  13.850  19.300
  161BOLB   C2D 3862   9.140  14.050  19.110
  161BOLB   C3D 3863   9.590  14.060  18.880
  161BOLB   C4D 3864   9.910  14.440  18.840
  162BOLB   NC1 3865  12.680  13.190  16.110
  162BOLB   PO1 3866  13.100  13.100  16.000
  162BOLB   GL1 3867  12.920  12.820  16.290
  162BOLB   GL2 3868  12.820  12.540  16.070
  162BOLB   C1A 3869  12.570  12.630  16.600
  162BOLB   C2A 3870  12.170  12.670  16.680
  162BOLB   C3A 3871  12.130  12.330  16.860
  162BOLB   C4A 3872  11.900  12.030  17.030
  162BOLB   C1B 3873  12.570  12.260  16.290
  162BOLB   C2B 3874  12.590  11.810  16.320
  162BOLB   C3B 3875  12.570  11.410  16.380
  162BOLB   C4B 3876  12.410  11.090  16.640
  162BOLB   NC2 3877  10.310   9.930  17.450
  162BOLB   PO2 3878  10.720   9.970  17.740
  162BOLB   GL3 3879  11.140  10.050  17.440
  162BOLB   GL4 3880  11.430   9.930  17.190
  162BOLB   C1C 3881  11.200  10.420  17.240
  162BOLB   C2C 3882  11.470  10.750  17.020
  162BOLB   C3C 3883  11.460  11.140  16.870
  162BOLB   C4C 3884  11.640  11.580  17.060
  162BOLB   C1D 3885  11.690  10.300  17.120
  162BOLB   C2D 3886  11.980  10.500  16.850
  162BOLB   C3D 3887  12.120  10.700  16.410
  162BOLB   C4D 3888  12.430  10.800  16.230
  163BOLB   NC1 3889  17.430  12.180  13.200
  163BOLB   PO1 3890  17.860  12.340  13.370
  163BOLB   GL1 3891  17.970  11.860  13.480
  163BOLB   GL2 3892  18.320  12.020  13.510
  163BOLB   C1A 3893  17.990  11.360  13.580
  163BOLB   C2A 3894  17.850  10.960  13.780
  163BOLB   C3A 3895  17.930  10.540  13.740
  163BOLB   C4A 3896  18.030  10.180  13.800
  163BOLB   C1B 3897  18.440  11.580  13.410
  163BOLB   C2B 3898  18.600  11.110  13.400
  163BOLB   C3B 3899  18.790  10.760  13.190
  163BOLB   C4B 3900  18.960  10.690  12.710
  163BOLB   NC2 3901  18.270   7.800  14.200
  163BOLB   PO2 3902  18.150   8.110  14.500
  163BOLB   GL3 3903  18.210   8.490  14.530
  163BOLB   GL4 3904  17.860   8.660  14.460
  163BOLB   C1C 3905  18.210   8.970  14.770
  163BOLB   C2C 3906  18.250   9.340  14.550
  163BOLB   C3C 3907  18.240   9.460  14.210
  163BOLB   C4C 3908  18.150   9.790  13.970
  163BOLB   C1D 3909  17.880   9.090  14.440
  163BOLB   C2D 3910  17.780   9.510  14.270
  163BOLB   C3D 3911  17.680   9.940  14.250
  163BOLB   C4D 3912  17.850  10.240  14.670
  164BOLB   NC1 3913  18.130  13.290  16.860
  164BOLB   PO1 3914  18.540  13.380  16.710
  164BOLB   GL1 3915  18.390  12.930  16.720
  164BOLB   GL2 3916  18.510  12.730  16.590
  164BOLB   C1A 3917  18.340  12.780  17.140
  164BOLB   C2A 3918  18.400  12.420  17.470
  164BOLB   C3A 3919  18.670  12.330  17.830
  164BOLB   C4A 3920  19.030  12.160  17.950
  164BOLB   C1B 3921  18.780  12.520  16.850
  164BOLB   C2B 3922  18.670  12.150  17.110
  164BOLB   C3B 3923  18.720  11.940  17.550
  164BOLB   C4B 3924  18.630  11.840  17.970
  164BOLB   NC2 3925  19.290  10.120  19.230
  164BOLB   PO2 3926  19.150  10.580  19.460
  164BOLB   GL3 3927  18.990  10.990  19.450
  164BOLB   GL4 3928  19.180  11.090  19.450
  164BOLB   C1C 3929  18.680  11.090  19.370
  164BOLB   C2C 3930  18.640  11.340  18.980
  164BOLB   C3C 3931  18.970  11.560  18.630
  164BOLB   C4C 3932  19.150  11.970  18.280
  164BOLB   C1D 3933  19.360  11.440  19.130
  164BOLB   C2D 3934  19.500  11.780  19.020
  164BOLB   C3D 3935  19.440  12.020  18.700
  164BOLB   C4D 3936  19.110  12.370  18.600
  165BOLB   NC1 3937  19.000  16.780  19.270
  165BOLB   PO1 3938  18.900  17.150  19.450
  165BOLB   GL1 3939  19.060  17.060  19.790
  165BOLB   GL2 3940  18.850  17.210  20.070
  165BOLB   C1A 3941  19.140  16.780  20.140
  165BOLB   C2A 3942  19.380  16.590  20.580
  165BOLB   C3A 3943  19.530  16.540  21.080
  165BOLB   C4A 3944  19.460  16.730  21.350
  165BOLB   C1B 3945  19.320  17.240  20.260
  165BOLB   C2B 3946  19.610  17.150  20.650
  165BOLB   C3B 3947  19.710  17.030  21.020
  165BOLB   C4B 3948  19.890  17.150  21.370
  165BOLB   NC2 3949  20.040  16.000  23.210
  165BOLB   PO2 3950  19.540  15.700  23.210
  165BOLB   GL3 3951  19.580  15.980  22.880
  165BOLB   GL4 3952  19.430  16.270  22.850
  165BOLB   C1C 3953  19.680  16.030  22.420
  165BOLB   C2C 3954  19.420  16.050  22.050
  165BOLB   C3C 3955  19.280  16.350  21.870
  165BOLB   C4C 3956  19.310  16.620  21.650
  165BOLB   C1D 3957  19.640  16.500  22.570
  165BOLB   C2D 3958  19.680  16.860  22.260
  165BOLB   C3D 3959  19.510  17.030  21.770
  165BOLB   C4D 3960  19.200  17.140  21.430
  166BOLB   NC1 3961  18.780  16.070  23.510
  166BOLB   PO1 3962  19.130  16.410  23.580
  166BOLB   GL1 3963  19.130  16.640  23.180
  166BOLB   GL2 3964  19.320  16.910  23.110
  166BOLB   C1A 3965  19.030  16.680  22.730
  166BOLB   C2A 3966  18.560  16.640  22.360
  166BOLB   C3A 3967  18.300  16.650  21.920
  166BOLB   C4A 3968  18.270  16.470  21.590
  166BOLB   C1B 3969  19.410  16.960  22.760
  166BOLB   C2B 3970  19.400  17.260  22.350
  166BOLB   C3B 3971  19.190  17.690  22.380
  166BOLB   C4B 3972  18.900  17.820  22.070
  166BOLB   NC2 3973  17.110  17.020  19.370
  166BOLB   PO2 3974  17.450  17.160  19.630
  166BOLB   GL3 3975  17.740  16.970  19.950
  166BOLB   GL4 3976  17.650  16.980  20.260
  166BOLB   C1C 3977  18.040  16.620  20.270
  166BOLB   C2C 3978  17.940  16.500  20.590
  166BOLB   C3C 3979  18.020  16.350  20.890
  166BOLB   C4C 3980  18.120  16.160  21.260
  166BOLB   C1D 3981  17.550  16.760  20.580
  166BOLB   C2D 3982  17.470  16.530  20.990
  166BOLB   C3D 3983  17.260  16.370  21.400
  166BOLB   C4D 3984  17.040  16.060  21.600
  167BOLB   NC1 3985  18.490  13.280   8.970
  167BOLB   PO1 3986  18.630  13.200   9.400
  167BOLB   GL1 3987  18.840  12.950   9.040
  167BOLB   GL2 3988  18.820  12.890   8.670
  167BOLB   C1A 3989  18.980  12.570   9.150
  167BOLB   C2A 3990  18.880  12.160   8.950
  167BOLB   C3A 3991  18.850  11.780   8.880
  167BOLB   C4A 3992  18.740  11.380   8.790
  167BOLB   C1B 3993  19.010  12.550   8.310
  167BOLB   C2B 3994  18.800  12.220   8.090
  167BOLB   C3B 3995  18.410  12.040   8.040
  167BOLB   C4B 3996  18.260  11.750   8.070
  167BOLB   NC2 3997  19.290   9.170   8.360
  167BOLB   PO2 3998  19.640   9.400   8.400
  167BOLB   GL3 3999  19.440   9.730   8.520
  167BOLB   GL4 4000  19.520   9.990   8.630
  167BOLB   C1C 4001  19.100   9.820   8.840
  167BOLB   C2C 4002  19.110  10.100   9.190
  167BOLB   C3C 4003  18.920  10.540   9.130
  167BOLB   C4C 4004  18.830  10.990   8.890
  167BOLB   C1D 4005  19.300  10.310   8.760
  167BOLB   C2D 4006  19.000  10.570   8.580
  167BOLB   C3D 4007  18.570  10.830   8.500
  167BOLB   C4D 4008  18.090  10.830   8.520
  168BOLB   NC1 4009   5.700  20.510  11.010
  168BOLB   PO1 4010   5.570  20.430  11.410
  168BOLB   GL1 4011   6.060  20.490  11.580
  168BOLB   GL2 4012   6.190  20.520  11.880
  168BOLB   C1A 4013   6.530  20.580  11.500
  168BOLB   C2A 4014   6.970  20.650  11.500
  168BOLB   C3A 4015   7.320  20.710  11.780
  168BOLB   C4A 4016   7.480  20.610  12.100
  168BOLB   C1B 4017   6.230  20.920  12.150
  168BOLB   C2B 4018   6.010  20.980  12.560
  168BOLB   C3B 4019   6.170  21.150  12.900
  168BOLB   C4B 4020   6.410  21.400  13.000
  168BOLB   NC2 4021   5.330  19.470  11.690
  168BOLB   PO2 4022   5.560  19.800  11.890
  168BOLB   GL3 4023   5.940  19.770  12.130
  168BOLB   GL4 4024   5.900  19.920  12.420
  168BOLB   C1C 4025   6.350  19.810  12.270
  168BOLB   C2C 4026   6.810  19.850  12.480
  168BOLB   C3C 4027   7.110  20.240  12.490
  168BOLB   C4C 4028   7.450  20.520  12.510
  168BOLB   C1D 4029   6.090  20.280  12.290
  168BOLB   C2D 4030   6.340  20.560  12.450
  168BOLB   C3D 4031   6.610  21.000  12.500
  168BOLB   C4D 4032   7.020  20.930  12.670
  169BOLB   NC1 4033  19.200  16.690   6.790
  169BOLB   PO1 4034  19.250  16.430   6.420
  169BOLB   GL1 4035  19.320  15.940   6.290
  169BOLB   GL2 4036  19.130  15.800   6.050
  169BOLB   C1A 4037  19.600  15.500   6.300
  169BOLB   C2A 4038  19.840  15.210   6.390
  169BOLB   C3A 4039  19.990  14.910   6.120
  169BOLB   C4A 4040  19.910  14.820   5.780
  169BOLB   C1B 4041  19.330  15.440   5.830
  169BOLB   C2B 4042  19.740  15.290   5.860
  169BOLB   C3B 4043  19.950  15.220   5.450
  169BOLB   C4B 4044  20.000  15.330   5.050
  169BOLB   NC2 4045  21.840  14.570   3.930
  169BOLB   PO2 4046  21.560  14.210   3.990
  169BOLB   GL3 4047  21.250  14.360   4.210
  169BOLB   GL4 4048  20.940  14.190   4.330
  169BOLB   C1C 4049  20.910  14.670   4.300
  169BOLB   C2C 4050  20.660  14.840   4.680
  169BOLB   C3C 4051  20.350  14.880   5.050
  169BOLB   C4C 4052  20.030  14.740   5.320
  169BOLB   C1D 4053  20.750  14.350   4.760
  169BOLB   C2D 4054  20.460  14.260   4.980
  169BOLB   C3D 4055  20.280  14.330   5.400
  169BOLB   C4D 4056  19.910  14.310   5.580
  170BOLB   NC1 4057  20.090  16.730   8.150
  170BOLB   PO1 4058  20.510  16.590   7.940
  170BOLB   GL1 4059  20.820  16.400   7.520
  170BOLB   GL2 4060  21.070  16.100   7.600
  170BOLB   C1A 4061  20.920  16.100   7.080
  170BOLB   C2A 4062  21.150  16.070   6.670
  170BOLB   C3A 4063  21.310  15.930   6.370
  170BOLB   C4A 4064  21.500  15.700   6.060
  170BOLB   C1B 4065  21.310  15.910   7.300
  170BOLB   C2B 4066  21.450  15.750   6.840
  170BOLB   C3B 4067  21.600  15.400   6.570
  170BOLB   C4B 4068  21.780  15.260   6.210
  170BOLB   NC2 4069  23.350  14.670   4.230
  170BOLB   PO2 4070  22.940  14.700   4.240
  170BOLB   GL3 4071  22.740  14.830   4.690
  170BOLB   GL4 4072  22.950  14.700   4.930
  170BOLB   C1C 4073  22.700  15.150   5.090
  170BOLB   C2C 4074  22.480  15.400   5.300
  170BOLB   C3C 4075  22.120  15.520   5.580
  170BOLB   C4C 4076  21.670  15.580   5.660
  170BOLB   C1D 4077  23.030  14.860   5.310
  170BOLB   C2D 4078  22.810  14.990   5.710
  170BOLB   C3D 4079  22.410  15.190   5.740
  170BOLB   C4D 4080  21.930  15.050   5.800
  171BOLB   NC1 4081  15.800  15.820  19.190
  171BOLB   PO1 4082  15.440  16.020  19.080
  171BOLB   GL1 4083  15.320  16.110  19.410
  171BOLB   GL2 4084  15.700  16.120  19.570
  171BOLB   C1A 4085  15.260  16.080  19.790
  171BOLB   C2A 4086  15.460  16.270  20.230
  171BOLB   C3A 4087  15.360  16.350  20.540
  171BOLB   C4A 4088  15.250  16.280  20.930
  171BOLB   C1B 4089  15.760  15.940  19.980
  171BOLB   C2B 4090  15.930  15.890  20.350
  171BOLB   C3B 4091  16.120  15.810  20.720
  171BOLB   C4B 4092  16.520  15.780  20.930
  171BOLB   NC2 4093  15.130  15.810  23.250
  171BOLB   PO2 4094  15.550  15.820  23.150
  171BOLB   GL3 4095  15.410  15.920  22.830
  171BOLB   GL4 4096  15.470  15.680  22.510
  171BOLB   C1C 4097  15.440  16.280  22.550
  171BOLB   C2C 4098  15.580  16.540  22.260
  171BOLB   C3C 4099  15.380  16.520  21.830
  171BOLB   C4C 4100  15.410  16.300  21.360
  171BOLB   C1D 4101  15.390  15.740  22.080
  171BOLB   C2D 4102  15.220  15.880  21.740
  171BOLB   C3D 4103  14.830  15.830  21.500
  171BOLB   C4D 4104  14.630  15.540  21.640
  172BOLB   NC1 4105   9.160  23.590  12.660
  172BOLB   PO1 4106   8.800  23.330  12.650
  172BOLB   GL1 4107   8.380  23.420  12.690
  172BOLB   GL2 4108   8.330  23.420  12.320
  172BOLB   C1A 4109   8.070  23.710  12.780
  172BOLB   C2A 4110   7.550  23.930  12.720
  172BOLB   C3A 4111   7.160  23.850  12.620
  172BOLB   C4A 4112   6.810  23.570  12.370
  172BOLB   C1B 4113   7.840  23.690  12.340
  172BOLB   C2B 4114   7.390  23.660  12.170
  172BOLB   C3B 4115   7.180  23.370  11.880
  172BOLB   C4B 4116   7.000  23.060  11.630
  172BOLB   NC2 4117   4.510  23.710  11.680
  172BOLB   PO2 4118   4.700  23.630  12.040
  172BOLB   GL3 4119   5.010  23.440  11.920
  172BOLB   GL4 4120   5.090  23.610  11.600
  172BOLB   C1C 4121   5.450  23.330  11.750
  172BOLB   C2C 4122   5.860  23.330  11.950
  172BOLB   C3C 4123   6.270  23.270  12.060
  172BOLB   C4C 4124   6.450  23.340  12.400
  172BOLB   C1D 4125   5.460  23.680  11.480
  172BOLB   C2D 4126   5.840  23.640  11.510
  172BOLB   C3D 4127   6.170  23.390  11.170
  172BOLB   C4D 4128   6.560  23.230  11.090
  173BOLB   NC1 4129  12.570  17.630   7.720
  173BOLB   PO1 4130  12.580  17.480   7.350
  173BOLB   GL1 4131  12.320  17.240   7.580
  173BOLB   GL2 4132  12.080  17.610   7.590
  173BOLB   C1A 4133  11.930  17.020   7.720
  173BOLB   C2A 4134  11.660  16.970   7.910
  173BOLB   C3A 4135  11.390  16.820   8.050
  173BOLB   C4A 4136  10.980  16.680   8.290
  173BOLB   C1B 4137  11.710  17.460   7.520
  173BOLB   C2B 4138  11.270  17.290   7.660
  173BOLB   C3B 4139  10.950  17.040   7.850
  173BOLB   C4B 4140  10.640  16.850   7.570
  173BOLB   NC2 4141   9.120  15.720   8.890
  173BOLB   PO2 4142   8.980  16.250   9.020
  173BOLB   GL3 4143   9.370  16.410   8.810
  173BOLB   GL4 4144   9.260  16.730   8.750
  173BOLB   C1C 4145   9.680  16.390   8.910
  173BOLB   C2C 4146  10.070  16.580   8.910
  173BOLB   C3C 4147  10.460  16.830   8.830
  173BOLB   C4C 4148  10.750  16.840   8.570
  173BOLB   C1D 4149   9.530  16.930   9.050
  173BOLB   C2D 4150   9.530  17.140   9.410
  173BOLB   C3D 4151   9.500  17.610   9.590
  173BOLB   C4D 4152   9.800  17.840   9.930
  174BOLB   NC1 4153  12.310  15.020  17.970
  174BOLB   PO1 4154  11.870  14.840  17.890
  174BOLB   GL1 4155  11.960  14.460  18.140
  174BOLB   GL2 4156  11.910  14.400  18.500
  174BOLB   C1A 4157  11.900  13.940  18.230
  174BOLB   C2A 4158  11.470  13.640  18.160
  174BOLB   C3A 4159  11.270  13.420  18.380
  174BOLB   C4A 4160  10.820  13.360  18.440
  174BOLB   C1B 4161  11.520  14.130  18.530
  174BOLB   C2B 4162  11.250  13.720  18.730
  174BOLB   C3B 4163  11.350  13.490  18.970
  174BOLB   C4B 4164  11.760  13.440  19.060
  174BOLB   NC2 4165   9.060  12.380  19.850
  174BOLB   PO2 4166   9.430  12.420  19.950
  174BOLB   GL3 4167   9.560  12.340  19.520
  174BOLB   GL4 4168   9.210  12.410  19.360
  174BOLB   C1C 4169   9.870  12.170  19.110
  174BOLB   C2C 4170  10.050  12.430  18.730
  174BOLB   C3C 4171  10.150  12.810  18.530
  174BOLB   C4C 4172  10.380  13.240  18.420
  174BOLB   C1D 4173   9.420  12.030  19.160
  174BOLB   C2D 4174   9.750  11.730  18.940
  174BOLB   C3D 4175  10.020  11.410  18.700
  174BOLB   C4D 4176  10.260  11.580  18.310
  175BOLB   NC1 4177  20.700  18.640   6.090
  175BOLB   PO1 4178  20.810  18.230   6.260
  175BOLB   GL1 4179  20.970  17.870   5.990
  175BOLB   GL2 4180  20.830  17.510   5.940
  175BOLB   C1A 4181  21.260  17.790   5.670
  175BOLB   C2A 4182  21.620  17.630   5.410
  175BOLB   C3A 4183  21.580  17.280   5.260
  175BOLB   C4A 4184  21.790  16.840   5.060
  175BOLB   C1B 4185  21.150  17.300   5.710
  175BOLB   C2B 4186  21.040  17.030   5.320
  175BOLB   C3B 4187  20.960  16.600   5.150
  175BOLB   C4B 4188  21.370  16.470   5.040
  175BOLB   NC2 4189  22.330  16.560   3.150
  175BOLB   PO2 4190  22.240  16.130   3.300
  175BOLB   GL3 4191  22.300  16.300   3.730
  175BOLB   GL4 4192  22.640  16.190   3.960
  175BOLB   C1C 4193  22.120  16.150   4.120
  175BOLB   C2C 4194  21.710  16.260   4.230
  175BOLB   C3C 4195  21.550  16.310   4.600
  175BOLB   C4C 4196  21.840  16.570   4.700
  175BOLB   C1D 4197  22.480  16.200   4.430
  175BOLB   C2D 4198  22.220  16.230   4.790
  175BOLB   C3D 4199  22.310  16.280   5.280
  175BOLB   C4D 4200  22.580  16.490   5.610
  176BOLB   NC1 4201  16.700  15.310  23.460
  176BOLB   PO1 4202  17.000  15.680  23.270
  176BOLB   GL1 4203  17.030  15.970  22.960
  176BOLB   GL2 4204  16.660  16.040  22.780
  176BOLB   C1A 4205  17.120  16.230  22.520
  176BOLB   C2A 4206  17.280  16.550  22.150
  176BOLB   C3A 4207  17.510  16.770  21.730
  176BOLB   C4A 4208  17.890  16.850  21.670
  176BOLB   C1B 4209  16.680  16.020  22.400
  176BOLB   C2B 4210  16.730  16.250  22.010
  176BOLB   C3B 4211  16.930  16.610  21.760
  176BOLB   C4B 4212  17.130  16.830  21.400
  176BOLB   NC2 4213  16.760  17.140  23.600
  176BOLB   PO2 4214  17.220  17.250  23.560
  176BOLB   GL3 4215  17.600  17.050  23.320
  176BOLB   GL4 4216  17.340  16.880  23.010
  176BOLB   C1C 4217  17.830  17.020  22.980
  176BOLB   C2C 4218  18.030  17.350  22.650
  176BOLB   C3C 4219  18.050  17.490  22.230
  176BOLB   C4C 4220  18.090  17.250  21.770
  176BOLB   C1D 4221  17.120  16.900  22.640
  176BOLB   C2D 4222  17.030  17.130  22.240
  176BOLB   C3D 4223  17.220  17.120  21.850
  176BOLB   C4D 4224  17.060  17.340  21.490
  177BOLB   NC1 4225  21.690  14.390  14.790
  177BOLB   PO1 4226  22.090  14.620  14.760
  177BOLB   GL1 4227  22.370  14.360  14.650
  177BOLB   GL2 4228  22.560  14.510  14.430
  177BOLB   C1A 4229  22.660  14.040  14.810
  177BOLB   C2A 4230  23.060  13.780  14.780
  177BOLB   C3A 4231  23.490  13.710  14.790
  177BOLB   C4A 4232  23.910  13.720  14.830
  177BOLB   C1B 4233  22.900  14.240  14.440
  177BOLB   C2B 4234  23.250  13.990  14.380
  177BOLB   C3B 4235  23.480  13.760  14.280
  177BOLB   C4B 4236  23.730  13.460  14.420
  177BOLB   NC2 4237  24.180  11.170  15.980
  177BOLB   PO2 4238  24.470  11.470  15.800
  177BOLB   GL3 4239  24.340  11.830  15.650
  177BOLB   GL4 4240  24.200  12.060  15.870
  177BOLB   C1C 4241  24.240  12.110  15.270
  177BOLB   C2C 4242  24.150  12.460  15.140
  177BOLB   C3C 4243  24.230  12.920  14.890
  177BOLB   C4C 4244  24.180  13.390  14.750
  177BOLB   C1D 4245  23.900  12.320  15.600
  177BOLB   C2D 4246  23.580  12.610  15.480
  177BOLB   C3D 4247  23.390  13.010  15.290
  177BOLB   C4D 4248  23.210  13.350  15.070
  178BOLB   NC1 4249   7.610  14.240  18.780
  178BOLB   PO1 4250   7.190  14.440  18.620
  178BOLB   GL1 4251   7.390  14.790  18.420
  178BOLB   GL2 4252   7.650  14.570  18.300
  178BOLB   C1A 4253   7.490  15.240  18.550
  178BOLB   C2A 4254   7.460  15.630  18.420
  178BOLB   C3A 4255   7.750  15.760  18.110
  178BOLB   C4A 4256   8.030  16.130  18.160
  178BOLB   C1B 4257   7.900  14.850  17.970
  178BOLB   C2B 4258   8.070  14.870  17.550
  178BOLB   C3B 4259   7.970  15.130  17.220
  178BOLB   C4B 4260   8.050  15.310  16.710
  178BOLB   NC2 4261  10.570  16.260  18.330
  178BOLB   PO2 4262  10.430  15.890  18.210
  178BOLB   GL3 4263   9.950  15.730  18.170
  178BOLB   GL4 4264  10.050  15.430  18.410
  178BOLB   C1C 4265   9.510  15.660  18.300
  178BOLB   C2C 4266   9.120  15.960  18.390
  178BOLB   C3C 4267   8.850  16.270  18.160
  178BOLB   C4C 4268   8.430  16.260  18.130
  178BOLB   C1D 4269   9.780  15.250  18.120
  178BOLB   C2D 4270   9.600  15.090  17.830
  178BOLB   C3D 4271   9.670  14.700  17.610
  178BOLB   C4D 4272   9.650  14.340  17.880
  179BOLB   NC1 4273   5.910  21.020  18.820
  179BOLB   PO1 4274   6.230  20.970  18.930
  179BOLB   GL1 4275   6.360  20.520  18.800
  179BOLB   GL2 4276   6.680  20.510  18.810
  179BOLB   C1A 4277   6.430  20.320  18.410
  179BOLB   C2A 4278   6.610  20.150  17.980
  179BOLB   C3A 4279   6.910  20.030  17.680
  179BOLB   C4A 4280   7.140  19.720  17.370
  179BOLB   C1B 4281   6.930  20.490  18.270
  179BOLB   C2B 4282   7.330  20.520  18.010
  179BOLB   C3B 4283   7.740  20.530  17.930
  179BOLB   C4B 4284   8.150  20.650  17.820
  179BOLB   NC2 4285   9.110  20.570  15.890
  179BOLB   PO2 4286   8.800  20.260  15.910
  179BOLB   GL3 4287   8.560  20.090  15.710
  179BOLB   GL4 4288   8.540  20.120  15.320
  179BOLB   C1C 4289   8.110  20.070  15.880
  179BOLB   C2C 4290   8.010  19.860  16.290
  179BOLB   C3C 4291   7.720  19.820  16.620
  179BOLB   C4C 4292   7.440  19.710  17.030
  179BOLB   C1D 4293   8.130  20.130  15.400
  179BOLB   C2D 4294   7.770  20.370  15.580
  179BOLB   C3D 4295   7.420  20.430  15.360
  179BOLB   C4D 4296   7.230  20.760  15.130
  180BOLB   NC1 4297  15.810  11.870  12.250
  180BOLB   PO1 4298  16.150  11.920  11.980
  180BOLB   GL1 4299  15.970  11.490  11.910
  180BOLB   GL2 4300  15.760  11.580  11.790
  180BOLB   C1A 4301  16.130  11.110  11.950
  180BOLB   C2A 4302  16.370  10.720  12.250
  180BOLB   C3A 4303  16.490  10.350  12.430
  180BOLB   C4A 4304  16.500   9.950  12.590
  180BOLB   C1B 4305  15.520  11.270  11.560
  180BOLB   C2B 4306  15.430  10.870  11.430
  180BOLB   C3B 4307  15.520  10.380  11.440
  180BOLB   C4B 4308  15.460   9.950  11.530
  180BOLB   NC2 4309  16.890   7.830  12.050
  180BOLB   PO2 4310  16.820   7.940  11.610
  180BOLB   GL3 4311  16.720   8.300  11.820
  180BOLB   GL4 4312  16.640   8.260  12.020
  180BOLB   C1C 4313  16.340   8.670  11.990
  180BOLB   C2C 4314  16.090   8.890  12.320
  180BOLB   C3C 4315  16.260   9.320  12.460
  180BOLB   C4C 4316  16.150   9.630  12.630
  180BOLB   C1D 4317  16.510   8.390  12.420
  180BOLB   C2D 4318  16.560   8.900  12.470
  180BOLB   C3D 4319  16.850   9.270  12.270
  180BOLB   C4D 4320  16.790   9.730  12.290
  181BOLB   NC1 4321  20.300  17.080  24.170
  181BOLB   PO1 4322  20.190  17.410  23.900
  181BOLB   GL1 4323  20.100  17.290  23.390
  181BOLB   GL2 4324  19.750  17.120  23.290
  181BOLB   C1A 4325  20.260  17.250  22.970
  181BOLB   C2A 4326  20.480  17.530  22.640
  181BOLB   C3A 4327  20.500  17.760  22.220
  181BOLB   C4A 4328  20.540  17.700  21.840
  181BOLB   C1B 4329  19.820  17.600  23.150
  181BOLB   C2B 4330  19.680  18.090  23.010
  181BOLB   C3B 4331  19.810  18.390  22.730
  181BOLB   C4B 4332  19.680  18.680  22.420
  181BOLB   NC2 4333  20.030  19.450  19.730
  181BOLB   PO2 4334  20.340  19.030  19.810
  181BOLB   GL3 4335  20.430  18.770  20.210
  181BOLB   GL4 4336  20.650  18.560  19.950
  181BOLB   C1C 4337  20.490  18.550  20.550
  181BOLB   C2C 4338  20.510  18.340  20.910
  181BOLB   C3C 4339  20.570  18.230  21.330
  181BOLB   C4C 4340  20.590  17.990  21.470
  181BOLB   C1D 4341  20.880  18.300  20.190
  181BOLB   C2D 4342  20.930  18.250  20.610
  181BOLB   C3D 4343  21.030  18.220  21.040
  181BOLB   C4D 4344  21.210  18.140  21.360
  182BOLB   NC1 4345  12.940  22.710  23.520
  182BOLB   PO1 4346  13.080  22.200  23.530
  182BOLB   GL1 4347  12.730  22.180  23.210
  182BOLB   GL2 4348  12.770  22.530  23.020
  182BOLB   C1A 4349  12.700  22.110  22.800
  182BOLB   C2A 4350  12.840  22.370  22.440
  182BOLB   C3A 4351  12.970  22.520  22.030
  182BOLB   C4A 4352  12.750  22.680  21.540
  182BOLB   C1B 4353  13.080  22.640  22.880
  182BOLB   C2B 4354  13.220  22.730  22.420
  182BOLB   C3B 4355  13.460  22.620  21.990
  182BOLB   C4B 4356  13.520  22.460  21.650
  182BOLB   NC2 4357  13.580  22.720  18.700
  182BOLB   PO2 4358  13.510  22.220  18.880
  182BOLB   GL3 4359  13.310  22.240  19.330
  182BOLB   GL4 4360  12.910  22.140  19.320
  182BOLB   C1C 4361  13.210  22.140  19.860
  182BOLB   C2C 4362  12.970  22.180  20.260
  182BOLB   C3C 4363  12.830  22.430  20.680
  182BOLB   C4C 4364  12.720  22.600  21.100
  182BOLB   C1D 4365  12.690  22.260  19.740
  182BOLB   C2D 4366  12.540  22.380  20.100
  182BOLB   C3D 4367  12.270  22.440  20.490
  182BOLB   C4D 4368  11.940  22.740  20.540
  183BOLB   NC1 4369   9.520  18.280  15.880
  183BOLB   PO1 4370   9.320  18.380  16.270
  183BOLB   GL1 4371   8.920  18.280  16.360
  183BOLB   GL2 4372   8.920  18.180  16.080
  183BOLB   C1A 4373   8.560  18.200  16.660
  183BOLB   C2A 4374   8.190  18.330  16.890
  183BOLB   C3A 4375   7.950  18.440  17.160
  183BOLB   C4A 4376   7.610  18.250  17.350
  183BOLB   C1B 4377   8.450  18.050  16.050
  183BOLB   C2B 4378   8.160  17.650  15.890
  183BOLB   C3B 4379   8.020  17.350  15.620
  183BOLB   C4B 4380   8.210  17.000  15.610
  183BOLB   NC2 4381   5.930  16.430  17.800
  183BOLB   PO2 4382   5.870  16.730  18.090
  183BOLB   GL3 4383   6.210  17.050  18.220
  183BOLB   GL4 4384   6.370  17.100  17.940
  183BOLB   C1C 4385   6.710  17.290  18.210
  183BOLB   C2C 4386   6.990  17.380  17.910
  183BOLB   C3C 4387   7.020  17.660  17.610
  183BOLB   C4C 4388   7.350  17.860  17.360
  183BOLB   C1D 4389   6.590  17.310  17.590
  183BOLB   C2D 4390   6.830  17.510  17.200
  183BOLB   C3D 4391   7.020  17.860  16.970
  183BOLB   C4D 4392   7.230  18.350  17.030
  184BOLB   NC1 4393  16.200   8.510   7.420
  184BOLB   PO1 4394  16.440   8.830   7.270
  184BOLB   GL1 4395  16.410   9.150   7.520
  184BOLB   GL2 4396  16.530   9.420   7.400
  184BOLB   C1A 4397  16.370   9.330   7.860
  184BOLB   C2A 4398  16.280   9.740   8.130
  184BOLB   C3A 4399  16.460  10.020   8.440
  184BOLB   C4A 4400  16.510  10.400   8.550
  184BOLB   C1B 4401  16.560   9.790   7.640
  184BOLB   C2B 4402  16.650  10.040   7.940
  184BOLB   C3B 4403  16.700  10.510   8.120
  184BOLB   C4B 4404  17.070  10.710   8.180
  184BOLB   NC2 4405  16.860  12.980   9.260
  184BOLB   PO2 4406  17.100  12.840   8.940
  184BOLB   GL3 4407  17.130  12.390   8.950
  184BOLB   GL4 4408  17.390  12.250   9.080
  184BOLB   C1C 4409  16.870  12.070   8.890
  184BOLB   C2C 4410  16.950  11.680   8.700
  184BOLB   C3C 4411  16.760  11.220   8.670
  184BOLB   C4C 4412  16.730  10.770   8.600
  184BOLB   C1D 4413  17.660  12.230   8.730
  184BOLB   C2D 4414  17.660  12.160   8.310
  184BOLB   C3D 4415  18.010  12.350   8.130
  184BOLB   C4D 4416  18.200  12.680   8.240
  185BOLB   NC1 4417  17.390  15.660  19.340
  185BOLB   PO1 4418  17.060  15.800  19.340
  185BOLB   GL1 4419  17.080  15.820  19.770
  185BOLB   GL2 4420  17.100  16.160  19.750
  185BOLB   C1A 4421  17.170  15.740  20.150
  185BOLB   C2A 4422  17.350  15.800  20.510
  185BOLB   C3A 4423  17.610  15.580  20.730
  185BOLB   C4A 4424  17.710  15.180  20.930
  185BOLB   C1B 4425  17.550  15.950  19.880
  185BOLB   C2B 4426  17.760  15.730  20.180
  185BOLB   C3B 4427  17.950  15.440  20.340
  185BOLB   C4B 4428  18.070  15.010  20.590
  185BOLB   NC2 4429  17.720  14.340  22.760
  185BOLB   PO2 4430  17.470  13.980  22.890
  185BOLB   GL3 4431  17.510  13.980  22.520
  185BOLB   GL4 4432  17.360  13.710  22.360
  185BOLB   C1C 4433  17.540  14.270  22.140
  185BOLB   C2C 4434  17.600  14.420  21.760
  185BOLB   C3C 4435  17.690  14.810  21.600
  185BOLB   C4C 4436  17.930  15.050  21.260
  185BOLB   C1D 4437  17.090  14.050  22.030
  185BOLB   C2D 4438  17.080  14.250  21.700
  185BOLB   C3D 4439  17.320  14.340  21.370
  185BOLB   C4D 4440  17.740  14.290  21.210
  186BOLB   NC1 4441   9.620  12.150  12.240
  186BOLB   PO1 4442   9.820  12.580  12.010
  186BOLB   GL1 4443  10.020  12.780  12.450
  186BOLB   GL2 4444  10.310  12.750  12.540
  186BOLB   C1A 4445  10.090  12.990  12.880
  186BOLB   C2A 4446  10.260  13.090  13.280
  186BOLB   C3A 4447  10.630  13.290  13.340
  186BOLB   C4A 4448  10.920  13.200  13.580
  186BOLB   C1B 4449  10.620  13.080  12.840
  186BOLB   C2B 4450  10.970  13.150  13.010
  186BOLB   C3B 4451  11.290  13.000  13.150
  186BOLB   C4B 4452  11.620  13.070  13.010
  186BOLB   NC2 4453  13.320  13.450  13.840
  186BOLB   PO2 4454  13.200  13.200  14.190
  186BOLB   GL3 4455  12.750  12.880  14.040
  186BOLB   GL4 4456  12.610  12.680  14.310
  186BOLB   C1C 4457  12.340  12.950  13.930
  186BOLB   C2C 4458  12.100  12.910  13.520
  186BOLB   C3C 4459  11.710  13.160  13.480
  186BOLB   C4C 4460  11.420  13.220  13.650
  186BOLB   C1D 4461  12.410  12.470  14.510
  186BOLB   C2D 4462  12.430  12.140  14.730
  186BOLB   C3D 4463  12.190  11.950  14.950
  186BOLB   C4D 4464  12.010  11.480  15.050
  187BOLB   NC1 4465   8.790  16.100  21.630
  187BOLB   PO1 4466   8.550  16.410  21.470
  187BOLB   GL1 4467   8.780  16.810  21.400
  187BOLB   GL2 4468   9.000  16.560  21.510
  187BOLB   C1A 4469   9.020  17.000  21.110
  187BOLB   C2A 4470   9.310  17.130  20.870
  187BOLB   C3A 4471   9.590  17.290  20.610
  187BOLB   C4A 4472   9.620  17.730  20.310
  187BOLB   C1B 4473   9.100  16.480  21.130
  187BOLB   C2B 4474   9.130  16.660  20.770
  187BOLB   C3B 4475   9.360  16.470  20.410
  187BOLB   C4B 4476   9.300  16.500  20.000
  187BOLB   NC2 4477   9.710  19.160  22.440
  187BOLB   PO2 4478   9.630  18.790  22.370
  187BOLB   GL3 4479   9.920  18.710  22.060
  187BOLB   GL4 4480   9.690  18.510  21.930
  187BOLB   C1C 4481  10.130  18.640  21.600
  187BOLB   C2C 4482   9.960  18.570  21.210
  187BOLB   C3C 4483   9.770  18.560  20.820
  187BOLB   C4C 4484   9.660  18.120  20.520
  187BOLB   C1D 4485   9.580  18.810  21.660
  187BOLB   C2D 4486   9.610  18.910  21.240
  187BOLB   C3D 4487   9.690  19.020  20.860
  187BOLB   C4D 4488   9.990  18.900  20.540
  188BOLB   NC1 4489  11.290  20.800  18.320
  188BOLB   PO1 4490  11.620  20.690  18.470
  188BOLB   GL1 4491  11.340  20.620  18.860
  188BOLB   GL2 4492  11.230  20.330  18.990
  188BOLB   C1A 4493  11.370  20.770  19.240
  188BOLB   C2A 4494  11.320  20.610  19.520
  188BOLB   C3A 4495  11.230  20.670  19.930
  188BOLB   C4A 4496  11.120  20.380  20.260
  188BOLB   C1B 4497  11.230  20.110  19.380
  188BOLB   C2B 4498  11.420  20.160  19.760
  188BOLB   C3B 4499  11.440  19.990  20.110
  188BOLB   C4B 4500  11.330  20.050  20.600
  188BOLB   NC2 4501   9.580  20.140  22.040
  188BOLB   PO2 4502  10.050  20.230  22.080
  188BOLB   GL3 4503  10.250  19.930  21.900
  188BOLB   GL4 4504  10.210  19.560  22.000
  188BOLB   C1C 4505  10.560  19.780  21.620
  188BOLB   C2C 4506  10.910  19.860  21.410
  188BOLB   C3C 4507  11.120  20.170  21.090
  188BOLB   C4C 4508  10.980  20.430  20.650
  188BOLB   C1D 4509  10.540  19.330  21.810
  188BOLB   C2D 4510  10.630  18.850  21.670
  188BOLB   C3D 4511  10.600  18.610  21.330
  188BOLB   C4D 4512  10.360  18.370  21.160
  189BOLB   NC1 4513  13.420   7.730  14.680
  189BOLB   PO1 4514  13.210   8.110  14.900
  189BOLB   GL1 4515  13.160   8.510  14.920
  189BOLB   GL2 4516  13.200   8.720  15.130
  189BOLB   C1A 4517  13.330   8.800  14.660
  189BOLB   C2A 4518  13.460   9.160  14.460
  189BOLB   C3A 4519  13.510   9.560  14.280
  189BOLB   C4A 4520  13.380   9.930  14.310
  189BOLB   C1B 4521  13.040   9.060  14.970
  189BOLB   C2B 4522  13.300   9.310  14.860
  189BOLB   C3B 4523  13.230   9.740  14.770
  189BOLB   C4B 4524  13.420  10.100  14.830
  189BOLB   NC2 4525  12.080   8.450  13.850
  189BOLB   PO2 4526  11.810   8.530  14.190
  189BOLB   GL3 4527  12.190   8.780  14.260
  189BOLB   GL4 4528  12.570   8.850  14.050
  189BOLB   C1C 4529  12.330   9.130  14.500
  189BOLB   C2C 4530  12.520   9.490  14.580
  189BOLB   C3C 4531  12.760   9.870  14.620
  189BOLB   C4C 4532  13.060  10.180  14.490
  189BOLB   C1D 4533  12.340   9.070  13.840
  189BOLB   C2D 4534  11.990   9.260  13.560
  189BOLB   C3D 4535  11.670   9.430  13.350
  189BOLB   C4D 4536  11.520   9.940  13.210
  190BOLB   NC1 4537  14.840  12.220  14.300
  190BOLB   PO1 4538  14.690  11.830  14.360
  190BOLB   GL1 4539  14.750  11.430  14.370
  190BOLB   GL2 4540  15.030  11.260  14.410
  190BOLB   C1A 4541  14.490  11.040  14.290
  190BOLB   C2A 4542  14.020  11.000  14.300
  190BOLB   C3A 4543  13.730  10.630  14.050
  190BOLB   C4A 4544  13.690  10.200  14.070
  190BOLB   C1B 4545  15.080  10.940  14.290
  190BOLB   C2B 4546  15.280  10.640  14.410
  190BOLB   C3B 4547  15.540  10.310  14.350
  190BOLB   C4B 4548  15.790   9.890  14.040
  190BOLB   NC2 4549  13.180   7.890  14.280
  190BOLB   PO2 4550  13.650   7.700  14.230
  190BOLB   GL3 4551  13.540   8.060  14.020
  190BOLB   GL4 4552  13.430   8.150  13.730
  190BOLB   C1C 4553  13.740   8.480  14.100
  190BOLB   C2C 4554  13.680   8.850  14.020
  190BOLB   C3C 4555  13.640   9.290  13.840
  190BOLB   C4C 4556  13.730   9.780  13.870
  190BOLB   C1D 4557  13.220   8.490  13.930
  190BOLB   C2D 4558  13.220   8.820  14.150
  190BOLB   C3D 4559  13.180   9.310  13.980
  190BOLB   C4D 4560  12.940   9.360  13.630
  191BOLB   NC1 4561  12.950  13.440  15.180
  191BOLB   PO1 4562  12.930  13.000  15.020
  191BOLB   GL1 4563  12.650  12.650  14.960
  191BOLB   GL2 4564  12.390  12.730  14.940
  191BOLB   C1A 4565  12.410  12.330  15.200
  191BOLB   C2A 4566  12.060  12.050  15.440
  191BOLB   C3A 4567  12.080  11.720  15.600
  191BOLB   C4A 4568  12.470  11.610  15.570
  191BOLB   C1B 4569  12.050  12.660  14.750
  191BOLB   C2B 4570  12.040  12.770  14.340
  191BOLB   C3B 4571  11.740  12.820  13.920
  191BOLB   C4B 4572  11.500  12.710  13.540
  191BOLB   NC2 4573  10.990   9.520  15.870
  191BOLB   PO2 4574  10.830   9.890  15.730
  191BOLB   GL3 4575  11.030  10.270  15.790
  191BOLB   GL4 4576  10.890  10.500  15.700
  191BOLB   C1C 4577  11.440  10.580  15.900
  191BOLB   C2C 4578  11.810  10.680  15.590
  191BOLB   C3C 4579  12.270  10.840  15.510
  191BOLB   C4C 4580  12.550  11.130  15.450
  191BOLB   C1D 4581  11.140  10.890  15.720
  191BOLB   C2D 4582  11.450  11.130  15.850
  191BOLB   C3D 4583  11.730  11.430  15.930
  191BOLB   C4D 4584  11.850  11.950  15.950
  192BOLB   NC1 4585  23.460  16.290  11.720
  192BOLB   PO1 4586  23.020  16.090  11.650
  192BOLB   GL1 4587  23.370  15.780  11.480
  192BOLB   GL2 4588  23.450  15.930  11.320
  192BOLB   C1A 4589  23.760  15.680  11.650
  192BOLB   C2A 4590  23.960  15.540  12.060
  192BOLB   C3A 4591  24.210  15.330  12.330
  192BOLB   C4A 4592  24.240  14.930  12.320
  192BOLB   C1B 4593  23.860  15.760  11.210
  192BOLB   C2B 4594  24.140  15.720  10.970
  192BOLB   C3B 4595  24.500  15.500  10.740
  192BOLB   C4B 4596  24.580  15.260  10.470
  192BOLB   NC2 4597  25.840  13.620  11.630
  192BOLB   PO2 4598  25.540  13.430  11.650
  192BOLB   GL3 4599  25.160  13.330  11.610
  192BOLB   GL4 4600  25.130  13.490  11.360
  192BOLB   C1C 4601  24.710  13.290  11.640
  192BOLB   C2C 4602  24.580  13.730  11.670
  192BOLB   C3C 4603  24.240  14.010  11.840
  192BOLB   C4C 4604  24.370  14.540  12.030
  192BOLB   C1D 4605  24.670  13.640  11.230
  192BOLB   C2D 4606  24.390  13.690  10.870
  192BOLB   C3D 4607  23.990  13.740  10.600
  192BOLB   C4D 4608  23.640  13.610  10.440
  193BOLB   NC1 4609  10.060  11.670  19.970
  193BOLB   PO1 4610  10.450  11.550  19.800
  193BOLB   GL1 4611  10.690  11.910  19.580
  193BOLB   GL2 4612  11.160  11.900  19.650
  193BOLB   C1A 4613  10.820  12.300  19.470
  193BOLB   C2A 4614  10.890  12.750  19.290
  193BOLB   C3A 4615  11.240  12.990  19.090
  193BOLB   C4A 4616  11.640  13.040  19.250
  193BOLB   C1B 4617  11.230  12.120  19.270
  193BOLB   C2B 4618  11.310  12.200  18.850
  193BOLB   C3B 4619  11.530  12.630  18.670
  193BOLB   C4B 4620  11.660  13.140  18.630
  193BOLB   NC2 4621  12.730  11.540  20.590
  193BOLB   PO2 4622  12.790  11.880  20.900
  193BOLB   GL3 4623  12.490  12.090  20.660
  193BOLB   GL4 4624  12.180  12.140  20.880
  193BOLB   C1C 4625  12.300  12.200  20.300
  193BOLB   C2C 4626  12.220  12.640  20.080
  193BOLB   C3C 4627  12.060  13.040  20.010
  193BOLB   C4C 4628  11.830  13.260  19.610
  193BOLB   C1D 4629  12.180  12.520  20.690
  193BOLB   C2D 4630  12.210  12.890  20.460
  193BOLB   C3D 4631  12.530  13.100  20.170
  193BOLB   C4D 4632  12.900  13.230  19.940
  194BOLB   NC1 4633  12.120  15.200  18.760
  194BOLB   PO1 4634  11.950  14.900  18.380
  194BOLB   GL1 4635  11.560  14.770  18.440
  194BOLB   GL2 4636  11.470  14.540  18.280
  194BOLB   C1A 4637  11.380  14.550  18.770
  194BOLB   C2A 4638  11.280  14.160  19.000
  194BOLB   C3A 4639  10.960  13.790  19.110
  194BOLB   C4A 4640  10.880  13.270  18.950
  194BOLB   C1B 4641  11.060  14.260  18.390
  194BOLB   C2B 4642  10.660  14.230  18.260
  194BOLB   C3B 4643  10.250  14.220  18.450
  194BOLB   C4B 4644   9.800  14.220  18.400
  194BOLB   NC2 4645   9.100  12.830  20.440
  194BOLB   PO2 4646   9.060  12.880  19.980
  194BOLB   GL3 4647   9.230  12.900  19.600
  194BOLB   GL4 4648   9.430  13.190  19.500
  194BOLB   C1C 4649   9.540  12.780  19.360
  194BOLB   C2C 4650   9.920  12.610  19.290
  194BOLB   C3C 4651  10.280  12.690  19.020
  194BOLB   C4C 4652  10.600  12.970  18.840
  194BOLB   C1D 4653   9.880  13.230  19.190
  194BOLB   C2D 4654  10.180  13.250  18.950
  194BOLB   C3D 4655  10.450  13.660  18.790
  194BOLB   C4D 4656  10.810  13.890  18.600
  195BOLB   NC1 4657  11.060   8.790  14.530
  195BOLB   PO1 4658  11.060   9.320  14.510
  195BOLB   GL1 4659  11.510   9.400  14.490
  195BOLB   GL2 4660  11.680   9.380  14.220
  195BOLB   C1A 4661  11.980   9.580  14.540
  195BOLB   C2A 4662  12.220   9.880  14.450
  195BOLB   C3A 4663  12.410  10.050  14.090
  195BOLB   C4A 4664  12.520  10.250  13.700
  195BOLB   C1B 4665  12.170   9.460  14.130
  195BOLB   C2B 4666  12.630   9.500  14.050
  195BOLB   C3B 4667  12.970   9.800  14.080
  195BOLB   C4B 4668  12.990  10.250  13.990
  195BOLB   NC2 4669  10.900   9.710  11.870
  195BOLB   PO2 4670  11.050   9.350  12.180
  195BOLB   GL3 4671  11.220   9.750  12.350
  195BOLB   GL4 4672  10.920   9.970  12.550
  195BOLB   C1C 4673  11.610   9.890  12.560
  195BOLB   C2C 4674  11.880  10.040  12.770
  195BOLB   C3C 4675  12.170  10.210  13.080
  195BOLB   C4C 4676  12.460  10.100  13.270
  195BOLB   C1D 4677  11.240  10.190  12.820
  195BOLB   C2D 4678  11.680  10.440  12.950
  195BOLB   C3D 4679  11.960  10.630  13.270
  195BOLB   C4D 4680  12.120  10.960  13.550
  196BOLB   NC1 4681   5.930  19.640  19.000
  196BOLB   PO1 4682   5.740  19.910  18.740
  196BOLB   GL1 4683   6.220  19.880  18.690
  196BOLB   GL2 4684   6.330  20.040  18.970
  196BOLB   C1A 4685   6.560  19.770  18.400
  196BOLB   C2A 4686   6.930  19.660  18.120
  196BOLB   C3A 4687   7.240  19.600  17.870
  196BOLB   C4A 4688   7.570  19.720  18.110
  196BOLB   C1B 4689   6.730  19.950  18.820
  196BOLB   C2B 4690   7.030  20.020  18.490
  196BOLB   C3B 4691   7.250  20.040  18.160
  196BOLB   C4B 4692   7.490  20.090  17.650
  196BOLB   NC2 4693   7.300  21.380  20.450
  196BOLB   PO2 4694   7.300  20.820  20.360
  196BOLB   GL3 4695   7.550  20.700  20.150
  196BOLB   GL4 4696   7.570  20.930  19.850
  196BOLB   C1C 4697   7.540  20.390  19.740
  196BOLB   C2C 4698   7.550  20.200  19.280
  196BOLB   C3C 4699   7.500  20.100  18.940
  196BOLB   C4C 4700   7.520  19.880  18.580
  196BOLB   C1D 4701   7.930  20.700  19.770
  196BOLB   C2D 4702   8.270  20.750  19.480
  196BOLB   C3D 4703   8.420  21.100  19.110
  196BOLB   C4D 4704   8.730  20.930  18.790
  197BOLB   NC1 4705  14.940  15.900  19.190
  197BOLB   PO1 4706  14.700  16.090  19.450
  197BOLB   GL1 4707  14.430  15.970  19.790
  197BOLB   GL2 4708  14.290  16.100  19.870
  197BOLB   C1A 4709  14.330  15.690  20.210
  197BOLB   C2A 4710  14.020  15.720  20.580
  197BOLB   C3A 4711  13.790  15.520  20.950
  197BOLB   C4A 4712  13.470  15.290  21.030
  197BOLB   C1B 4713  14.090  16.120  20.230
  197BOLB   C2B 4714  13.940  16.240  20.610
  197BOLB   C3B 4715  13.620  16.170  20.880
  197BOLB   C4B 4716  13.420  15.810  21.140
  197BOLB   NC2 4717  12.560  15.000  23.050
  197BOLB   PO2 4718  12.350  15.260  23.070
  197BOLB   GL3 4719  12.460  15.610  22.780
  197BOLB   GL4 4720  12.180  15.730  22.560
  197BOLB   C1C 4721  12.600  15.520  22.320
  197BOLB   C2C 4722  12.830  15.450  21.970
  197BOLB   C3C 4723  13.060  15.280  21.640
  197BOLB   C4C 4724  13.240  15.110  21.370
  197BOLB   C1D 4725  12.240  15.890  22.180
  197BOLB   C2D 4726  12.510  15.880  21.750
  197BOLB   C3D 4727  12.780  15.690  21.400
  197BOLB   C4D 4728  12.940  15.440  21.160
  198BOLB   NC1 4729  21.480  18.050  18.690
  198BOLB   PO1 4730  21.760  18.140  19.030
  198BOLB   GL1 4731  21.980  18.130  19.450
  198BOLB   GL2 4732  22.200  17.960  19.260
  198BOLB   C1A 4733  21.910  17.990  19.910
  198BOLB   C2A 4734  21.740  17.750  20.200
  198BOLB   C3A 4735  21.470  17.950  20.610
  198BOLB   C4A 4736  21.350  17.730  21.000
  198BOLB   C1B 4737  22.380  17.930  19.760
  198BOLB   C2B 4738  22.290  17.810  20.260
  198BOLB   C3B 4739  22.270  18.000  20.570
  198BOLB   C4B 4740  22.530  18.170  20.800
  198BOLB   NC2 4741  21.660  17.020  23.170
  198BOLB   PO2 4742  21.510  16.630  23.070
  198BOLB   GL3 4743  21.420  16.870  22.730
  198BOLB   GL4 4744  21.210  16.700  22.560
  198BOLB   C1C 4745  21.700  17.040  22.400
  198BOLB   C2C 4746  21.850  17.300  22.130
  198BOLB   C3C 4747  21.560  17.550  21.820
  198BOLB   C4C 4748  21.440  17.740  21.440
  198BOLB   C1D 4749  21.190  16.820  22.150
  198BOLB   C2D 4750  21.530  16.990  21.850
  198BOLB   C3D 4751  21.480  17.220  21.400
  198BOLB   C4D 4752  21.570  17.200  20.990
  199BOLB   NC1 4753  11.640  25.880  15.580
  199BOLB   PO1 4754  11.710  26.130  15.280
  199BOLB   GL1 4755  11.340  26.290  15.520
  199BOLB   GL2 4756  11.430  26.600  15.450
  199BOLB   C1A 4757  10.950  26.280  15.720
  199BOLB   C2A 4758  10.570  26.510  15.730
  199BOLB   C3A 4759  10.180  26.610  15.820
  199BOLB   C4A 4760   9.820  26.820  15.860
  199BOLB   C1B 4761  11.000  26.760  15.670
  199BOLB   C2B 4762  10.790  27.050  15.920
  199BOLB   C3B 4763  10.690  27.480  15.780
  199BOLB   C4B 4764  10.440  27.870  15.840
  199BOLB   NC2 4765   8.740  28.680  16.550
  199BOLB   PO2 4766   8.910  29.030  16.560
  199BOLB   GL3 4767   9.150  28.670  16.220
  199BOLB   GL4 4768   9.440  28.870  15.910
  199BOLB   C1C 4769   9.190  28.340  16.200
  199BOLB   C2C 4770   9.370  27.930  16.070
  199BOLB   C3C 4771   9.530  27.630  15.780
  199BOLB   C4C 4772   9.580  27.200  15.750
  199BOLB   C1D 4773   9.620  28.410  15.890
  199BOLB   C2D 4774   9.740  28.180  16.340
  199BOLB   C3D 4775  10.100  27.970  16.390
  199BOLB   C4D 4776  10.520  27.690  16.340
  200BOLB   NC1 4777  16.480  17.400  19.750
  200BOLB   PO1 4778  16.580  16.920  19.350
  200BOLB   GL1 4779  16.470  16.780  19.800
  200BOLB   GL2 4780  16.360  16.640  20.070
  200BOLB   C1A 4781  16.850  16.480  20.080
  200BOLB   C2A 4782  17.130  16.230  20.270
  200BOLB   C3A 4783  17.110  16.150  20.700
  200BOLB   C4A 4784  17.050  15.850  20.970
  200BOLB   C1B 4785  16.550  16.540  20.500
  200BOLB   C2B 4786  16.390  16.240  20.780
  200BOLB   C3B 4787  16.100  16.010  21.180
  200BOLB   C4B 4788  15.940  16.270  21.520
  200BOLB   NC2 4789  15.710  15.030  23.460
  200BOLB   PO2 4790  16.090  15.240  23.500
  200BOLB   GL3 4791  16.270  15.330  23.060
  200BOLB   GL4 4792  16.000  15.010  22.850
  200BOLB   C1C 4793  16.470  15.600  22.830
  200BOLB   C2C 4794  16.670  15.550  22.250
  200BOLB   C3C 4795  16.710  15.720  21.820
  200BOLB   C4C 4796  16.810  15.610  21.260
  200BOLB   C1D 4797  15.930  14.910  22.430
  200BOLB   C2D 4798  16.130  14.570  22.210
  200BOLB   C3D 4799  15.970  14.210  22.010
  200BOLB   C4D 4800  16.230  13.890  21.970
  201BOLB   NC1 4801  14.960  19.590  19.930
  201BOLB   PO1 4802  15.030  19.210  19.880
  201BOLB   GL1 4803  14.850  19.250  20.260
  201BOLB   GL2 4804  14.990  19.390  20.410
  201BOLB   C1A 4805  14.610  19.120  20.630
  201BOLB   C2A 4806  14.690  19.090  21.070
  201BOLB   C3A 4807  14.740  18.910  21.440
  201BOLB   C4A 4808  14.660  18.970  21.830
  201BOLB   C1B 4809  14.680  19.590  20.810
  201BOLB   C2B 4810  14.480  19.720  21.250
  201BOLB   C3B 4811  14.480  19.800  21.650
  201BOLB   C4B 4812  14.310  20.100  21.810
  201BOLB   NC2 4813  13.510  18.330  23.670
  201BOLB   PO2 4814  13.900  18.110  23.720
  201BOLB   GL3 4815  13.980  18.320  23.370
  201BOLB   GL4 4816  14.130  18.110  23.270
  201BOLB   C1C 4817  13.780  18.570  23.050
  201BOLB   C2C 4818  13.800  18.800  22.700
  201BOLB   C3C 4819  13.980  19.120  22.400
  201BOLB   C4C 4820  14.340  19.000  22.090
  201BOLB   C1D 4821  14.010  18.210  22.760
  201BOLB   C2D 4822  14.090  17.960  22.420
  201BOLB   C3D 4823  14.460  18.040  22.170
  201BOLB   C4D 4824  14.560  18.120  21.770
  202BOLB   NC1 4825   8.940  22.660  11.470
  202BOLB   PO1 4826   8.970  22.860  11.130
  202BOLB   GL1 4827   8.570  22.900  10.970
  202BOLB   GL2 4828   8.430  22.810  11.340
  202BOLB   C1A 4829   8.270  22.920  10.670
  202BOLB   C2A 4830   8.080  23.180  10.390
  202BOLB   C3A 4831   7.680  23.310  10.230
  202BOLB   C4A 4832   7.330  23.450  10.000
  202BOLB   C1B 4833   8.020  23.160  11.140
  202BOLB   C2B 4834   7.640  23.210  10.910
  202BOLB   C3B 4835   7.500  23.480  10.610
  202BOLB   C4B 4836   7.540  23.900  10.310
  202BOLB   NC2 4837   5.300  23.590   8.360
  202BOLB   PO2 4838   5.430  23.850   8.650
  202BOLB   GL3 4839   5.620  23.780   8.960
  202BOLB   GL4 4840   5.900  24.020   8.910
  202BOLB   C1C 4841   5.920  23.740   9.350
  202BOLB   C2C 4842   6.210  23.730   9.510
  202BOLB   C3C 4843   6.580  23.480   9.570
  202BOLB   C4C 4844   6.920  23.460   9.840
  202BOLB   C1D 4845   6.160  23.720   8.930
  202BOLB   C2D 4846   6.530  23.590   8.800
  202BOLB   C3D 4847   6.870  23.350   8.630
  202BOLB   C4D 4848   7.140  23.230   8.850
  203BOLB   NC1 4849  17.070  23.380  20.230
  203BOLB   PO1 4850  17.140  23.720  20.100
  203BOLB   GL1 4851  17.030  23.890  20.540
  203BOLB   GL2 4852  17.240  24.230  20.660
  203BOLB   C1A 4853  17.160  23.760  20.990
  203BOLB   C2A 4854  16.760  23.880  21.160
  203BOLB   C3A 4855  16.510  24.090  21.580
  203BOLB   C4A 4856  16.440  24.050  22.070
  203BOLB   C1B 4857  17.080  24.310  21.030
  203BOLB   C2B 4858  16.920  24.270  21.460
  203BOLB   C3B 4859  16.760  24.510  21.700
  203BOLB   C4B 4860  17.000  24.700  21.980
  203BOLB   NC2 4861  16.630  23.930  24.540
  203BOLB   PO2 4862  16.280  23.990  24.380
  203BOLB   GL3 4863  16.410  23.790  24.070
  203BOLB   GL4 4864  16.760  23.840  24.110
  203BOLB   C1C 4865  16.330  23.490  23.780
  203BOLB   C2C 4866  16.380  23.640  23.350
  203BOLB   C3C 4867  16.480  23.680  22.910
  203BOLB   C4C 4868  16.350  23.750  22.410
  203BOLB   C1D 4869  16.780  23.700  23.670
  203BOLB   C2D 4870  17.040  23.670  23.260
  203BOLB   C3D 4871  17.350  23.590  23.410
  203BOLB   C4D 4872  17.770  23.780  23.390
  204BOLB   NC1 4873  13.420  19.020  19.550
  204BOLB   PO1 4874  13.690  19.320  19.600
  204BOLB   GL1 4875  13.560  19.400  19.860
  204BOLB   GL2 4876  13.290  19.750  19.770
  204BOLB   C1A 4877  13.460  19.340  20.320
  204BOLB   C2A 4878  13.240  19.560  20.630
  204BOLB   C3A 4879  13.400  19.720  20.970
  204BOLB   C4A 4880  13.550  19.670  21.320
  204BOLB   C1B 4881  13.080  19.520  20.110
  204BOLB   C2B 4882  12.900  19.240  20.430
  204BOLB   C3B 4883  12.790  18.960  20.820
  204BOLB   C4B 4884  12.450  18.810  21.130
  204BOLB   NC2 4885  13.700  19.730  23.800
  204BOLB   PO2 4886  13.320  19.420  23.730
  204BOLB   GL3 4887  13.420  19.360  23.370
  204BOLB   GL4 4888  13.790  19.360  23.460
  204BOLB   C1C 4889  13.340  19.650  22.990
  204BOLB   C2C 4890  13.250  19.570  22.570
  204BOLB   C3C 4891  13.250  19.360  22.240
  204BOLB   C4C 4892  13.420  19.420  21.700
  204BOLB   C1D 4893  14.200  19.490  23.340
  204BOLB   C2D 4894  14.390  19.570  22.980
  204BOLB   C3D 4895  14.280  19.580  22.630
  204BOLB   C4D 4896  14.220  19.480  22.140
  205BOLB   NC1 4897  22.600  20.370  19.560
  205BOLB   PO1 4898  22.230  20.370  19.930
  205BOLB   GL1 4899  22.580  20.200  20.260
  205BOLB   GL2 4900  22.600  19.850  20.420
  205BOLB   C1A 4901  22.880  20.220  20.580
  205BOLB   C2A 4902  23.210  20.310  20.870
  205BOLB   C3A 4903  23.330  20.680  21.060
  205BOLB   C4A 4904  23.560  21.020  21.050
  205BOLB   C1B 4905  22.950  19.780  20.730
  205BOLB   C2B 4906  23.000  19.520  20.860
  205BOLB   C3B 4907  22.750  19.230  21.120
  205BOLB   C4B 4908  22.710  18.920  21.390
  205BOLB   NC2 4909  25.730  20.920  22.260
  205BOLB   PO2 4910  25.430  21.170  22.460
  205BOLB   GL3 4911  25.240  21.250  22.170
  205BOLB   GL4 4912  25.050  21.650  22.220
  205BOLB   C1C 4913  25.010  20.990  22.000
  205BOLB   C2C 4914  24.600  21.050  21.780
  205BOLB   C3C 4915  24.160  20.890  21.620
  205BOLB   C4C 4916  23.810  21.170  21.380
  205BOLB   C1D 4917  24.990  22.040  22.050
  205BOLB   C2D 4918  25.240  22.360  21.860
  205BOLB   C3D 4919  25.490  22.630  21.630
  205BOLB   C4D 4920  25.510  22.650  21.110
  206BOLB   NC1 4921  18.830  17.580  19.700
  206BOLB   PO1 4922  18.820  18.020  19.750
  206BOLB   GL1 4923  18.620  17.960  20.100
  206BOLB   GL2 4924  18.900  18.080  20.410
  206BOLB   C1A 4925  18.440  18.110  20.600
  206BOLB   C2A 4926  18.420  17.820  20.860
  206BOLB   C3A 4927  18.410  17.610  21.270
  206BOLB   C4A 4928  18.600  17.460  21.580
  206BOLB   C1B 4929  18.880  17.940  20.750
  206BOLB   C2B 4930  18.780  18.080  21.210
  206BOLB   C3B 4931  18.790  18.330  21.520
  206BOLB   C4B 4932  18.940  18.770  21.500
  206BOLB   NC2 4933  18.000  16.080  23.690
  206BOLB   PO2 4934  18.320  16.270  23.590
  206BOLB   GL3 4935  18.180  16.050  23.100
  206BOLB   GL4 4936  18.590  15.920  23.060
  206BOLB   C1C 4937  17.920  16.230  22.810
  206BOLB   C2C 4938  18.050  16.670  22.630
  206BOLB   C3C 4939  18.180  16.970  22.300
  206BOLB   C4C 4940  18.500  17.360  22.110
  206BOLB   C1D 4941  18.550  15.830  22.640
  206BOLB   C2D 4942  18.700  16.090  22.380
  206BOLB   C3D 4943  18.780  16.270  21.970
  206BOLB   C4D 4944  18.760  16.510  21.660
  207BOLB   NC1 4945  11.620  18.280  17.960
  207BOLB   PO1 4946  11.300  18.250  18.250
  207BOLB   GL1 4947  11.120  18.250  18.740
  207BOLB   GL2 4948  10.860  18.070  18.740
  207BOLB   C1A 4949  11.170  18.190  19.210
  207BOLB   C2A 4950  10.970  18.270  19.580
  207BOLB   C3A 4951  10.670  18.150  19.890
  207BOLB   C4A 4952  10.600  17.840  20.230
  207BOLB   C1B 4953  10.570  18.150  19.150
  207BOLB   C2B 4954  10.430  17.990  19.420
  207BOLB   C3B 4955  10.610  17.660  19.780
  207BOLB   C4B 4956  10.300  17.360  20.010
  207BOLB   NC2 4957   8.290  17.750  21.600
  207BOLB   PO2 4958   8.520  18.200  21.610
  207BOLB   GL3 4959   8.810  17.860  21.520
  207BOLB   GL4 4960   8.740  17.670  21.390
  207BOLB   C1C 4961   9.300  17.940  21.440
  207BOLB   C2C 4962   9.600  17.800  21.140
  207BOLB   C3C 4963   9.850  17.700  20.760
  207BOLB   C4C 4964  10.160  17.700  20.360
  207BOLB   C1D 4965   8.800  17.560  20.930
  207BOLB   C2D 4966   8.760  17.250  20.620
  207BOLB   C3D 4967   8.530  17.100  20.330
  207BOLB   C4D 4968   8.470  17.200  19.920
  208BOLB   NC1 4969  16.000  11.690  13.090
  208BOLB   PO1 4970  16.270  11.920  13.360
  208BOLB   GL1 4971  16.290  11.450  13.380
  208BOLB   GL2 4972  16.480  11.340  13.600
  208BOLB   C1A 4973  16.210  11.010  13.440
  208BOLB   C2A 4974  16.330  10.590  13.540
  208BOLB   C3A 4975  16.510  10.330  13.770
  208BOLB   C4A 4976  16.320  10.060  14.060
  208BOLB   C1B 4977  16.700  10.940  13.710
  208BOLB   C2B 4978  16.800  10.630  13.940
  208BOLB   C3B 4979  16.720  10.330  14.290
  208BOLB   C4B 4980  16.750   9.880  14.360
  208BOLB   NC2 4981  16.280   7.660  15.700
  208BOLB   PO2 4982  16.370   8.110  15.590
  208BOLB   GL3 4983  16.560   8.480  15.380
  208BOLB   GL4 4984  16.860   8.600  15.430
  208BOLB   C1C 4985  16.450   8.750  15.000
  208BOLB   C2C 4986  16.590   9.080  14.620
  208BOLB   C3C 4987  16.490   9.360  14.300
  208BOLB   C4C 4988  16.400   9.640  14.060
  208BOLB   C1D 4989  16.710   8.970  15.500
  208BOLB   C2D 4990  16.470   9.280  15.750
  208BOLB   C3D 4991  16.050   9.420  15.590
  208BOLB   C4D 4992  15.640   9.630  15.560
  209BOLB   NC1 4993  18.910  27.230  19.140
  209BOLB   PO1 4994  19.260  26.960  19.200
  209BOLB   GL1 4995  19.250  27.080  19.650
  209BOLB   GL2 4996  19.030  27.370  19.610
  209BOLB   C1A 4997  19.310  27.380  20.030
  209BOLB   C2A 4998  19.100  27.580  20.430
  209BOLB   C3A 4999  18.760  27.960  20.440
  209BOLB   C4A 5000  18.770  28.400  20.740
  209BOLB   C1B 5001  18.890  27.730  19.920
  209BOLB   C2B 5002  18.460  28.000  20.000
  209BOLB   C3B 5003  18.540  28.340  19.870
  209BOLB   C4B 5004  18.770  28.730  19.970
  209BOLB   NC2 5005  18.800  29.400  22.490
  209BOLB   PO2 5006  18.490  29.040  22.640
  209BOLB   GL3 5007  18.500  28.720  22.340
  209BOLB   GL4 5008  18.360  28.790  22.030
  209BOLB   C1C 5009  18.730  28.410  22.120
  209BOLB   C2C 5010  19.070  28.480  21.840
  209BOLB   C3C 5011  19.010  28.280  21.500
  209BOLB   C4C 5012  18.860  28.470  21.190
  209BOLB   C1D 5013  18.180  29.030  21.660
  209BOLB   C2D 5014  18.160  28.900  21.210
  209BOLB   C3D 5015  18.350  28.630  20.790
  209BOLB   C4D 5016  18.550  28.670  20.390
  210BOLB   NC1 5017  22.270  19.440  19.520
  210BOLB   PO1 5018  21.810  19.490  19.570
  210BOLB   GL1 5019  21.940  19.410  19.930
  210BOLB   GL2 5020  21.940  19.730  20.100
  210BOLB   C1A 5021  22.280  19.160  20.100
  210BOLB   C2A 5022  22.650  19.370  20.320
  210BOLB   C3A 5023  22.840  19.150  20.550
  210BOLB   C4A 5024  23.270  19.110  20.730
  210BOLB   C1B 5025  22.220  19.520  20.520
  210BOLB   C2B 5026  22.490  19.570  20.890
  210BOLB   C3B 5027  22.720  19.790  21.320
  210BOLB   C4B 5028  22.450  19.880  21.640
  210BOLB   NC2 5029  24.330  19.650  23.060
  210BOLB   PO2 5030  24.530  19.600  22.640
  210BOLB   GL3 5031  24.570  19.410  22.290
  210BOLB   GL4 5032  24.470  19.640  22.110
  210BOLB   C1C 5033  24.420  19.120  21.960
  210BOLB   C2C 5034  24.160  18.990  21.610
  210BOLB   C3C 5035  23.850  18.970  21.270
  210BOLB   C4C 5036  23.630  18.940  20.930
  210BOLB   C1D 5037  24.680  20.020  21.900
  210BOLB   C2D 5038  25.000  20.420  21.790
  210BOLB   C3D 5039  25.110  20.740  21.630
  210BOLB   C4D 5040  25.130  20.880  21.270
  211BOLB   NC1 5041  21.430  17.620  18.470
  211BOLB   PO1 5042  21.470  17.100  18.540
  211BOLB   GL1 5043  21.910  16.960  18.570
  211BOLB   GL2 5044  22.120  17.130  18.690
  211BOLB   C1A 5045  22.020  16.490  18.920
  211BOLB   C2A 5046  22.140  16.040  19.150
  211BOLB   C3A 5047  22.280  15.670  19.360
  211BOLB   C4A 5048  22.250  15.510  19.770
  211BOLB   C1B 5049  22.070  17.160  19.140
  211BOLB   C2B 5050  22.410  17.040  19.470
  211BOLB   C3B 5051  22.650  16.730  19.650
  211BOLB   C4B 5052  22.570  16.390  20.010
  211BOLB   NC2 5053  22.720  13.710  21.630
  211BOLB   PO2 5054  22.790  13.940  21.340
  211BOLB   GL3 5055  22.690  14.420  21.250
  211BOLB   GL4 5056  22.540  14.600  21.480
  211BOLB   C1C 5057  22.810  14.700  20.870
  211BOLB   C2C 5058  23.030  14.880  20.470
  211BOLB   C3C 5059  22.920  15.170  20.180
  211BOLB   C4C 5060  22.610  15.450  20.010
  211BOLB   C1D 5061  22.050  14.780  21.470
  211BOLB   C2D 5062  21.650  14.760  21.740
  211BOLB   C3D 5063  21.330  15.010  21.810
  211BOLB   C4D 5064  21.200  15.340  21.640
  212BOLB   NC1 5065  20.070  24.040  20.210
  212BOLB   PO1 5066  20.080  24.560  20.240
  212BOLB   GL1 5067  20.120  24.420  20.640
  212BOLB   GL2 5068  19.920  24.170  20.680
  212BOLB   C1A 5069  20.370  24.280  21.090
  212BOLB   C2A 5070  20.570  24.450  21.490
  212BOLB   C3A 5071  20.540  24.700  21.860
  212BOLB   C4A 5072  20.300  24.720  22.170
  212BOLB   C1B 5073  19.830  24.160  21.080
  212BOLB   C2B 5074  20.020  24.270  21.490
  212BOLB   C3B 5075  20.270  24.230  21.840
  212BOLB   C4B 5076  20.330  24.190  22.190
  212BOLB   NC2 5077  20.850  24.260  24.810
  212BOLB   PO2 5078  21.240  24.370  24.530
  212BOLB   GL3 5079  21.060  24.400  24.060
  212BOLB   GL4 5080  21.110  24.600  23.820
  212BOLB   C1C 5081  20.690  24.350  23.850
  212BOLB   C2C 5082  20.430  24.460  23.440
  212BOLB   C3C 5083  20.430  24.510  22.940
  212BOLB   C4C 5084  20.240  24.550  22.570
  212BOLB   C1D 5085  21.110  24.420  23.550
  212BOLB   C2D 5086  20.820  24.230  23.220
  212BOLB   C3D 5087  20.740  24.040  22.840
  212BOLB   C4D 5088  20.460  23.820  22.590
  213BOLB   NC1 5089  25.630  25.320  15.210
  213BOLB   PO1 5090  25.660  25.760  14.990
  213BOLB   GL1 5091  26.010  25.890  15.050
  213BOLB   GL2 5092  26.170  26.180  14.880
  213BOLB   C1A 5093  26.300  25.980  15.360
  213BOLB   C2A 5094  26.580  26.270  15.540
  213BOLB   C3A 5095  26.940  26.630  15.850
  213BOLB   C4A 5096  27.070  27.030  15.970
  213BOLB   C1B 5097  26.610  26.430  15.040
  213BOLB   C2B 5098  26.960  26.610  15.350
  213BOLB   C3B 5099  27.180  26.920  15.530
  213BOLB   C4B 5100  27.550  27.080  15.750
  213BOLB   NC2 5101  29.340  28.170  16.350
  213BOLB   PO2 5102  29.000  28.400  16.400
  213BOLB   GL3 5103  28.570  28.360  16.250
  213BOLB   GL4 5104  28.480  28.600  15.930
  213BOLB   C1C 5105  28.160  28.200  16.380
  213BOLB   C2C 5106  27.920  27.900  16.170
  213BOLB   C3C 5107  27.690  27.550  16.080
  213BOLB   C4C 5108  27.220  27.400  16.060
  213BOLB   C1D 5109  28.120  28.340  15.910
  213BOLB   C2D 5110  28.010  27.990  15.630
  213BOLB   C3D 5111  28.230  27.520  15.710
  213BOLB   C4D 5112  28.180  27.320  16.040
  214BOLB   NC1 5113  13.840  25.620  17.640
  214BOLB   PO1 5114  14.260  25.760  17.810
  214BOLB   GL1 5115  13.970  26.130  17.860
  214BOLB   GL2 5116  13.900  26.210  17.520
  214BOLB   C1A 5117  13.620  26.480  17.930
  214BOLB   C2A 5118  13.330  26.510  18.160
  214BOLB   C3A 5119  13.130  26.740  18.460
  214BOLB   C4A 5120  12.790  27.120  18.550
  214BOLB   C1B 5121  13.540  26.400  17.440
  214BOLB   C2B 5122  13.200  26.580  17.560
  214BOLB   C3B 5123  12.960  27.000  17.590
  214BOLB   C4B 5124  13.020  27.400  17.790
  214BOLB   NC2 5125  11.100  27.960  20.630
  214BOLB   PO2 5126  11.480  27.840  20.430
  214BOLB   GL3 5127  11.800  27.670  20.240
  214BOLB   GL4 5128  12.040  27.520  20.340
  214BOLB   C1C 5129  11.860  27.520  19.770
  214BOLB   C2C 5130  11.880  27.310  19.330
  214BOLB   C3C 5131  12.130  27.030  19.220
  214BOLB   C4C 5132  12.470  26.980  18.850
  214BOLB   C1D 5133  12.180  27.200  20.130
  214BOLB   C2D 5134  12.270  26.910  19.740
  214BOLB   C3D 5135  12.460  26.750  19.370
  214BOLB   C4D 5136  12.910  26.490  19.260
  215BOLB   NC1 5137  16.860  26.010  19.690
  215BOLB   PO1 5138  16.700  26.110  19.320
  215BOLB   GL1 5139  16.690  26.460  19.420
  215BOLB   GL2 5140  16.880  26.690  19.390
  215BOLB   C1A 5141  16.550  26.560  19.820
  215BOLB   C2A 5142  16.360  26.800  20.270
  215BOLB   C3A 5143  16.220  27.090  20.600
  215BOLB   C4A 5144  15.990  27.440  20.800
  215BOLB   C1B 5145  16.770  27.180  19.490
  215BOLB   C2B 5146  16.470  27.480  19.770
  215BOLB   C3B 5147  16.390  27.940  20.020
  215BOLB   C4B 5148  16.150  28.360  20.350
  215BOLB   NC2 5149  16.250  28.790  22.970
  215BOLB   PO2 5150  15.970  28.570  22.660
  215BOLB   GL3 5151  16.030  28.540  22.320
  215BOLB   GL4 5152  15.670  28.660  22.200
  215BOLB   C1C 5153  16.050  28.190  22.040
  215BOLB   C2C 5154  16.230  28.110  21.760
  215BOLB   C3C 5155  16.240  27.910  21.430
  215BOLB   C4C 5156  16.210  27.850  21.040
  215BOLB   C1D 5157  15.520  28.450  21.820
  215BOLB   C2D 5158  15.440  28.570  21.450
  215BOLB   C3D 5159  15.630  28.480  20.970
  215BOLB   C4D 5160  16.080  28.300  20.890
  216BOLB   NC1 5161  16.390  23.210  20.120
  216BOLB   PO1 5162  16.700  22.950  20.050
  216BOLB   GL1 5163  16.530  22.880  20.440
  216BOLB   GL2 5164  16.650  22.950  20.700
  216BOLB   C1A 5165  16.230  22.670  20.740
  216BOLB   C2A 5166  16.040  22.680  21.180
  216BOLB   C3A 5167  16.080  22.800  21.590
  216BOLB   C4A 5168  15.960  22.580  22.070
  216BOLB   C1B 5169  16.500  22.870  21.170
  216BOLB   C2B 5170  16.470  22.600  21.480
  216BOLB   C3B 5171  16.440  22.670  21.890
  216BOLB   C4B 5172  16.230  22.980  22.090
  216BOLB   NC2 5173  14.810  22.400  24.360
  216BOLB   PO2 5174  14.930  22.300  23.950
  216BOLB   GL3 5175  15.080  22.350  23.560
  216BOLB   GL4 5176  14.950  22.050  23.460
  216BOLB   C1C 5177  15.330  22.230  23.250
  216BOLB   C2C 5178  15.600  22.410  23.070
  216BOLB   C3C 5179  15.910  22.630  22.800
  216BOLB   C4C 5180  16.030  22.710  22.500
  216BOLB   C1D 5181  14.660  21.970  23.060
  216BOLB   C2D 5182  14.780  21.860  22.620
  216BOLB   C3D 5183  14.940  21.830  22.270
  216BOLB   C4D 5184  15.290  21.630  22.090
  217BOLB   NC1 5185  13.600  11.940  14.310
  217BOLB   PO1 5186  13.260  12.180  14.230
  217BOLB   GL1 5187  12.960  11.890  14.220
  217BOLB   GL2 5188  12.720  12.090  14.310
  217BOLB   C1A 5189  12.770  11.660  14.600
  217BOLB   C2A 5190  12.320  11.600  14.540
  217BOLB   C3A 5191  11.930  11.530  14.450
  217BOLB   C4A 5192  11.990  11.280  14.220
  217BOLB   C1B 5193  12.530  11.670  14.100
  217BOLB   C2B 5194  12.480  11.300  13.810
  217BOLB   C3B 5195  12.650  11.070  13.480
  217BOLB   C4B 5196  12.500  10.660  13.390
  217BOLB   NC2 5197  10.030   9.360  13.400
  217BOLB   PO2 5198  10.440   9.440  13.580
  217BOLB   GL3 5199  10.850   9.700  13.620
  217BOLB   GL4 5200  11.180   9.590  13.550
  217BOLB   C1C 5201  11.140  10.100  13.530
  217BOLB   C2C 5202  11.480  10.390  13.460
  217BOLB   C3C 5203  11.700  10.730  13.690
  217BOLB   C4C 5204  11.810  11.150  13.850
  217BOLB   C1D 5205  11.490   9.780  13.780
  217BOLB   C2D 5206  11.570  10.280  13.920
  217BOLB   C3D 5207  11.550  10.770  14.140
  217BOLB   C4D 5208  11.810  10.900  14.470
  218BOLB   NC1 5209  15.700  11.760  14.010
  218BOLB   PO1 5210  15.510  11.460  14.350
  218BOLB   GL1 5211  15.770  11.060  14.420
  218BOLB   GL2 5212  16.040  11.150  14.540
  218BOLB   C1A 5213  15.880  10.710  14.450
  218BOLB   C2A 5214  15.720  10.430  14.780
  218BOLB   C3A 5215  15.320  10.210  14.770
  218BOLB   C4A 5216  15.170   9.940  14.460
  218BOLB   C1B 5217  16.150  10.940  14.990
  218BOLB   C2B 5218  16.200  10.440  15.080
  218BOLB   C3B 5219  16.020  10.020  14.910
  218BOLB   C4B 5220  15.910   9.630  15.150
  218BOLB   NC2 5221  15.890   7.700  13.870
  218BOLB   PO2 5222  16.150   7.870  14.280
  218BOLB   GL3 5223  16.290   8.220  14.470
  218BOLB   GL4 5224  16.550   8.290  14.690
  218BOLB   C1C 5225  16.140   8.650  14.540
  218BOLB   C2C 5226  16.070   9.020  14.470
  218BOLB   C3C 5227  15.930   9.400  14.200
  218BOLB   C4C 5228  15.440   9.620  14.240
  218BOLB   C1D 5229  16.570   8.600  14.290
  218BOLB   C2D 5230  16.360   8.390  13.860
  218BOLB   C3D 5231  15.890   8.450  13.810
  218BOLB   C4D 5232  15.660   8.470  13.460
  219BOLB   NC1 5233  21.950  18.590  19.190
  219BOLB   PO1 5234  22.180  18.470  18.880
  219BOLB   GL1 5235  22.550  18.280  18.930
  219BOLB   GL2 5236  22.790  18.070  18.730
  219BOLB   C1A 5237  22.720  18.060  19.260
  219BOLB   C2A 5238  22.850  18.070  19.620
  219BOLB   C3A 5239  22.820  17.800  19.970
  219BOLB   C4A 5240  22.980  17.440  20.130
  219BOLB   C1B 5241  23.130  17.880  19.080
  219BOLB   C2B 5242  23.220  17.470  19.230
  219BOLB   C3B 5243  23.390  17.050  19.170
  219BOLB   C4B 5244  23.410  16.750  18.930
  219BOLB   NC2 5245  23.780  16.100  21.630
  219BOLB   PO2 5246  23.380  16.200  21.900
  219BOLB   GL3 5247  23.250  16.140  21.490
  219BOLB   GL4 5248  22.950  16.310  21.570
  219BOLB   C1C 5249  23.170  16.280  21.130
  219BOLB   C2C 5250  23.290  16.560  20.770
  219BOLB   C3C 5251  23.200  16.900  20.670
  219BOLB   C4C 5252  23.090  17.120  20.220
  219BOLB   C1D 5253  22.660  16.310  21.250
  219BOLB   C2D 5254  22.340  16.440  21.020
  219BOLB   C3D 5255  21.990  16.580  20.870
  219BOLB   C4D 5256  21.680  16.830  20.600
  220BOLB   NC1 5257  13.240  15.180  18.800
  220BOLB   PO1 5258  12.760  15.290  18.850
  220BOLB   GL1 5259  12.880  15.060  19.170
  220BOLB   GL2 5260  13.130  14.840  19.110
  220BOLB   C1A 5261  12.690  14.790  19.410
  220BOLB   C2A 5262  12.650  14.380  19.670
  220BOLB   C3A 5263  12.620  14.270  20.050
  220BOLB   C4A 5264  12.430  14.040  20.280
  220BOLB   C1B 5265  13.330  14.440  19.240
  220BOLB   C2B 5266  13.430  14.200  19.570
  220BOLB   C3B 5267  13.490  13.710  19.670
  220BOLB   C4B 5268  13.320  13.620  20.030
  220BOLB   NC2 5269  12.090  13.760  22.780
  220BOLB   PO2 5270  12.540  13.820  22.540
  220BOLB   GL3 5271  12.710  14.100  22.230
  220BOLB   GL4 5272  12.830  14.280  22.400
  220BOLB   C1C 5273  12.670  14.110  21.850
  220BOLB   C2C 5274  12.590  13.760  21.500
  220BOLB   C3C 5275  12.370  13.700  21.140
  220BOLB   C4C 5276  12.390  13.830  20.700
  220BOLB   C1D 5277  13.160  14.210  22.070
  220BOLB   C2D 5278  13.430  14.590  21.910
  220BOLB   C3D 5279  13.580  14.760  21.540
  220BOLB   C4D 5280  13.640  14.800  21.180
  221BOLB   NC1 5281  13.230  12.670  15.790
  221BOLB   PO1 5282  13.480  12.350  15.490
  221BOLB   GL1 5283  13.380  12.170  15.820
  221BOLB   GL2 5284  13.030  12.140  15.990
  221BOLB   C1A 5285  13.390  11.700  15.870
  221BOLB   C2A 5286  13.300  11.330  15.850
  221BOLB   C3A 5287  13.410  11.100  15.590
  221BOLB   C4A 5288  13.540  10.680  15.640
  221BOLB   C1B 5289  13.100  11.910  16.280
  221BOLB   C2B 5290  13.090  11.520  16.460
  221BOLB   C3B 5291  12.910  11.060  16.420
  221BOLB   C4B 5292  12.930  10.600  16.410
  221BOLB   NC2 5293  13.810   8.100  15.650
  221BOLB   PO2 5294  13.730   8.360  15.910
  221BOLB   GL3 5295  13.710   8.760  16.010
  221BOLB   GL4 5296  13.690   8.870  16.370
  221BOLB   C1C 5297  13.920   9.120  15.870
  221BOLB   C2C 5298  13.980   9.520  15.910
  221BOLB   C3C 5299  13.870   9.900  15.780
  221BOLB   C4C 5300  13.820  10.350  15.590
  221BOLB   C1D 5301  13.590   9.200  16.190
  221BOLB   C2D 5302  13.540   9.490  15.820
  221BOLB   C3D 5303  13.650   9.430  15.380
  221BOLB   C4D 5304  13.780   9.500  15.030
  222BOLB   NC1 5305  23.380  18.300  17.270
  222BOLB   PO1 5306  23.110  18.410  17.730
  222BOLB   GL1 5307  23.250  18.170  18.070
  222BOLB   GL2 5308  23.400  17.880  17.970
  222BOLB   C1A 5309  23.320  17.970  18.450
  222BOLB   C2A 5310  23.460  17.750  18.750
  222BOLB   C3A 5311  23.720  17.450  19.140
  222BOLB   C4A 5312  23.940  17.220  19.340
  222BOLB   C1B 5313  23.890  17.880  18.000
  222BOLB   C2B 5314  24.270  17.760  18.130
  222BOLB   C3B 5315  24.460  17.560  18.340
  222BOLB   C4B 5316  24.810  17.340  18.550
  222BOLB   NC2 5317  24.600  16.100  22.150
  222BOLB   PO2 5318  24.780  16.320  21.870
  222BOLB   GL3 5319  24.540  16.510  21.410
  222BOLB   GL4 5320  24.090  16.380  21.320
  222BOLB   C1C 5321  24.400  16.520  20.940
  222BOLB   C2C 5322  24.150  16.510  20.510
  222BOLB   C3C 5323  23.960  16.730  20.100
  222BOLB   C4C 5324  24.030  16.970  19.700
  222BOLB   C1D 5325  23.870  16.500  20.870
  222BOLB   C2D 5326  23.680  16.380  20.380
  222BOLB   C3D 5327  23.310  16.540  20.270
  222BOLB   C4D 5328  23.070  16.600  19.970
  223BOLB   NC1 5329  20.890  19.670  19.600
  223BOLB   PO1 5330  20.580  19.470  19.910
  223BOLB   GL1 5331  20.630  19.520  20.330
  223BOLB   GL2 5332  20.660  19.760  20.490
  223BOLB   C1A 5333  20.830  19.160  20.530
  223BOLB   C2A 5334  20.710  18.860  20.820
  223BOLB   C3A 5335  20.530  18.680  21.230
  223BOLB   C4A 5336  20.360  18.630  21.720
  223BOLB   C1B 5337  21.020  19.540  20.740
  223BOLB   C2B 5338  21.230  19.370  21.170
  223BOLB   C3B 5339  21.210  19.500  21.500
  223BOLB   C4B 5340  21.260  19.600  21.930
  223BOLB   NC2 5341  20.270  17.870  24.010
  223BOLB   PO2 5342  19.980  18.140  23.890
  223BOLB   GL3 5343  20.230  18.220  23.520
  223BOLB   GL4 5344  20.530  18.390  23.530
  223BOLB   C1C 5345  20.080  18.290  23.140
  223BOLB   C2C 5346  20.240  18.350  22.840
  223BOLB   C3C 5347  20.160  18.140  22.380
  223BOLB   C4C 5348  20.210  18.280  22.010
  223BOLB   C1D 5349  20.510  18.560  23.230
  223BOLB   C2D 5350  20.390  18.860  22.880
  223BOLB   C3D 5351  20.020  18.910  22.740
  223BOLB   C4D 5352  19.790  19.180  22.430
  224BOLB   NC1 5353  19.370  19.080  20.140
  224BOLB   PO1 5354  19.030  19.410  20.120
  224BOLB   GL1 5355  19.050  19.650  20.530
  224BOLB   GL2 5356  18.720  19.760  20.680
  224BOLB   C1A 5357  19.160  19.460  20.890
  224BOLB   C2A 5358  19.260  19.680  21.240
  224BOLB   C3A 5359  19.190  19.770  21.620
  224BOLB   C4A 5360  18.950  19.710  21.910
  224BOLB   C1B 5361  18.550  19.560  20.990
  224BOLB   C2B 5362  18.790  19.270  21.240
  224BOLB   C3B 5363  18.980  19.240  21.570
  224BOLB   C4B 5364  19.180  19.090  21.950
  224BOLB   NC2 5365  19.540  18.870  24.590
  224BOLB   PO2 5366  19.670  19.150  24.230
  224BOLB   GL3 5367  19.620  19.160  23.820
  224BOLB   GL4 5368  19.510  19.470  23.610
  224BOLB   C1C 5369  19.520  19.030  23.360
  224BOLB   C2C 5370  19.510  19.150  22.830
  224BOLB   C3C 5371  19.330  19.270  22.430
  224BOLB   C4C 5372  19.000  19.470  22.250
  224BOLB   C1D 5373  19.350  19.440  23.260
  224BOLB   C2D 5374  19.140  19.530  22.900
  224BOLB   C3D 5375  19.230  19.790  22.690
  224BOLB   C4D 5376  19.420  20.120  22.500
  225BOLB   NC1 5377   9.330  20.370  16.810
  225BOLB   PO1 5378   9.250  20.000  16.650
  225BOLB   GL1 5379   8.860  20.130  16.890
  225BOLB   GL2 5380   8.960  20.280  17.140
  225BOLB   C1A 5381   8.540  19.880  17.200
  225BOLB   C2A 5382   8.360  19.570  17.170
  225BOLB   C3A 5383   8.300  19.280  17.450
  225BOLB   C4A 5384   7.950  19.030  17.480
  225BOLB   C1B 5385   8.660  20.370  17.550
  225BOLB   C2B 5386   8.550  20.240  17.990
  225BOLB   C3B 5387   8.180  20.290  18.290
  225BOLB   C4B 5388   7.980  20.200  18.730
  225BOLB   NC2 5389   5.420  17.900  17.400
  225BOLB   PO2 5390   5.590  18.180  17.700
  225BOLB   GL3 5391   6.080  18.240  17.600
  225BOLB   GL4 5392   6.250  18.110  17.850
  225BOLB   C1C 5393   6.310  18.590  17.690
  225BOLB   C2C 5394   6.610  18.890  17.440
  225BOLB   C3C 5395   7.070  18.870  17.290
  225BOLB   C4C 5396   7.460  18.760  17.470
  225BOLB   C1D 5397   6.610  18.100  17.950
  225BOLB   C2D 5398   6.890  17.980  17.980
  225BOLB   C3D 5399   7.300  18.070  17.840
  225BOLB   C4D 5400   7.700  17.980  17.720
  226BOLB   NC1 5401  19.540  23.510  20.510
  226BOLB   PO1 5402  19.330  23.390  20.780
  226BOLB   GL1 5403  19.300  23.290  21.130
  226BOLB   GL2 5404  19.360  23.020  21.190
  226BOLB   C1A 5405  19.410  23.360  21.560
  226BOLB   C2A 5406  19.640  23.650  21.860
  226BOLB   C3A 5407  19.580  23.770  22.240
  226BOLB   C4A 5408  19.590  23.770  22.610
  226BOLB   C1B 5409  19.520  22.760  21.620
  226BOLB   C2B 5410  19.650  22.550  21.940
  226BOLB   C3B 5411  19.670  22.550  22.370
  226BOLB   C4B 5412  19.510  22.460  22.740
  226BOLB   NC2 5413  19.180  23.070  25.160
  226BOLB   PO2 5414  19.420  23.460  25.070
  226BOLB   GL3 5415  19.450  23.510  24.660
  226BOLB   GL4 5416  19.510  23.270  24.410
  226BOLB   C1C 5417  19.590  23.800  24.320
  226BOLB   C2C 5418  19.370  23.990  23.930
  226BOLB   C3C 5419  19.570  24.060  23.510
  226BOLB   C4C 5420  19.560  23.920  23.110
  226BOLB   C1D 5421  19.570  23.010  24.010
  226BOLB   C2D 5422  19.720  22.930  23.610
  226BOLB   C3D 5423  19.890  23.220  23.150
  226BOLB   C4D 5424  19.930  23.660  23.000
  227BOLB   NC1 5425   9.160  20.110  16.180
  227BOLB   PO1 5426   9.340  20.460  16.310
  227BOLB   GL1 5427   8.840  20.440  16.480
  227BOLB   GL2 5428   8.750  20.610  16.260
  227BOLB   C1A 5429   8.490  20.450  16.680
  227BOLB   C2A 5430   8.220  20.250  17.030
  227BOLB   C3A 5431   8.130  20.110  17.500
  227BOLB   C4A 5432   7.970  20.120  17.860
  227BOLB   C1B 5433   8.320  20.590  16.170
  227BOLB   C2B 5434   7.820  20.420  16.100
  227BOLB   C3B 5435   7.440  20.430  16.080
  227BOLB   C4B 5436   7.130  20.240  15.770
  227BOLB   NC2 5437   6.480  21.910  19.460
  227BOLB   PO2 5438   6.460  21.490  19.400
  227BOLB   GL3 5439   6.890  21.270  19.240
  227BOLB   GL4 5440   7.180  21.130  19.430
  227BOLB   C1C 5441   6.980  20.870  19.010
  227BOLB   C2C 5442   7.130  20.530  18.740
  227BOLB   C3C 5443   7.410  20.400  18.490
  227BOLB   C4C 5444   7.720  20.200  18.250
  227BOLB   C1D 5445   7.460  21.090  19.080
  227BOLB   C2D 5446   7.830  21.150  18.750
  227BOLB   C3D 5447   8.290  21.090  18.530
  227BOLB   C4D 5448   8.610  21.300  18.300
  228BOLB   NC1 5449   9.630  24.200  13.210
  228BOLB   PO1 5450   9.720  23.880  13.570
  228BOLB   GL1 5451   9.340  23.950  13.880
  228BOLB   GL2 5452   9.030  23.790  13.750
  228BOLB   C1A 5453   9.040  24.230  13.950
  228BOLB   C2A 5454   8.670  24.450  13.850
  228BOLB   C3A 5455   8.400  24.670  14.130
  228BOLB   C4A 5456   8.010  24.860  14.240
  228BOLB   C1B 5457   8.690  23.950  13.880
  228BOLB   C2B 5458   8.240  24.000  13.770
  228BOLB   C3B 5459   8.060  24.360  13.820
  228BOLB   C4B 5460   7.820  24.460  14.050
  228BOLB   NC2 5461   6.130  26.610  14.470
  228BOLB   PO2 5462   6.450  26.850  14.220
  228BOLB   GL3 5463   6.800  26.600  14.180
  228BOLB   GL4 5464   6.960  26.790  14.120
  228BOLB   C1C 5465   7.030  26.380  13.840
  228BOLB   C2C 5466   7.350  26.010  13.700
  228BOLB   C3C 5467   7.530  25.570  13.830
  228BOLB   C4C 5468   7.860  25.250  14.110
  228BOLB   C1D 5469   7.400  26.660  14.280
  228BOLB   C2D 5470   7.810  26.370  14.240
  228BOLB   C3D 5471   8.250  26.310  14.280
  228BOLB   C4D 5472   8.730  26.550  14.300
  229BOLB   NC1 5473  10.720  23.600  16.230
  229BOLB   PO1 5474  10.760  23.870  15.930
  229BOLB   GL1 5475  10.330  24.000  16.030
  229BOLB   GL2 5476  10.040  23.940  15.870
  229BOLB   C1A 5477  10.250  23.990  16.440
  229BOLB   C2A 5478  10.110  23.920  16.770
  229BOLB   C3A 5479   9.770  23.620  17.020
  229BOLB   C4A 5480   9.400  23.690  17.250
  229BOLB   C1B 5481   9.510  23.870  15.920
  229BOLB   C2B 5482   9.220  24.040  16.110
  229BOLB   C3B 5483   8.850  23.960  16.260
  229BOLB   C4B 5484   8.800  23.850  16.640
  229BOLB   NC2 5485   7.670  23.520  18.940
  229BOLB   PO2 5486   7.750  23.950  18.980
  229BOLB   GL3 5487   8.020  23.780  18.740
  229BOLB   GL4 5488   7.970  23.510  18.440
  229BOLB   C1C 5489   8.490  23.910  18.570
  229BOLB   C2C 5490   8.750  24.000  18.260
  229BOLB   C3C 5491   9.170  23.980  18.060
  229BOLB   C4C 5492   9.290  23.830  17.650
  229BOLB   C1D 5493   8.240  23.800  18.130
  229BOLB   C2D 5494   8.390  23.800  17.680
  229BOLB   C3D 5495   8.560  23.830  17.220
  229BOLB   C4D 5496   8.470  23.550  16.800
  230BOLB   NC1 5497  24.580  24.340  18.210
  230BOLB   PO1 5498  24.450  24.690  18.360
  230BOLB   GL1 5499  24.680  24.650  18.620
  230BOLB   GL2 5500  24.750  24.970  18.610
  230BOLB   C1A 5501  25.180  24.690  18.550
  230BOLB   C2A 5502  25.460  24.810  18.710
  230BOLB   C3A 5503  25.870  24.750  18.810
  230BOLB   C4A 5504  26.160  24.830  18.980
  230BOLB   C1B 5505  25.010  24.960  18.940
  230BOLB   C2B 5506  25.330  24.900  19.250
  230BOLB   C3B 5507  25.760  24.860  19.330
  230BOLB   C4B 5508  26.090  25.130  19.530
  230BOLB   NC2 5509  28.040  26.150  19.930
  230BOLB   PO2 5510  27.920  26.520  19.710
  230BOLB   GL3 5511  27.620  26.250  19.610
  230BOLB   GL4 5512  27.300  26.330  19.640
  230BOLB   C1C 5513  27.240  25.880  19.510
  230BOLB   C2C 5514  26.990  25.750  19.210
  230BOLB   C3C 5515  26.710  25.440  19.170
  230BOLB   C4C 5516  26.440  25.210  19.030
  230BOLB   C1D 5517  27.300  26.660  19.340
  230BOLB   C2D 5518  27.070  27.030  19.280
  230BOLB   C3D 5519  26.950  27.430  19.220
  230BOLB   C4D 5520  27.000  27.870  19.130
  231BOLB   NC1 5521  22.260  17.280  17.410
  231BOLB   PO1 5522  22.560  17.090  17.460
  231BOLB   GL1 5523  22.840  16.910  17.720
  231BOLB   GL2 5524  22.800  16.600  17.510
  231BOLB   C1A 5525  23.230  16.870  17.920
  231BOLB   C2A 5526  23.330  16.550  18.130
  231BOLB   C3A 5527  23.370  16.370  18.480
  231BOLB   C4A 5528  23.740  16.450  18.730
  231BOLB   C1B 5529  23.040  16.340  17.790
  231BOLB   C2B 5530  23.330  16.020  18.030
  231BOLB   C3B 5531  23.630  15.980  18.340
  231BOLB   C4B 5532  23.960  16.180  18.320
  231BOLB   NC2 5533  24.890  15.070  20.880
  231BOLB   PO2 5534  24.620  15.030  20.550
  231BOLB   GL3 5535  24.460  15.340  20.320
  231BOLB   GL4 5536  24.290  15.540  20.510
  231BOLB   C1C 5537  24.370  15.440  20.020
  231BOLB   C2C 5538  24.260  15.460  19.550
  231BOLB   C3C 5539  24.010  15.730  19.220
  231BOLB   C4C 5540  23.980  16.100  19.000
  231BOLB   C1D 5541  24.010  15.770  20.140
  231BOLB   C2D 5542  23.880  15.840  19.730
  231BOLB   C3D 5543  23.700  16.010  19.430
  231BOLB   C4D 5544  23.430  16.290  19.240
  232BOLB   NC1 5545  18.910  16.100  18.970
  232BOLB   PO1 5546  19.060  15.790  19.130
  232BOLB   GL1 5547  18.960  15.590  19.380
  232BOLB   GL2 5548  18.620  15.430  19.390
  232BOLB   C1A 5549  19.050  15.290  19.840
  232BOLB   C2A 5550  19.120  15.040  20.210
  232BOLB   C3A 5551  19.010  15.020  20.640
  232BOLB   C4A 5552  18.710  15.070  20.880
  232BOLB   C1B 5553  18.640  15.570  19.810
  232BOLB   C2B 5554  18.910  15.720  20.140
  232BOLB   C3B 5555  18.780  15.940  20.550
  232BOLB   C4B 5556  18.980  16.290  20.720
  232BOLB   NC2 5557  19.090  15.070  23.470
  232BOLB   PO2 5558  19.050  14.710  23.180
  232BOLB   GL3 5559  19.010  15.030  22.830
  232BOLB   GL4 5560  18.880  15.350  22.930
  232BOLB   C1C 5561  18.720  14.940  22.530
  232BOLB   C2C 5562  18.630  15.010  22.100
  232BOLB   C3C 5563  18.700  14.850  21.700
  232BOLB   C4C 5564  18.710  14.850  21.280
  232BOLB   C1D 5565  18.910  15.500  22.460
  232BOLB   C2D 5566  19.000  15.800  22.070
  232BOLB   C3D 5567  18.950  15.840  21.690
  232BOLB   C4D 5568  18.850  16.090  21.330
  233BOLB   NC1 5569   7.410  23.760  19.760
  233BOLB   PO1 5570   7.720  23.580  19.400
  233BOLB   GL1 5571   8.120  23.650  19.310
  233BOLB   GL2 5572   8.180  23.420  19.080
  233BOLB   C1A 5573   8.520  23.810  19.110
  233BOLB   C2A 5574   8.810  23.690  18.890
  233BOLB   C3A 5575   9.000  23.580  18.580
  233BOLB   C4A 5576   9.250  23.510  18.350
  233BOLB   C1B 5577   8.430  23.450  18.660
  233BOLB   C2B 5578   8.510  23.420  18.270
  233BOLB   C3B 5579   8.780  23.520  17.940
  233BOLB   C4B 5580   8.860  23.680  17.580
  233BOLB   NC2 5581   9.780  21.800  16.610
  233BOLB   PO2 5582  10.190  21.770  16.940
  233BOLB   GL3 5583  10.000  21.990  17.220
  233BOLB   GL4 5584   9.730  21.820  17.360
  233BOLB   C1C 5585   9.880  22.340  17.560
  233BOLB   C2C 5586   9.740  22.770  17.570
  233BOLB   C3C 5587   9.350  22.990  17.670
  233BOLB   C4C 5588   9.270  23.400  17.930
  233BOLB   C1D 5589   9.440  22.060  17.520
  233BOLB   C2D 5590   9.340  22.410  17.830
  233BOLB   C3D 5591   9.100  22.590  18.090
  233BOLB   C4D 5592   8.970  22.990  18.010
  234BOLB   NC1 5593  22.880  27.210  17.910
  234BOLB   PO1 5594  23.180  27.010  18.200
  234BOLB   GL1 5595  23.450  27.100  18.560
  234BOLB   GL2 5596  23.690  27.270  18.430
  234BOLB   C1A 5597  23.550  27.300  18.940
  234BOLB   C2A 5598  23.500  27.160  19.310
  234BOLB   C3A 5599  23.740  27.130  19.750
  234BOLB   C4A 5600  23.620  26.950  20.160
  234BOLB   C1B 5601  23.480  27.750  18.570
  234BOLB   C2B 5602  23.270  28.090  18.670
  234BOLB   C3B 5603  23.370  28.460  18.570
  234BOLB   C4B 5604  23.270  28.810  18.330
  234BOLB   NC2 5605  25.200  27.770  22.190
  234BOLB   PO2 5606  24.730  27.890  22.040
  234BOLB   GL3 5607  24.290  27.770  21.820
  234BOLB   GL4 5608  23.990  27.780  21.880
  234BOLB   C1C 5609  24.290  27.620  21.330
  234BOLB   C2C 5610  24.260  27.430  20.920
  234BOLB   C3C 5611  24.010  27.280  20.710
  234BOLB   C4C 5612  23.650  27.170  20.480
  234BOLB   C1D 5613  23.620  27.690  21.580
  234BOLB   C2D 5614  23.310  27.740  21.380
  234BOLB   C3D 5615  23.040  27.790  21.030
  234BOLB   C4D 5616  23.050  28.040  20.690
  235BOLB   NC1 5617  16.490  16.420  19.070
  235BOLB   PO1 5618  16.270  16.020  19.080
  235BOLB   GL1 5619  16.350  15.730  19.470
  235BOLB   GL2 5620  16.030  15.640  19.620
  235BOLB   C1A 5621  16.630  15.510  19.710
  235BOLB   C2A 5622  16.880  15.350  20.030
  235BOLB   C3A 5623  17.160  15.280  20.440
  235BOLB   C4A 5624  17.100  15.320  20.890
  235BOLB   C1B 5625  15.950  15.470  19.970
  235BOLB   C2B 5626  15.710  15.470  20.260
  235BOLB   C3B 5627  15.760  15.480  20.730
  235BOLB   C4B 5628  15.850  15.530  21.160
  235BOLB   NC2 5629  18.220  15.000  22.970
  235BOLB   PO2 5630  18.090  14.560  23.020
  235BOLB   GL3 5631  17.970  14.740  22.620
  235BOLB   GL4 5632  18.220  14.790  22.480
  235BOLB   C1C 5633  17.690  14.710  22.290
  235BOLB   C2C 5634  17.580  14.950  22.090
  235BOLB   C3C 5635  17.460  15.180  21.710
  235BOLB   C4C 5636  17.230  15.360  21.240
  235BOLB   C1D 5637  18.100  15.040  22.200
  235BOLB   C2D 5638  17.940  15.190  21.850
  235BOLB   C3D 5639  17.750  15.480  21.480
  235BOLB   C4D 5640  17.900  15.650  21.190
  236BOLB   NC1 5641  10.330  22.110  16.530
  236BOLB   PO1 5642   9.940  22.220  16.780
  236BOLB   GL1 5643   9.580  22.400  17.050
  236BOLB   GL2 5644   9.450  22.010  16.980
  236BOLB   C1A 5645   9.280  22.610  17.330
  236BOLB   C2A 5646   8.940  22.780  17.470
  236BOLB   C3A 5647   8.750  23.080  17.610
  236BOLB   C4A 5648   8.320  23.340  17.780
  236BOLB   C1B 5649   9.120  22.070  17.040
  236BOLB   C2B 5650   8.750  21.920  17.220
  236BOLB   C3B 5651   8.360  21.720  17.360
  236BOLB   C4B 5652   7.960  21.800  17.520
  236BOLB   NC2 5653   6.840  23.000  19.120
  236BOLB   PO2 5654   6.540  22.930  18.800
  236BOLB   GL3 5655   6.940  22.670  18.660
  236BOLB   GL4 5656   7.240  22.640  18.830
  236BOLB   C1C 5657   7.150  22.810  18.210
  236BOLB   C2C 5658   7.260  23.110  17.970
  236BOLB   C3C 5659   7.580  23.430  18.150
  236BOLB   C4C 5660   7.880  23.480  17.920
  236BOLB   C1D 5661   7.370  22.410  18.500
  236BOLB   C2D 5662   7.640  22.450  18.140
  236BOLB   C3D 5663   7.870  22.290  17.670
  236BOLB   C4D 5664   8.070  22.330  17.230
  237BOLB   NC1 5665  22.970  21.780  19.650
  237BOLB   PO1 5666  22.800  22.120  19.540
  237BOLB   GL1 5667  23.200  22.270  19.790
  237BOLB   GL2 5668  23.400  21.960  19.830
  237BOLB   C1A 5669  23.630  22.210  20.210
  237BOLB   C2A 5670  23.800  22.170  20.660
  237BOLB   C3A 5671  24.030  22.070  21.060
  237BOLB   C4A 5672  24.030  21.910  21.540
  237BOLB   C1B 5673  23.730  21.690  19.830
  237BOLB   C2B 5674  23.790  21.350  19.980
  237BOLB   C3B 5675  24.150  21.440  20.280
  237BOLB   C4B 5676  24.570  21.430  20.600
  237BOLB   NC2 5677  24.240  20.270  23.590
  237BOLB   PO2 5678  24.250  20.160  23.220
  237BOLB   GL3 5679  24.250  20.280  22.810
  237BOLB   GL4 5680  24.180  20.030  22.650
  237BOLB   C1C 5681  24.210  20.740  22.540
  237BOLB   C2C 5682  24.070  20.820  22.150
  237BOLB   C3C 5683  24.170  21.250  21.990
  237BOLB   C4C 5684  24.050  21.660  21.810
  237BOLB   C1D 5685  24.320  20.230  22.330
  237BOLB   C2D 5686  24.060  20.380  21.920
  237BOLB   C3D 5687  23.770  20.390  21.630
  237BOLB   C4D 5688  23.610  20.260  21.200
  238BOLB   NC1 5689  19.600  17.470  19.100
  238BOLB   PO1 5690  19.440  17.000  19.420
  238BOLB   GL1 5691  19.600  16.980  19.810
  238BOLB   GL2 5692  19.890  16.960  19.910
  238BOLB   C1A 5693  19.690  16.810  20.260
  238BOLB   C2A 5694  19.830  16.690  20.650
  238BOLB   C3A 5695  20.160  16.850  20.940
  238BOLB   C4A 5696  20.380  17.060  21.330
  238BOLB   C1B 5697  20.060  16.500  20.020
  238BOLB   C2B 5698  20.170  16.250  20.320
  238BOLB   C3B 5699  20.360  15.930  20.570
  238BOLB   C4B 5700  20.200  15.840  20.910
  238BOLB   NC2 5701  21.120  17.290  23.620
  238BOLB   PO2 5702  21.440  17.390  23.550
  238BOLB   GL3 5703  21.480  17.490  23.100
  238BOLB   GL4 5704  21.190  17.510  23.050
  238BOLB   C1C 5705  21.480  17.450  22.580
  238BOLB   C2C 5706  21.310  17.330  22.220
  238BOLB   C3C 5707  21.110  17.300  21.750
  238BOLB   C4C 5708  20.800  17.260  21.430
  238BOLB   C1D 5709  21.250  17.840  22.830
  238BOLB   C2D 5710  21.120  18.170  22.460
  238BOLB   C3D 5711  21.040  18.550  22.260
  238BOLB   C4D 5712  20.830  18.740  21.970
  239BOLB   NC1 5713  12.130  26.630  14.040
  239BOLB   PO1 5714  11.850  26.520  14.420
  239BOLB   GL1 5715  11.700  26.600  14.730
  239BOLB   GL2 5716  11.490  26.470  14.920
  239BOLB   C1A 5717  11.570  26.990  15.100
  239BOLB   C2A 5718  11.560  27.260  15.340
  239BOLB   C3A 5719  11.690  27.690  15.540
  239BOLB   C4A 5720  11.540  28.040  15.770
  239BOLB   C1B 5721  11.170  26.800  14.760
  239BOLB   C2B 5722  11.150  27.230  14.920
  239BOLB   C3B 5723  11.060  27.670  14.730
  239BOLB   C4B 5724  10.800  27.870  14.910
  239BOLB   NC2 5725  10.710  29.590  17.520
  239BOLB   PO2 5726  10.370  29.230  17.530
  239BOLB   GL3 5727  10.660  29.130  17.270
  239BOLB   GL4 5728  10.870  29.110  17.460
  239BOLB   C1C 5729  10.970  29.100  16.800
  239BOLB   C2C 5730  11.080  28.770  16.610
  239BOLB   C3C 5731  11.110  28.380  16.400
  239BOLB   C4C 5732  11.380  28.250  16.070
  239BOLB   C1D 5733  11.100  28.760  17.200
  239BOLB   C2D 5734  11.510  28.750  16.960
  239BOLB   C3D 5735  11.700  28.530  17.270
  239BOLB   C4D 5736  11.700  28.140  17.650
  240BOLB   NC1 5737  20.030  17.590   6.950
  240BOLB   PO1 5738  20.420  17.480   6.750
  240BOLB   GL1 5739  20.800  17.400   6.520
  240BOLB   GL2 5740  21.030  17.640   6.440
  240BOLB   C1A 5741  21.050  17.130   6.240
  240BOLB   C2A 5742  21.440  16.990   6.120
  240BOLB   C3A 5743  21.880  16.930   6.120
  240BOLB   C4A 5744  22.320  16.830   5.880
  240BOLB   C1B 5745  21.350  17.530   6.140
  240BOLB   C2B 5746  21.630  17.270   5.740
  240BOLB   C3B 5747  21.890  16.980   5.600
  240BOLB   C4B 5748  22.230  16.800   5.370
  240BOLB   NC2 5749  25.170  16.690   5.240
  240BOLB   PO2 5750  24.750  16.570   5.070
  240BOLB   GL3 5751  24.400  16.470   5.300
  240BOLB   GL4 5752  24.280  16.260   5.330
  240BOLB   C1C 5753  23.990  16.540   5.580
  240BOLB   C2C 5754  23.620  16.640   5.720
  240BOLB   C3C 5755  23.120  16.720   5.730
  240BOLB   C4C 5756  22.750  16.830   5.940
  240BOLB   C1D 5757  24.050  16.340   4.970
  240BOLB   C2D 5758  23.620  16.270   4.790
  240BOLB   C3D 5759  23.300  15.980   4.780
  240BOLB   C4D 5760  23.030  16.120   4.910
  241BOLB   NC1 5761  17.930  17.140  19.430
  241BOLB   PO1 5762  18.400  17.260  19.500
  241BOLB   GL1 5763  18.490  17.010  19.820
  241BOLB   GL2 5764  18.220  17.010  20.000
  241BOLB   C1A 5765  18.520  16.570  20.090
  241BOLB   C2A 5766  18.450  16.300  20.480
  241BOLB   C3A 5767  18.460  16.140  20.860
  241BOLB   C4A 5768  18.410  15.760  21.180
  241BOLB   C1B 5769  18.520  16.980  20.370
  241BOLB   C2B 5770  18.940  16.950  20.540
  241BOLB   C3B 5771  19.090  16.810  20.940
  241BOLB   C4B 5772  18.940  16.530  21.210
  241BOLB   NC2 5773  18.440  14.180  23.010
  241BOLB   PO2 5774  18.670  14.120  22.680
  241BOLB   GL3 5775  18.280  14.350  22.550
  241BOLB   GL4 5776  18.240  14.030  22.390
  241BOLB   C1C 5777  18.080  14.460  22.170
  241BOLB   C2C 5778  18.240  14.730  21.840
  241BOLB   C3C 5779  18.330  15.150  21.540
  241BOLB   C4C 5780  18.270  15.490  21.540
  241BOLB   C1D 5781  18.020  13.990  22.060
  241BOLB   C2D 5782  18.050  14.330  21.690
  241BOLB   C3D 5783  18.150  14.530  21.330
  241BOLB   C4D 5784  18.280  14.780  21.070
  242BOLB   NC1 5785  12.260  16.100  18.630
  242BOLB   PO1 5786  12.500  16.090  19.020
  242BOLB   GL1 5787  12.350  16.050  19.430
  242BOLB   GL2 5788  12.210  15.800  19.370
  242BOLB   C1A 5789  12.110  15.940  19.870
  242BOLB   C2A 5790  11.830  16.090  20.210
  242BOLB   C3A 5791  11.540  16.320  20.500
  242BOLB   C4A 5792  11.420  16.420  20.820
  242BOLB   C1B 5793  12.300  15.420  19.560
  242BOLB   C2B 5794  12.310  15.080  19.800
  242BOLB   C3B 5795  12.370  14.720  20.030
  242BOLB   C4B 5796  12.470  14.590  20.380
  242BOLB   NC2 5797  11.150  16.120  22.870
  242BOLB   PO2 5798  11.230  16.560  22.760
  242BOLB   GL3 5799  11.390  16.700  22.340
  242BOLB   GL4 5800  11.120  16.930  22.330
  242BOLB   C1C 5801  11.670  16.790  22.160
  242BOLB   C2C 5802  11.610  16.680  21.810
  242BOLB   C3C 5803  11.820  16.730  21.430
  242BOLB   C4C 5804  11.680  16.710  20.950
  242BOLB   C1D 5805  10.770  16.860  22.140
  242BOLB   C2D 5806  10.920  16.820  21.650
  242BOLB   C3D 5807  11.300  16.840  21.340
  242BOLB   C4D 5808  11.200  17.050  20.920
  243BOLB   NC1 5809  10.550  19.590  18.020
  243BOLB   PO1 5810  10.180  19.490  17.990
  243BOLB   GL1 5811   9.890  19.280  18.150
  243BOLB   GL2 5812   9.740  19.550  18.370
  243BOLB   C1A 5813   9.780  19.090  18.550
  243BOLB   C2A 5814   9.520  19.200  18.840
  243BOLB   C3A 5815   9.290  18.990  19.090
  243BOLB   C4A 5816   9.180  18.870  19.540
  243BOLB   C1B 5817   9.300  19.450  18.360
  243BOLB   C2B 5818   8.980  19.460  18.680
  243BOLB   C3B 5819   8.660  19.780  18.920
  243BOLB   C4B 5820   8.480  20.160  18.740
  243BOLB   NC2 5821   7.230  19.030  20.860
  243BOLB   PO2 5822   7.590  19.200  20.900
  243BOLB   GL3 5823   7.990  19.400  20.840
  243BOLB   GL4 5824   8.070  19.580  20.550
  243BOLB   C1C 5825   8.430  19.330  20.830
  243BOLB   C2C 5826   8.730  19.030  20.590
  243BOLB   C3C 5827   8.990  18.900  20.320
  243BOLB   C4C 5828   8.930  18.880  19.950
  243BOLB   C1D 5829   8.450  19.510  20.270
  243BOLB   C2D 5830   8.640  19.410  19.860
  243BOLB   C3D 5831   8.490  18.990  19.580
  243BOLB   C4D 5832   8.780  18.880  19.200
  244BOLB   NC1 5833  19.540  14.640  17.950
  244BOLB   PO1 5834  19.060  14.460  17.820
  244BOLB   GL1 5835  19.190  14.300  18.120
  244BOLB   GL2 5836  18.980  14.080  18.260
  244BOLB   C1A 5837  19.430  14.140  18.480
  244BOLB   C2A 5838  19.640  13.860  18.700
  244BOLB   C3A 5839  19.420  13.520  18.760
  244BOLB   C4A 5840  19.350  13.210  19.010
  244BOLB   C1B 5841  19.200  13.720  18.240
  244BOLB   C2B 5842  19.290  13.390  18.090
  244BOLB   C3B 5843  19.370  13.000  17.950
  244BOLB   C4B 5844  19.190  12.610  17.950
  244BOLB   NC2 5845  20.350  11.030  20.820
  244BOLB   PO2 5846  20.260  11.330  20.550
  244BOLB   GL3 5847  20.190  11.500  20.220
  244BOLB   GL4 5848  19.870  11.490  20.040
  244BOLB   C1C 5849  20.280  11.880  19.840
  244BOLB   C2C 5850  20.130  12.290  19.680
  244BOLB   C3C 5851  19.900  12.540  19.300
  244BOLB   C4C 5852  19.560  12.830  19.200
  244BOLB   C1D 5853  19.750  11.890  19.890
  244BOLB   C2D 5854  19.360  12.100  19.850
  244BOLB   C3D 5855  19.190  12.330  20.150
  244BOLB   C4D 5856  19.040  12.620  20.410
  245BOLB   NC1 5857  20.290  23.280  20.650
  245BOLB   PO1 5858  20.100  23.640  20.570
  245BOLB   GL1 5859  20.070  23.770  20.910
  245BOLB   GL2 5860  19.740  23.670  20.940
  245BOLB   C1A 5861  20.080  23.650  21.370
  245BOLB   C2A 5862  20.070  23.790  21.690
  245BOLB   C3A 5863  20.060  23.730  22.070
  245BOLB   C4A 5864  20.150  23.500  22.330
  245BOLB   C1B 5865  19.550  23.800  21.300
  245BOLB   C2B 5866  19.600  24.070  21.590
  245BOLB   C3B 5867  19.780  24.170  21.960
  245BOLB   C4B 5868  19.910  24.150  22.460
  245BOLB   NC2 5869  20.450  23.920  24.870
  245BOLB   PO2 5870  20.570  23.920  24.480
  245BOLB   GL3 5871  20.600  23.970  24.110
  245BOLB   GL4 5872  20.840  23.770  23.990
  245BOLB   C1C 5873  20.420  24.030  23.680
  245BOLB   C2C 5874  20.390  23.720  23.230
  245BOLB   C3C 5875  20.400  23.350  23.030
  245BOLB   C4C 5876  20.140  23.330  22.670
  245BOLB   C1D 5877  20.890  23.890  23.530
  245BOLB   C2D 5878  21.000  23.620  23.180
  245BOLB   C3D 5879  21.070  23.600  22.750
  245BOLB   C4D 5880  20.900  23.730  22.400
  246BOLB   NC1 5881  11.200  22.150  17.190
  246BOLB   PO1 5882  10.980  21.820  17.410
  246BOLB   GL1 5883  10.700  22.020  17.800
  246BOLB   GL2 5884  10.840  22.000  18.070
  246BOLB   C1A 5885  10.300  22.140  18.020
  246BOLB   C2A 5886  10.070  22.180  18.360
  246BOLB   C3A 5887   9.960  22.440  18.650
  246BOLB   C4A 5888   9.910  22.960  18.520
  246BOLB   C1B 5889  10.610  22.280  18.330
  246BOLB   C2B 5890  10.400  22.570  18.450
  246BOLB   C3B 5891  10.290  22.820  18.760
  246BOLB   C4B 5892  10.340  23.220  18.750
  246BOLB   NC2 5893   7.950  24.320  18.830
  246BOLB   PO2 5894   8.210  24.560  19.090
  246BOLB   GL3 5895   8.670  24.390  19.170
  246BOLB   GL4 5896   8.680  24.240  19.450
  246BOLB   C1C 5897   9.040  24.210  19.000
  246BOLB   C2C 5898   9.310  24.060  18.690
  246BOLB   C3C 5899   9.540  23.690  18.750
  246BOLB   C4C 5900   9.700  23.270  18.720
  246BOLB   C1D 5901   8.980  23.970  19.410
  246BOLB   C2D 5902   9.340  23.880  19.430
  246BOLB   C3D 5903   9.510  24.040  19.150
  246BOLB   C4D 5904   9.760  24.200  18.780
  247BOLB   NC1 5905  15.530  11.750  14.860
  247BOLB   PO1 5906  15.130  11.890  14.600
  247BOLB   GL1 5907  14.920  11.570  14.810
  247BOLB   GL2 5908  14.740  11.450  15.170
  247BOLB   C1A 5909  14.880  11.060  14.890
  247BOLB   C2A 5910  14.830  10.730  14.670
  247BOLB   C3A 5911  14.860  10.470  14.310
  247BOLB   C4A 5912  14.730   9.950  14.180
  247BOLB   C1B 5913  14.530  11.060  15.340
  247BOLB   C2B 5914  14.430  10.800  15.100
  247BOLB   C3B 5915  14.360  10.630  14.620
  247BOLB   C4B 5916  14.380  10.540  14.220
  247BOLB   NC2 5917  13.830   7.800  13.660
  247BOLB   PO2 5918  14.250   7.920  13.430
  247BOLB   GL3 5919  14.470   8.110  13.590
  247BOLB   GL4 5920  14.600   8.040  13.940
  247BOLB   C1C 5921  14.570   8.490  13.610
  247BOLB   C2C 5922  14.930   8.850  13.650
  247BOLB   C3C 5923  15.080   9.220  13.840
  247BOLB   C4C 5924  14.930   9.590  14.120
  247BOLB   C1D 5925  14.890   8.330  13.990
  247BOLB   C2D 5926  15.180   8.580  14.300
  247BOLB   C3D 5927  15.210   8.800  14.620
  247BOLB   C4D 5928  15.220   9.080  14.900
  248BOLB   NC1 5929  24.920  26.000  15.890
  248BOLB   PO1 5930  24.990  26.410  16.060
  248BOLB   GL1 5931  25.320  26.470  16.300
  248BOLB   GL2 5932  25.670  26.290  16.270
  248BOLB   C1A 5933  25.570  26.600  16.630
  248BOLB   C2A 5934  25.760  26.900  16.930
  248BOLB   C3A 5935  26.060  27.060  17.230
  248BOLB   C4A 5936  26.590  27.180  17.300
  248BOLB   C1B 5937  26.030  26.450  16.270
  248BOLB   C2B 5938  26.300  26.570  16.660
  248BOLB   C3B 5939  26.610  26.430  16.800
  248BOLB   C4B 5940  27.010  26.450  16.900
  248BOLB   NC2 5941  27.580  29.670  17.750
  248BOLB   PO2 5942  27.690  29.300  18.110
  248BOLB   GL3 5943  27.260  29.140  18.080
  248BOLB   GL4 5944  27.120  29.320  17.810
  248BOLB   C1C 5945  27.000  28.730  18.150
  248BOLB   C2C 5946  26.850  28.330  18.080
  248BOLB   C3C 5947  26.780  27.900  17.740
  248BOLB   C4C 5948  26.730  27.550  17.530
  248BOLB   C1D 5949  26.710  29.000  17.830
  248BOLB   C2D 5950  26.680  28.600  17.690
  248BOLB   C3D 5951  26.370  28.280  17.740
  248BOLB   C4D 5952  26.220  27.850  17.570
  249BOLB   NC1 5953  16.200  28.670  12.500
  249BOLB   PO1 5954  15.960  28.900  12.240
  249BOLB   GL1 5955  15.850  29.350  12.240
  249BOLB   GL2 5956  15.990  29.500  11.960
  249BOLB   C1A 5957  15.570  29.730  12.230
  249BOLB   C2A 5958  15.330  30.100  12.470
  249BOLB   C3A 5959  15.110  30.510  12.630
  249BOLB   C4A 5960  14.980  30.760  13.070
  249BOLB   C1B 5961  16.050  29.910  11.950
  249BOLB   C2B 5962  16.030  30.240  11.760
  249BOLB   C3B 5963  15.670  30.620  11.850
  249BOLB   C4B 5964  15.380  30.830  11.970
  249BOLB   NC2 5965  13.080  32.420  13.010
  249BOLB   PO2 5966  13.440  32.590  12.720
  249BOLB   GL3 5967  13.710  32.330  12.970
  249BOLB   GL4 5968  13.970  32.470  12.840
  249BOLB   C1C 5969  13.900  31.930  13.100
  249BOLB   C2C 5970  14.230  31.630  13.220
  249BOLB   C3C 5971  14.470  31.320  13.190
  249BOLB   C4C 5972  14.810  31.110  13.220
  249BOLB   C1D 5973  14.130  32.070  12.710
  249BOLB   C2D 5974  14.190  31.690  12.600
  249BOLB   C3D 5975  14.380  31.280  12.700
  249BOLB   C4D 5976  14.670  30.980  12.650
  250BOLB   NC1 5977  20.550  26.930  18.890
  250BOLB   PO1 5978  20.680  27.320  18.940
  250BOLB   GL1 5979  20.510  27.700  18.960
  250BOLB   GL2 5980  20.200  27.740  18.820
  250BOLB   C1A 5981  20.750  27.910  19.370
  250BOLB   C2A 5982  20.890  28.170  19.520
  250BOLB   C3A 5983  20.760  28.540  19.720
  250BOLB   C4A 5984  20.540  28.870  19.980
  250BOLB   C1B 5985  20.190  27.920  19.240
  250BOLB   C2B 5986  20.100  28.240  19.650
  250BOLB   C3B 5987  20.290  28.320  20.000
  250BOLB   C4B 5988  20.810  28.190  20.130
  250BOLB   NC2 5989  21.270  30.390  21.340
  250BOLB   PO2 5990  20.890  30.550  21.280
  250BOLB   GL3 5991  20.540  30.550  21.040
  250BOLB   GL4 5992  20.280  30.390  21.150
  250BOLB   C1C 5993  20.510  30.140  20.820
  250BOLB   C2C 5994  20.320  29.840  20.590
  250BOLB   C3C 5995  20.260  29.490  20.370
  250BOLB   C4C 5996  20.210  29.120  20.180
  250BOLB   C1D 5997  20.090  30.050  21.010
  250BOLB   C2D 5998  19.990  29.590  21.130
  250BOLB   C3D 5999  20.130  29.190  21.250
  250BOLB   C4D 6000  20.120  29.040  21.630
  251BOLB   NC1 6001  10.210  19.920  17.650
  251BOLB   PO1 6002  10.590  20.050  17.980
  251BOLB   GL1 6003  10.380  20.510  18.050
  251BOLB   GL2 6004  10.160  20.550  17.760
  251BOLB   C1A 6005  10.270  20.760  18.460
  251BOLB   C2A 6006  10.510  20.900  18.780
  251BOLB   C3A 6007  10.410  21.020  19.050
  251BOLB   C4A 6008  10.220  21.140  19.380
  251BOLB   C1B 6009   9.940  20.430  18.130
  251BOLB   C2B 6010   9.800  20.150  18.410
  251BOLB   C3B 6011   9.590  20.250  18.820
  251BOLB   C4B 6012   9.370  20.170  19.180
  251BOLB   NC2 6013   8.550  22.820  20.790
  251BOLB   PO2 6014   8.970  22.940  20.680
  251BOLB   GL3 6015   9.390  22.770  20.520
  251BOLB   GL4 6016   9.560  22.880  20.220
  251BOLB   C1C 6017   9.480  22.280  20.330
  251BOLB   C2C 6018   9.540  21.890  20.140
  251BOLB   C3C 6019   9.820  21.820  19.780
  251BOLB   C4C 6020   9.970  21.530  19.470
  251BOLB   C1D 6021   9.870  22.700  20.320
  251BOLB   C2D 6022  10.200  22.620  20.090
  251BOLB   C3D 6023  10.340  22.350  19.780
  251BOLB   C4D 6024  10.760  22.080  19.860
  252BOLB   NC1 6025   9.420  23.040  21.090
  252BOLB   PO1 6026   9.720  23.330  20.880
  252BOLB   GL1 6027   9.830  23.310  20.520
  252BOLB   GL2 6028   9.700  23.570  20.450
  252BOLB   C1A 6029  10.070  23.150  20.200
  252BOLB   C2A 6030  10.520  23.050  20.150
  252BOLB   C3A 6031  10.880  23.020  20.010
  252BOLB   C4A 6032  11.320  22.930  20.080
  252BOLB   C1B 6033   9.570  23.370  20.020
  252BOLB   C2B 6034   9.450  23.320  19.570
  252BOLB   C3B 6035   9.700  23.060  19.250
  252BOLB   C4B 6036   9.930  22.640  19.130
  252BOLB   NC2 6037  12.150  21.250  18.890
  252BOLB   PO2 6038  12.410  21.610  18.790
  252BOLB   GL3 6039  12.070  21.800  18.950
  252BOLB   GL4 6040  11.820  21.680  18.960
  252BOLB   C1C 6041  11.930  22.070  19.310
  252BOLB   C2C 6042  11.790  22.260  19.640
  252BOLB   C3C 6043  11.880  22.510  19.980
  252BOLB   C4C 6044  11.670  22.890  20.180
  252BOLB   C1D 6045  11.500  21.810  19.260
  252BOLB   C2D 6046  11.370  21.620  19.590
  252BOLB   C3D 6047  11.530  21.210  19.730
  252BOLB   C4D 6048  11.690  20.850  19.880
  253BOLB   NC1 6049  15.650  27.620  17.320
  253BOLB   PO1 6050  15.870  27.810  16.980
  253BOLB   GL1 6051  15.770  28.170  17.240
  253BOLB   GL2 6052  15.660  28.150  17.480
  253BOLB   C1A 6053  15.590  28.610  17.560
  253BOLB   C2A 6054  15.500  28.970  17.800
  253BOLB   C3A 6055  15.530  29.350  18.060
  253BOLB   C4A 6056  15.650  29.730  18.330
  253BOLB   C1B 6057  15.470  28.340  17.920
  253BOLB   C2B 6058  15.090  28.680  18.020
  253BOLB   C3B 6059  14.800  28.860  18.390
  253BOLB   C4B 6060  14.530  29.170  18.510
  253BOLB   NC2 6061  15.650  31.530  19.730
  253BOLB   PO2 6062  15.930  31.200  19.800
  253BOLB   GL3 6063  16.280  30.980  19.760
  253BOLB   GL4 6064  16.580  31.140  19.670
  253BOLB   C1C 6065  16.430  30.650  19.450
  253BOLB   C2C 6066  16.320  30.580  18.980
  253BOLB   C3C 6067  16.170  30.290  18.630
  253BOLB   C4C 6068  16.030  30.010  18.330
  253BOLB   C1D 6069  16.800  30.910  19.360
  253BOLB   C2D 6070  16.820  30.510  19.170
  253BOLB   C3D 6071  17.070  30.070  19.210
  253BOLB   C4D 6072  17.430  29.840  19.100
  254BOLB   NC1 6073  19.340  25.330  20.010
  254BOLB   PO1 6074  18.910  25.100  20.180
  254BOLB   GL1 6075  19.100  25.520  20.380
  254BOLB   GL2 6076  19.030  25.310  20.670
  254BOLB   C1A 6077  19.320  25.680  20.830
  254BOLB   C2A 6078  19.410  25.700  21.180
  254BOLB   C3A 6079  19.780  25.700  21.410
  254BOLB   C4A 6080  19.730  25.990  21.740
  254BOLB   C1B 6081  18.970  25.330  21.080
  254BOLB   C2B 6082  18.910  25.440  21.440
  254BOLB   C3B 6083  19.040  25.290  21.890
  254BOLB   C4B 6084  18.950  25.230  22.350
  254BOLB   NC2 6085  18.780  26.850  23.890
  254BOLB   PO2 6086  19.060  26.580  24.030
  254BOLB   GL3 6087  19.170  26.340  23.590
  254BOLB   GL4 6088  19.220  26.040  23.540
  254BOLB   C1C 6089  19.140  26.480  23.190
  254BOLB   C2C 6090  19.490  26.450  22.810
  254BOLB   C3C 6091  19.720  26.360  22.450
  254BOLB   C4C 6092  19.860  26.220  22.140
  254BOLB   C1D 6093  18.920  25.970  23.260
  254BOLB   C2D 6094  18.920  26.270  22.800
  254BOLB   C3D 6095  18.940  26.230  22.260
  254BOLB   C4D 6096  19.330  26.170  22.060
  255BOLB   NC1 6097  25.860  20.030  15.090
  255BOLB   PO1 6098  25.660  20.350  15.300
  255BOLB   GL1 6099  26.070  20.320  15.530
  255BOLB   GL2 6100  26.110  20.600  15.740
  255BOLB   C1A 6101  26.350  20.120  15.710
  255BOLB   C2A 6102  26.800  20.140  15.860
  255BOLB   C3A 6103  27.170  19.940  15.710
  255BOLB   C4A 6104  27.480  19.670  15.740
  255BOLB   C1B 6105  26.500  20.580  15.820
  255BOLB   C2B 6106  26.900  20.580  16.080
  255BOLB   C3B 6107  27.330  20.290  16.250
  255BOLB   C4B 6108  27.530  19.960  16.130
  255BOLB   NC2 6109  28.920  17.460  15.090
  255BOLB   PO2 6110  28.960  17.630  15.560
  255BOLB   GL3 6111  28.670  17.980  15.630
  255BOLB   GL4 6112  28.410  17.950  15.390
  255BOLB   C1C 6113  28.410  18.320  15.980
  255BOLB   C2C 6114  28.200  18.740  15.970
  255BOLB   C3C 6115  27.970  19.070  15.740
  255BOLB   C4C 6116  27.610  19.230  15.760
  255BOLB   C1D 6117  28.270  18.470  15.470
  255BOLB   C2D 6118  28.380  18.960  15.440
  255BOLB   C3D 6119  28.020  19.150  15.230
  255BOLB   C4D 6120  27.530  19.490  15.270
  256BOLB   NC1 6121  12.500  25.950  16.720
  256BOLB   PO1 6122  12.880  25.740  16.900
  256BOLB   GL1 6123  12.740  26.100  17.180
  256BOLB   GL2 6124  12.950  26.330  17.160
  256BOLB   C1A 6125  12.390  26.120  17.490
  256BOLB   C2A 6126  12.110  26.120  17.790
  256BOLB   C3A 6127  11.820  26.420  18.120
  256BOLB   C4A 6128  11.600  26.790  18.330
  256BOLB   C1B 6129  12.630  26.570  17.440
  256BOLB   C2B 6130  12.520  26.920  17.760
  256BOLB   C3B 6131  12.190  27.120  17.780
  256BOLB   C4B 6132  11.800  27.380  17.790
  256BOLB   NC2 6133   9.080  28.400  18.290
  256BOLB   PO2 6134   9.560  28.160  18.140
  256BOLB   GL3 6135   9.840  27.930  18.410
  256BOLB   GL4 6136  10.190  28.060  18.360
  256BOLB   C1C 6137  10.100  27.510  18.330
  256BOLB   C2C 6138  10.440  27.230  18.430
  256BOLB   C3C 6139  10.910  27.080  18.430
  256BOLB   C4C 6140  11.330  26.990  18.520
  256BOLB   C1D 6141  10.190  27.930  17.990
  256BOLB   C2D 6142  10.160  27.680  17.740
  256BOLB   C3D 6143  10.200  27.270  17.860
  256BOLB   C4D 6144  10.550  27.000  18.050
  257BOLB   NC1 6145  11.850  10.250  19.310
  257BOLB   PO1 6146  11.910  10.490  19.680
  257BOLB   GL1 6147  12.120  10.820  19.670
  257BOLB   GL2 6148  12.130  11.120  19.790
  257BOLB   C1A 6149  12.190  10.860  19.230
  257BOLB   C2A 6150  11.860  10.910  18.840
  257BOLB   C3A 6151  11.860  11.050  18.430
  257BOLB   C4A 6152  11.870  11.170  18.000
  257BOLB   C1B 6153  11.960  11.400  19.440
  257BOLB   C2B 6154  12.020  11.660  19.080
  257BOLB   C3B 6155  12.120  11.880  18.660
  257BOLB   C4B 6156  11.970  11.990  18.250
  257BOLB   NC2 6157   9.840  10.550  17.610
  257BOLB   PO2 6158  10.090  10.390  17.400
  257BOLB   GL3 6159  10.310  10.700  17.310
  257BOLB   GL4 6160  10.230  10.930  17.540
  257BOLB   C1C 6161  10.770  10.850  17.290
  257BOLB   C2C 6162  11.110  10.980  17.240
  257BOLB   C3C 6163  11.370  11.290  17.410
  257BOLB   C4C 6164  11.760  11.390  17.660
  257BOLB   C1D 6165  10.470  11.260  17.740
  257BOLB   C2D 6166  10.630  11.670  17.850
  257BOLB   C3D 6167  10.770  12.060  17.710
  257BOLB   C4D 6168  11.030  12.320  17.550
  258BOLB   NC1 6169  24.710  17.820  10.860
  258BOLB   PO1 6170  24.710  17.550  11.210
  258BOLB   GL1 6171  25.000  17.420  10.880
  258BOLB   GL2 6172  25.150  17.620  10.750
  258BOLB   C1A 6173  25.140  17.080  10.610
  258BOLB   C2A 6174  25.240  17.000  10.200
  258BOLB   C3A 6175  25.610  17.200   9.950
  258BOLB   C4A 6176  25.890  17.490   9.780
  258BOLB   C1B 6177  25.450  17.450  10.960
  258BOLB   C2B 6178  25.840  17.310  11.100
  258BOLB   C3B 6179  26.190  17.150  11.320
  258BOLB   C4B 6180  26.650  17.150  11.590
  258BOLB   NC2 6181  27.850  16.220   9.980
  258BOLB   PO2 6182  27.530  15.980  10.190
  258BOLB   GL3 6183  27.350  16.300  10.360
  258BOLB   GL4 6184  27.060  16.250  10.540
  258BOLB   C1C 6185  27.360  16.730  10.350
  258BOLB   C2C 6186  26.990  17.040  10.290
  258BOLB   C3C 6187  26.590  17.170  10.340
  258BOLB   C4C 6188  26.270  17.430  10.050
  258BOLB   C1D 6189  26.980  15.810  10.560
  258BOLB   C2D 6190  26.620  15.620  10.400
  258BOLB   C3D 6191  26.240  15.470  10.550
  258BOLB   C4D 6192  26.100  15.290  10.870
  259BOLB   NC1 6193  17.970  29.780  14.030
  259BOLB   PO1 6194  17.480  29.710  13.940
  259BOLB   GL1 6195  17.320  30.030  14.140
  259BOLB   GL2 6196  17.350  30.340  13.900
  259BOLB   C1A 6197  17.010  30.320  14.270
  259BOLB   C2A 6198  16.860  30.650  14.480
  259BOLB   C3A 6199  16.920  31.160  14.380
  259BOLB   C4A 6200  16.920  31.600  14.440
  259BOLB   C1B 6201  17.480  30.720  13.590
  259BOLB   C2B 6202  17.290  31.170  13.600
  259BOLB   C3B 6203  17.200  31.640  13.500
  259BOLB   C4B 6204  17.500  32.060  13.560
  259BOLB   NC2 6205  16.130  33.440  15.290
  259BOLB   PO2 6206  15.990  33.260  14.960
  259BOLB   GL3 6207  15.870  32.910  14.720
  259BOLB   GL4 6208  15.660  33.000  14.410
  259BOLB   C1C 6209  15.920  32.530  14.780
  259BOLB   C2C 6210  15.950  32.110  14.720
  259BOLB   C3C 6211  16.260  31.960  14.560
  259BOLB   C4C 6212  16.590  31.770  14.630
  259BOLB   C1D 6213  15.770  32.940  13.960
  259BOLB   C2D 6214  15.830  32.540  13.900
  259BOLB   C3D 6215  15.910  32.320  13.510
  259BOLB   C4D 6216  16.060  32.010  13.290
  260BOLB   NC1 6217  16.150  12.290  11.480
  260BOLB   PO1 6218  15.880  12.330  11.050
  260BOLB   GL1 6219  16.130  11.900  11.080
  260BOLB   GL2 6220  15.900  11.800  10.830
  260BOLB   C1A 6221  16.200  11.470  10.930
  260BOLB   C2A 6222  16.390  11.150  11.120
  260BOLB   C3A 6223  16.350  10.700  11.130
  260BOLB   C4A 6224  16.340  10.210  10.960
  260BOLB   C1B 6225  15.740  11.320  10.640
  260BOLB   C2B 6226  15.600  11.150  10.270
  260BOLB   C3B 6227  15.740  11.030   9.840
  260BOLB   C4B 6228  16.120  11.080   9.680
  260BOLB   NC2 6229  16.450   7.640  11.370
  260BOLB   PO2 6230  16.840   7.560  11.270
  260BOLB   GL3 6231  16.840   7.960  11.070
  260BOLB   GL4 6232  17.110   8.140  11.060
  260BOLB   C1C 6233  16.720   8.420  10.920
  260BOLB   C2C 6234  16.750   8.890  11.040
  260BOLB   C3C 6235  16.610   9.360  11.120
  260BOLB   C4C 6236  16.540   9.800  11.130
  260BOLB   C1D 6237  17.280   8.490  11.000
  260BOLB   C2D 6238  17.230   8.860  11.090
  260BOLB   C3D 6239  17.290   9.260  10.920
  260BOLB   C4D 6240  17.640   9.520  10.810
  261BOLB   NC1 6241  22.460  26.930  18.570
  261BOLB   PO1 6242  22.380  27.450  18.500
  261BOLB   GL1 6243  22.670  27.690  18.760
  261BOLB   GL2 6244  22.980  27.700  18.600
  261BOLB   C1A 6245  22.790  27.860  19.130
  261BOLB   C2A 6246  22.540  28.190  19.420
  261BOLB   C3A 6247  22.250  28.510  19.640
  261BOLB   C4A 6248  22.110  28.750  19.980
  261BOLB   C1B 6249  23.230  27.690  19.020
  261BOLB   C2B 6250  23.480  27.700  19.380
  261BOLB   C3B 6251  23.700  27.680  19.780
  261BOLB   C4B 6252  24.040  27.700  19.980
  261BOLB   NC2 6253  21.850  29.860  21.890
  261BOLB   PO2 6254  21.710  29.390  22.000
  261BOLB   GL3 6255  21.670  29.480  21.590
  261BOLB   GL4 6256  21.900  29.280  21.460
  261BOLB   C1C 6257  21.560  29.390  21.140
  261BOLB   C2C 6258  21.540  29.240  20.720
  261BOLB   C3C 6259  21.530  28.830  20.480
  261BOLB   C4C 6260  21.850  28.530  20.310
  261BOLB   C1D 6261  21.640  28.950  21.340
  261BOLB   C2D 6262  21.320  28.970  21.000
  261BOLB   C3D 6263  21.050  28.910  20.670
  261BOLB   C4D 6264  20.780  28.560  20.410
  262BOLB   NC1 6265  21.600  21.920  19.790
  262BOLB   PO1 6266  22.030  21.660  19.830
  262BOLB   GL1 6267  22.310  21.490  20.150
  262BOLB   GL2 6268  22.480  21.780  20.310
  262BOLB   C1A 6269  22.420  21.030  20.270
  262BOLB   C2A 6270  22.700  20.740  20.540
  262BOLB   C3A 6271  22.840  20.690  20.870
  262BOLB   C4A 6272  22.850  20.440  21.190
  262BOLB   C1B 6273  22.740  21.990  20.580
  262BOLB   C2B 6274  23.030  22.230  20.770
  262BOLB   C3B 6275  23.170  22.450  21.150
  262BOLB   C4B 6276  23.170  22.600  21.610
  262BOLB   NC2 6277  22.990  20.220  23.570
  262BOLB   PO2 6278  23.420  20.400  23.590
  262BOLB   GL3 6279  23.190  20.570  23.220
  262BOLB   GL4 6280  22.890  20.500  23.170
  262BOLB   C1C 6281  23.130  20.710  22.800
  262BOLB   C2C 6282  22.790  20.860  22.450
  262BOLB   C3C 6283  22.590  20.760  22.030
  262BOLB   C4C 6284  22.750  20.480  21.620
  262BOLB   C1D 6285  23.080  20.240  22.890
  262BOLB   C2D 6286  22.860  20.300  22.510
  262BOLB   C3D 6287  22.940  20.200  22.110
  262BOLB   C4D 6288  22.980  19.970  21.750
  263BOLB   NC1 6289  19.000  12.590  13.470
  263BOLB   PO1 6290  18.810  12.400  13.920
  263BOLB   GL1 6291  19.080  12.020  13.920
  263BOLB   GL2 6292  19.260  12.080  13.640
  263BOLB   C1A 6293  18.830  11.710  13.850
  263BOLB   C2A 6294  18.870  11.350  13.760
  263BOLB   C3A 6295  18.970  10.810  13.800
  263BOLB   C4A 6296  19.290  10.480  13.870
  263BOLB   C1B 6297  19.340  11.630  13.890
  263BOLB   C2B 6298  19.360  11.230  14.160
  263BOLB   C3B 6299  19.430  11.000  14.520
  263BOLB   C4B 6300  19.630  10.920  14.930
  263BOLB   NC2 6301  20.240   8.500  15.400
  263BOLB   PO2 6302  19.880   8.820  15.530
  263BOLB   GL3 6303  19.580   9.160  15.330
  263BOLB   GL4 6304  19.740   9.440  15.460
  263BOLB   C1C 6305  19.340   9.280  14.880
  263BOLB   C2C 6306  19.110   9.600  14.670
  263BOLB   C3C 6307  19.210   9.930  14.430
  263BOLB   C4C 6308  19.520  10.160  14.090
  263BOLB   C1D 6309  19.640   9.780  15.180
  263BOLB   C2D 6310  19.980  10.120  14.990
  263BOLB   C3D 6311  20.060  10.550  14.990
  263BOLB   C4D 6312  20.290  10.840  15.020
  264BOLB   NC1 6313  21.460  20.520  19.640
  264BOLB   PO1 6314  21.740  20.620  19.820
  264BOLB   GL1 6315  21.780  20.670  20.280
  264BOLB   GL2 6316  21.510  20.610  20.480
  264BOLB   C1A 6317  22.110  20.650  20.570
  264BOLB   C2A 6318  22.290  20.920  20.870
  264BOLB   C3A 6319  22.550  20.830  21.240
  264BOLB   C4A 6320  22.880  20.890  21.490
  264BOLB   C1B 6321  21.710  20.700  20.830
  264BOLB   C2B 6322  21.790  21.080  20.870
  264BOLB   C3B 6323  22.090  21.340  21.140
  264BOLB   C4B 6324  21.940  21.670  21.330
  264BOLB   NC2 6325  23.640  21.310  23.460
  264BOLB   PO2 6326  23.610  21.760  23.380
  264BOLB   GL3 6327  23.200  21.560  23.260
  264BOLB   GL4 6328  22.930  21.700  23.380
  264BOLB   C1C 6329  23.030  21.210  23.010
  264BOLB   C2C 6330  23.170  21.230  22.510
  264BOLB   C3C 6331  23.240  21.050  22.110
  264BOLB   C4C 6332  23.050  20.780  21.840
  264BOLB   C1D 6333  22.640  21.570  23.040
  264BOLB   C2D 6334  22.680  21.570  22.610
  264BOLB   C3D 6335  22.850  21.480  22.130
  264BOLB   C4D 6336  22.980  21.330  21.720
  265BOLB   NC1 6337  22.120  18.030  18.700
  265BOLB   PO1 6338  21.870  17.650  18.670
  265BOLB   GL1 6339  22.280  17.600  18.970
  265BOLB   GL2 6340  22.480  17.630  18.760
  265BOLB   C1A 6341  22.430  17.550  19.440
  265BOLB   C2A 6342  22.800  17.510  19.570
  265BOLB   C3A 6343  22.770  17.160  19.810
  265BOLB   C4A 6344  22.700  16.900  20.230
  265BOLB   C1B 6345  22.740  17.430  19.040
  265BOLB   C2B 6346  22.910  16.990  19.230
  265BOLB   C3B 6347  23.120  16.760  19.490
  265BOLB   C4B 6348  23.460  16.830  19.840
  265BOLB   NC2 6349  23.560  15.800  22.140
  265BOLB   PO2 6350  23.150  15.440  22.110
  265BOLB   GL3 6351  22.970  15.840  21.850
  265BOLB   GL4 6352  22.720  16.020  21.940
  265BOLB   C1C 6353  22.800  15.860  21.420
  265BOLB   C2C 6354  22.860  15.970  20.960
  265BOLB   C3C 6355  22.840  16.360  20.720
  265BOLB   C4C 6356  22.860  16.590  20.450
  265BOLB   C1D 6357  22.430  16.100  21.680
  265BOLB   C2D 6358  22.130  16.330  21.510
  265BOLB   C3D 6359  21.840  16.210  21.180
  265BOLB   C4D 6360  21.510  16.250  20.950
  266BOLB   NC1 6361  25.570  26.210  15.080
  266BOLB   PO1 6362  25.520  26.560  15.200
  266BOLB   GL1 6363  25.830  26.890  15.300
  266BOLB   GL2 6364  25.800  27.250  15.190
  266BOLB   C1A 6365  26.180  27.100  15.510
  266BOLB   C2A 6366  26.490  27.540  15.470
  266BOLB   C3A 6367  26.790  27.790  15.210
  266BOLB   C4A 6368  27.210  27.730  15.140
  266BOLB   C1B 6369  26.090  27.430  15.150
  266BOLB   C2B 6370  26.370  27.670  14.990
  266BOLB   C3B 6371  26.570  27.740  14.630
  266BOLB   C4B 6372  26.980  27.970  14.660
  266BOLB   NC2 6373  28.380  29.320  17.330
  266BOLB   PO2 6374  28.540  28.970  17.120
  266BOLB   GL3 6375  28.130  28.620  16.920
  266BOLB   GL4 6376  27.880  28.570  17.170
  266BOLB   C1C 6377  27.880  28.510  16.660
  266BOLB   C2C 6378  27.650  28.480  16.190
  266BOLB   C3C 6379  27.590  28.110  15.860
  266BOLB   C4C 6380  27.530  27.930  15.450
  266BOLB   C1D 6381  27.480  28.330  17.030
  266BOLB   C2D 6382  27.560  27.790  17.040
  266BOLB   C3D 6383  27.180  27.710  16.700
  266BOLB   C4D 6384  27.300  27.860  16.250
  267BOLB   NC1 6385  17.290  20.840  20.420
  267BOLB   PO1 6386  16.930  20.570  20.400
  267BOLB   GL1 6387  16.730  20.560  20.790
  267BOLB   GL2 6388  16.920  20.800  20.980
  267BOLB   C1A 6389  16.570  20.220  20.920
  267BOLB   C2A 6390  16.350  19.990  21.260
  267BOLB   C3A 6391  16.010  19.860  21.520
  267BOLB   C4A 6392  15.740  20.000  21.770
  267BOLB   C1B 6393  16.940  20.500  21.290
  267BOLB   C2B 6394  16.900  20.500  21.700
  267BOLB   C3B 6395  16.650  20.350  22.060
  267BOLB   C4B 6396  16.640  20.490  22.550
  267BOLB   NC2 6397  15.940  19.970  24.500
  267BOLB   PO2 6398  15.780  20.350  24.410
  267BOLB   GL3 6399  15.720  20.310  23.950
  267BOLB   GL4 6400  16.070  20.480  23.940
  267BOLB   C1C 6401  15.720  20.140  23.570
  267BOLB   C2C 6402  15.680  20.100  23.180
  267BOLB   C3C 6403  15.640  20.070  22.720
  267BOLB   C4C 6404  15.760  20.080  22.200
  267BOLB   C1D 6405  16.010  20.540  23.450
  267BOLB   C2D 6406  15.930  20.550  23.050
  267BOLB   C3D 6407  16.140  20.670  22.690
  267BOLB   C4D 6408  16.460  20.930  22.410
  268BOLB   NC1 6409  18.200  26.170  19.770
  268BOLB   PO1 6410  18.070  26.270  20.040
  268BOLB   GL1 6411  18.220  26.200  20.380
  268BOLB   GL2 6412  17.890  26.070  20.560
  268BOLB   C1A 6413  18.360  26.060  20.730
  268BOLB   C2A 6414  18.410  26.140  21.150
  268BOLB   C3A 6415  18.410  26.330  21.590
  268BOLB   C4A 6416  18.770  26.470  21.770
  268BOLB   C1B 6417  18.100  26.510  20.760
  268BOLB   C2B 6418  18.480  26.640  20.700
  268BOLB   C3B 6419  18.810  26.920  20.660
  268BOLB   C4B 6420  19.030  27.220  20.830
  268BOLB   NC2 6421  19.890  27.280  24.240
  268BOLB   PO2 6422  19.850  27.100  23.770
  268BOLB   GL3 6423  19.760  27.020  23.280
  268BOLB   GL4 6424  19.730  26.730  23.200
  268BOLB   C1C 6425  19.650  27.070  22.890
  268BOLB   C2C 6426  19.670  26.840  22.610
  268BOLB   C3C 6427  19.290  26.710  22.320
  268BOLB   C4C 6428  19.060  26.670  22.040
  268BOLB   C1D 6429  20.050  26.390  23.110
  268BOLB   C2D 6430  19.990  26.110  22.760
  268BOLB   C3D 6431  20.170  25.910  22.520
  268BOLB   C4D 6432  20.090  25.690  22.100
  269BOLB   NC1 6433  24.560  24.600  17.070
  269BOLB   PO1 6434  24.940  24.710  17.250
  269BOLB   GL1 6435  25.160  24.720  17.730
  269BOLB   GL2 6436  25.370  24.390  17.860
  269BOLB   C1A 6437  25.350  24.820  18.110
  269BOLB   C2A 6438  25.800  24.940  18.280
  269BOLB   C3A 6439  26.290  24.860  18.450
  269BOLB   C4A 6440  26.650  25.070  18.570
  269BOLB   C1B 6441  25.740  24.600  17.850
  269BOLB   C2B 6442  26.220  24.780  17.980
  269BOLB   C3B 6443  26.660  24.900  18.030
  269BOLB   C4B 6444  26.980  25.220  17.830
  269BOLB   NC2 6445  28.600  26.220  19.450
  269BOLB   PO2 6446  28.480  25.860  19.800
  269BOLB   GL3 6447  28.130  25.810  19.490
  269BOLB   GL4 6448  28.000  25.960  19.390
  269BOLB   C1C 6449  27.680  25.650  19.710
  269BOLB   C2C 6450  27.390  25.450  19.370
  269BOLB   C3C 6451  27.210  25.280  19.120
  269BOLB   C4C 6452  27.070  25.060  18.800
  269BOLB   C1D 6453  27.560  26.020  19.190
  269BOLB   C2D 6454  27.360  25.860  18.970
  269BOLB   C3D 6455  27.040  26.150  18.850
  269BOLB   C4D 6456  26.620  26.170  18.680
  270BOLB   NC1 6457  15.680  21.270  24.440
  270BOLB   PO1 6458  15.970  21.390  24.160
  270BOLB   GL1 6459  16.010  21.150  23.760
  270BOLB   GL2 6460  15.820  20.950  23.720
  270BOLB   C1A 6461  16.080  21.360  23.310
  270BOLB   C2A 6462  16.190  21.600  22.990
  270BOLB   C3A 6463  16.150  21.970  22.640
  270BOLB   C4A 6464  15.760  22.240  22.500
  270BOLB   C1B 6465  15.530  20.610  23.530
  270BOLB   C2B 6466  15.340  20.430  23.230
  270BOLB   C3B 6467  15.380  20.420  22.890
  270BOLB   C4B 6468  15.330  20.500  22.460
  270BOLB   NC2 6469  14.740  23.680  24.190
  270BOLB   PO2 6470  14.480  23.280  23.890
  270BOLB   GL3 6471  14.820  23.140  23.730
  270BOLB   GL4 6472  15.170  23.180  23.580
  270BOLB   C1C 6473  14.860  22.780  23.360
  270BOLB   C2C 6474  14.790  22.480  23.110
  270BOLB   C3C 6475  15.020  22.270  22.850
  270BOLB   C4C 6476  15.370  22.160  22.570
  270BOLB   C1D 6477  15.520  23.290  23.450
  270BOLB   C2D 6478  15.860  23.340  23.290
  270BOLB   C3D 6479  16.080  23.280  22.960
  270BOLB   C4D 6480  16.170  23.210  22.480
  271BOLB   NC1 6481  18.390  30.050  12.020
  271BOLB   PO1 6482  18.880  30.160  12.040
  271BOLB   GL1 6483  19.020  30.590  12.090
  271BOLB   GL2 6484  19.400  30.550  12.030
  271BOLB   C1A 6485  18.740  30.930  12.110
  271BOLB   C2A 6486  18.540  31.210  12.280
  271BOLB   C3A 6487  18.520  31.580  12.070
  271BOLB   C4A 6488  18.360  31.840  12.060
  271BOLB   C1B 6489  19.310  31.060  11.920
  271BOLB   C2B 6490  18.940  31.310  11.840
  271BOLB   C3B 6491  18.860  31.630  11.630
  271BOLB   C4B 6492  18.760  32.120  11.600
  271BOLB   NC2 6493  18.720  34.070  11.040
  271BOLB   PO2 6494  18.410  34.310  11.360
  271BOLB   GL3 6495  18.470  33.860  11.500
  271BOLB   GL4 6496  18.780  33.720  11.550
  271BOLB   C1C 6497  18.220  33.470  11.360
  271BOLB   C2C 6498  18.200  33.040  11.360
  271BOLB   C3C 6499  18.320  32.630  11.510
  271BOLB   C4C 6500  18.340  32.310  11.860
  271BOLB   C1D 6501  18.650  33.290  11.550
  271BOLB   C2D 6502  18.820  32.940  11.430
  271BOLB   C3D 6503  18.800  32.600  11.730
  271BOLB   C4D 6504  18.810  32.230  12.110
  272BOLB   NC1 6505  14.810  26.040  17.720
  272BOLB   PO1 6506  14.690  26.050  17.990
  272BOLB   GL1 6507  14.330  26.190  18.210
  272BOLB   GL2 6508  14.150  25.970  18.300
  272BOLB   C1A 6509  14.150  26.570  18.260
  272BOLB   C2A 6510  13.790  26.780  18.260
  272BOLB   C3A 6511  13.540  27.020  18.470
  272BOLB   C4A 6512  13.270  27.200  18.740
  272BOLB   C1B 6513  13.840  26.180  18.410
  272BOLB   C2B 6514  13.630  26.460  18.630
  272BOLB   C3B 6515  13.340  26.690  18.950
  272BOLB   C4B 6516  12.880  26.930  19.030
  272BOLB   NC2 6517  12.010  29.270  20.150
  272BOLB   PO2 6518  11.760  28.890  19.970
  272BOLB   GL3 6519  11.870  28.670  19.660
  272BOLB   GL4 6520  11.710  28.840  19.390
  272BOLB   C1C 6521  12.070  28.250  19.530
  272BOLB   C2C 6522  12.290  27.930  19.360
  272BOLB   C3C 6523  12.510  27.720  19.090
  272BOLB   C4C 6524  12.900  27.490  18.830
  272BOLB   C1D 6525  12.080  28.700  19.230
  272BOLB   C2D 6526  12.220  28.320  19.070
  272BOLB   C3D 6527  12.150  28.070  18.900
  272BOLB   C4D 6528  12.230  27.940  18.470
  273BOLB   NC1 6529  17.450  13.830  16.150
  273BOLB   PO1 6530  17.670  13.430  16.360
  273BOLB   GL1 6531  17.830  13.020  16.590
  273BOLB   GL2 6532  17.530  12.920  16.840
  273BOLB   C1A 6533  18.020  12.600  16.780
  273BOLB   C2A 6534  18.240  12.260  16.840
  273BOLB   C3A 6535  18.420  11.830  16.890
  273BOLB   C4A 6536  18.550  11.510  17.280
  273BOLB   C1B 6537  17.580  12.530  17.020
  273BOLB   C2B 6538  17.810  12.310  17.160
  273BOLB   C3B 6539  18.140  11.960  17.290
  273BOLB   C4B 6540  18.250  11.630  17.720
  273BOLB   NC2 6541  19.980   9.690  18.050
  273BOLB   PO2 6542  19.740   9.570  18.430
  273BOLB   GL3 6543  19.440   9.940  18.200
  273BOLB   GL4 6544  19.190   9.880  17.880
  273BOLB   C1C 6545  19.440  10.340  18.200
  273BOLB   C2C 6546  19.310  10.720  17.970
  273BOLB   C3C 6547  19.050  11.130  17.760
  273BOLB   C4C 6548  18.800  11.370  17.590
  273BOLB   C1D 6549  18.800  10.040  17.620
  273BOLB   C2D 6550  18.630  10.200  17.240
  273BOLB   C3D 6551  18.280  10.410  17.170
  273BOLB   C4D 6552  17.920  10.330  17.220
  274BOLB   NC1 6553  17.470  29.260  16.110
  274BOLB   PO1 6554  17.100  28.930  15.860
  274BOLB   GL1 6555  16.740  29.230  15.930
  274BOLB   GL2 6556  16.910  29.340  16.160
  274BOLB   C1A 6557  16.540  29.730  16.090
  274BOLB   C2A 6558  16.360  29.970  16.390
  274BOLB   C3A 6559  16.210  30.300  16.590
  274BOLB   C4A 6560  16.020  30.590  16.580
  274BOLB   C1B 6561  16.760  29.600  16.500
  274BOLB   C2B 6562  16.460  29.730  16.790
  274BOLB   C3B 6563  16.110  29.950  16.950
  274BOLB   C4B 6564  15.740  30.260  16.920
  274BOLB   NC2 6565  15.480  32.810  16.920
  274BOLB   PO2 6566  15.480  32.950  17.360
  274BOLB   GL3 6567  15.800  32.600  17.430
  274BOLB   GL4 6568  15.870  32.620  17.150
  274BOLB   C1C 6569  15.950  32.160  17.360
  274BOLB   C2C 6570  15.920  31.790  17.170
  274BOLB   C3C 6571  15.880  31.310  17.010
  274BOLB   C4C 6572  15.800  30.850  16.840
  274BOLB   C1D 6573  16.260  32.400  17.030
  274BOLB   C2D 6574  16.390  32.010  17.040
  274BOLB   C3D 6575  16.280  31.660  16.820
  274BOLB   C4D 6576  16.440  31.260  16.930
  275BOLB   NC1 6577   9.560  19.940  16.980
  275BOLB   PO1 6578   9.980  19.850  17.110
  275BOLB   GL1 6579   9.660  20.090  17.440
  275BOLB   GL2 6580   9.380  20.050  17.430
  275BOLB   C1A 6581   9.540  20.320  17.800
  275BOLB   C2A 6582   9.440  20.460  18.240
  275BOLB   C3A 6583   9.340  20.820  18.440
  275BOLB   C4A 6584   9.150  21.190  18.650
  275BOLB   C1B 6585   8.970  20.020  17.580
  275BOLB   C2B 6586   8.900  19.970  18.130
  275BOLB   C3B 6587   8.460  19.890  18.340
  275BOLB   C4B 6588   8.020  19.750  18.350
  275BOLB   NC2 6589   7.050  21.010  20.030
  275BOLB   PO2 6590   7.350  21.450  19.840
  275BOLB   GL3 6591   7.550  21.550  19.360
  275BOLB   GL4 6592   7.230  21.680  19.140
  275BOLB   C1C 6593   7.830  21.730  19.020
  275BOLB   C2C 6594   8.240  21.590  18.830
  275BOLB   C3C 6595   8.580  21.460  18.790
  275BOLB   C4C 6596   8.960  21.460  18.950
  275BOLB   C1D 6597   7.390  21.490  18.810
  275BOLB   C2D 6598   7.770  21.560  18.500
  275BOLB   C3D 6599   8.090  21.470  18.140
  275BOLB   C4D 6600   8.090  21.160  17.890
  276BOLB   NC1 6601  20.180  19.690  20.160
  276BOLB   PO1 6602  19.760  19.450  20.260
  276BOLB   GL1 6603  19.930  19.340  20.640
  276BOLB   GL2 6604  20.180  19.660  20.670
  276BOLB   C1A 6605  19.720  19.180  21.030
  276BOLB   C2A 6606  19.580  19.430  21.510
  276BOLB   C3A 6607  19.600  19.680  21.920
  276BOLB   C4A 6608  19.680  19.640  22.280
  276BOLB   C1B 6609  20.410  19.310  20.830
  276BOLB   C2B 6610  20.620  19.240  21.120
  276BOLB   C3B 6611  20.830  19.070  21.490
  276BOLB   C4B 6612  21.180  19.000  21.620
  276BOLB   NC2 6613  20.670  20.010  24.480
  276BOLB   PO2 6614  20.280  19.960  24.300
  276BOLB   GL3 6615  20.310  20.270  24.070
  276BOLB   GL4 6616  20.280  20.580  24.130
  276BOLB   C1C 6617  20.120  20.310  23.650
  276BOLB   C2C 6618  19.810  20.320  23.330
  276BOLB   C3C 6619  19.720  20.050  23.110
  276BOLB   C4C 6620  19.660  19.620  22.830
  276BOLB   C1D 6621  20.060  20.730  23.850
  276BOLB   C2D 6622  20.180  21.110  23.490
  276BOLB   C3D 6623  20.080  21.230  23.140
  276BOLB   C4D 6624  20.150  21.260  22.610
  277BOLB   NC1 6625   9.380  18.330  16.770
  277BOLB   PO1 6626   9.660  18.520  17.120
  277BOLB   GL1 6627   9.310  18.420  17.300
  277BOLB   GL2 6628   9.130  18.040  17.380
  277BOLB   C1A 6629   8.890  18.470  17.640
  277BOLB   C2A 6630   8.610  18.310  17.910
  277BOLB   C3A 6631   8.530  17.900  17.920
  277BOLB   C4A 6632   8.250  17.630  17.780
  277BOLB   C1B 6633   8.990  17.720  17.770
  277BOLB   C2B 6634   8.760  17.490  17.940
  277BOLB   C3B 6635   8.660  17.200  17.830
  277BOLB   C4B 6636   8.400  16.910  17.560
  277BOLB   NC2 6637   6.180  16.110  18.120
  277BOLB   PO2 6638   6.430  16.520  18.000
  277BOLB   GL3 6639   6.680  16.730  17.740
  277BOLB   GL4 6640   6.380  16.760  17.570
  277BOLB   C1C 6641   7.010  16.890  17.530
  277BOLB   C2C 6642   7.120  17.220  17.420
  277BOLB   C3C 6643   7.510  17.410  17.440
  277BOLB   C4C 6644   8.010  17.440  17.500
  277BOLB   C1D 6645   6.600  16.940  17.260
  277BOLB   C2D 6646   7.000  17.030  17.000
  277BOLB   C3D 6647   7.370  17.210  16.900
  277BOLB   C4D 6648   7.760  17.480  16.790
  278BOLB   NC1 6649  22.360  20.830  19.100
  278BOLB   PO1 6650  22.720  20.800  19.230
  278BOLB   GL1 6651  22.820  20.800  19.680
  278BOLB   GL2 6652  23.040  20.590  19.630
  278BOLB   C1A 6653  22.990  20.960  20.170
  278BOLB   C2A 6654  23.340  21.120  20.390
  278BOLB   C3A 6655  23.850  21.150  20.530
  278BOLB   C4A 6656  24.240  21.000  20.670
  278BOLB   C1B 6657  23.480  20.380  19.770
  278BOLB   C2B 6658  23.780  20.280  20.140
  278BOLB   C3B 6659  24.010  19.970  20.220
  278BOLB   C4B 6660  24.400  19.690  20.040
  278BOLB   NC2 6661  25.450  20.690  22.710
  278BOLB   PO2 6662  25.580  20.390  22.520
  278BOLB   GL3 6663  25.630  20.280  21.950
  278BOLB   GL4 6664  25.500  19.950  21.840
  278BOLB   C1C 6665  25.490  20.350  21.550
  278BOLB   C2C 6666  25.240  20.370  21.210
  278BOLB   C3C 6667  24.820  20.440  21.060
  278BOLB   C4C 6668  24.600  20.780  20.830
  278BOLB   C1D 6669  25.090  20.020  21.550
  278BOLB   C2D 6670  24.630  20.150  21.400
  278BOLB   C3D 6671  24.210  20.400  21.280
  278BOLB   C4D 6672  23.900  20.700  21.000
  279BOLB   NC1 6673  23.190  17.240  16.410
  279BOLB   PO1 6674  23.120  16.850  16.170
  279BOLB   GL1 6675  23.330  16.520  16.480
  279BOLB   GL2 6676  23.280  16.210  16.260
  279BOLB   C1A 6677  23.560  16.160  16.730
  279BOLB   C2A 6678  23.650  15.890  17.040
  279BOLB   C3A 6679  23.880  15.570  17.230
  279BOLB   C4A 6680  24.190  15.490  17.560
  279BOLB   C1B 6681  23.570  15.970  16.050
  279BOLB   C2B 6682  23.610  15.500  16.160
  279BOLB   C3B 6683  23.690  15.160  16.420
  279BOLB   C4B 6684  24.060  14.810  16.530
  279BOLB   NC2 6685  26.550  14.730  18.090
  279BOLB   PO2 6686  26.400  15.040  18.170
  279BOLB   GL3 6687  26.070  15.240  17.860
  279BOLB   GL4 6688  26.040  15.450  18.070
  279BOLB   C1C 6689  25.660  15.300  17.640
  279BOLB   C2C 6690  25.430  15.610  17.600
  279BOLB   C3C 6691  24.940  15.700  17.460
  279BOLB   C4C 6692  24.550  15.640  17.420
  279BOLB   C1D 6693  25.970  15.760  17.790
  279BOLB   C2D 6694  25.480  16.090  17.720
  279BOLB   C3D 6695  25.100  16.210  17.640
  279BOLB   C4D 6696  24.900  16.430  17.270
  280BOLB   NC1 6697  21.360  24.990  20.020
  280BOLB   PO1 6698  21.780  24.830  19.940
  280BOLB   GL1 6699  21.880  24.930  20.220
  280BOLB   GL2 6700  21.670  24.850  20.430
  280BOLB   C1A 6701  22.290  24.960  20.310
  280BOLB   C2A 6702  22.560  24.940  20.630
  280BOLB   C3A 6703  22.750  24.970  21.000
  280BOLB   C4A 6704  22.830  24.870  21.450
  280BOLB   C1B 6705  21.680  25.030  20.830
  280BOLB   C2B 6706  21.650  25.150  21.290
  280BOLB   C3B 6707  21.840  25.190  21.600
  280BOLB   C4B 6708  21.970  25.060  22.020
  280BOLB   NC2 6709  22.980  24.170  24.020
  280BOLB   PO2 6710  23.320  24.400  23.850
  280BOLB   GL3 6711  23.130  24.420  23.400
  280BOLB   GL4 6712  23.440  24.510  23.300
  280BOLB   C1C 6713  23.100  24.260  23.010
  280BOLB   C2C 6714  23.020  24.530  22.560
  280BOLB   C3C 6715  22.800  24.760  22.360
  280BOLB   C4C 6716  22.730  24.830  21.950
  280BOLB   C1D 6717  23.420  24.620  22.940
  280BOLB   C2D 6718  23.630  24.660  22.470
  280BOLB   C3D 6719  23.740  24.900  22.120
  280BOLB   C4D 6720  23.540  25.140  21.880
  281BOLB   NC1 6721  14.980  25.010  23.570
  281BOLB   PO1 6722  14.540  25.220  23.350
  281BOLB   GL1 6723  14.290  25.010  22.960
  281BOLB   GL2 6724  14.610  25.050  22.840
  281BOLB   C1A 6725  14.250  24.690  22.720
  281BOLB   C2A 6726  14.390  24.270  22.560
  281BOLB   C3A 6727  14.510  23.960  22.230
  281BOLB   C4A 6728  14.510  23.580  21.960
  281BOLB   C1B 6729  14.820  24.730  22.560
  281BOLB   C2B 6730  15.220  24.550  22.370
  281BOLB   C3B 6731  15.570  24.780  22.180
  281BOLB   C4B 6732  15.920  24.880  21.880
  281BOLB   NC2 6733  15.100  23.990  19.230
  281BOLB   PO2 6734  15.040  23.570  19.400
  281BOLB   GL3 6735  14.730  23.450  19.730
  281BOLB   GL4 6736  14.660  23.070  19.780
  281BOLB   C1C 6737  14.640  23.580  20.230
  281BOLB   C2C 6738  14.470  23.730  20.620
  281BOLB   C3C 6739  14.420  23.730  21.080
  281BOLB   C4C 6740  14.430  23.600  21.490
  281BOLB   C1D 6741  14.340  23.170  20.080
  281BOLB   C2D 6742  14.010  23.210  20.350
  281BOLB   C3D 6743  13.790  23.210  20.750
  281BOLB   C4D 6744  13.490  23.050  21.070
  282BOLB   NC1 6745  21.830  16.070  17.770
  282BOLB   PO1 6746  22.120  16.270  17.480
  282BOLB   GL1 6747  22.470  16.290  17.770
  282BOLB   GL2 6748  22.460  16.100  18.070
  282BOLB   C1A 6749  22.710  16.520  18.140
  282BOLB   C2A 6750  22.870  16.210  18.440
  282BOLB   C3A 6751  23.060  15.860  18.690
  282BOLB   C4A 6752  22.900  15.560  18.960
  282BOLB   C1B 6753  22.400  15.790  17.970
  282BOLB   C2B 6754  22.540  15.390  18.010
  282BOLB   C3B 6755  22.660  14.940  18.220
  282BOLB   C4B 6756  22.810  14.810  18.560
  282BOLB   NC2 6757  24.050  14.070  21.090
  282BOLB   PO2 6758  24.030  14.530  21.020
  282BOLB   GL3 6759  23.830  14.700  20.650
  282BOLB   GL4 6760  24.050  14.860  20.510
  282BOLB   C1C 6761  23.580  14.820  20.320
  282BOLB   C2C 6762  23.490  15.010  19.890
  282BOLB   C3C 6763  23.210  14.980  19.530
  282BOLB   C4C 6764  23.130  15.250  19.160
  282BOLB   C1D 6765  23.810  15.290  20.440
  282BOLB   C2D 6766  23.630  15.780  20.410
  282BOLB   C3D 6767  23.460  16.080  20.080
  282BOLB   C4D 6768  23.450  16.320  19.730
  283BOLB   NC1 6769  13.920  14.410  17.630
  283BOLB   PO1 6770  14.120  14.330  17.920
  283BOLB   GL1 6771  14.230  13.950  18.020
  283BOLB   GL2 6772  14.180  13.720  17.810
  283BOLB   C1A 6773  14.490  13.650  18.290
  283BOLB   C2A 6774  14.730  13.670  18.650
  283BOLB   C3A 6775  14.900  13.450  18.940
  283BOLB   C4A 6776  15.000  13.040  19.210
  283BOLB   C1B 6777  14.050  13.560  18.230
  283BOLB   C2B 6778  13.950  13.240  18.650
  283BOLB   C3B 6779  13.750  13.020  18.910
  283BOLB   C4B 6780  13.430  12.850  19.100
  283BOLB   NC2 6781  15.320  10.500  20.140
  283BOLB   PO2 6782  15.530  10.740  20.310
  283BOLB   GL3 6783  15.560  11.020  20.040
  283BOLB   GL4 6784  15.940  11.030  19.950
  283BOLB   C1C 6785  15.510  11.520  20.020
  283BOLB   C2C 6786  15.280  11.890  19.890
  283BOLB   C3C 6787  15.230  12.320  19.690
  283BOLB   C4C 6788  15.120  12.690  19.490
  283BOLB   C1D 6789  16.170  10.950  19.630
  283BOLB   C2D 6790  16.510  10.940  19.300
  283BOLB   C3D 6791  16.780  10.790  18.990
  283BOLB   C4D 6792  17.170  10.960  18.980
  284BOLB   NC1 6793  17.190  12.360  10.150
  284BOLB   PO1 6794  17.450  12.630   9.850
  284BOLB   GL1 6795  17.490  12.150   9.800
  284BOLB   GL2 6796  17.420  12.100   9.560
  284BOLB   C1A 6797  17.820  11.920  10.020
  284BOLB   C2A 6798  17.700  11.520  10.150
  284BOLB   C3A 6799  17.570  11.070  10.280
  284BOLB   C4A 6800  17.690  10.790  10.550
  284BOLB   C1B 6801  17.500  11.680   9.650
  284BOLB   C2B 6802  17.950  11.590   9.660
  284BOLB   C3B 6803  18.030  11.240   9.440
  284BOLB   C4B 6804  18.510  11.410   9.250
  284BOLB   NC2 6805  18.510   8.380  10.310
  284BOLB   PO2 6806  18.120   8.530  10.200
  284BOLB   GL3 6807  18.020   8.900  10.290
  284BOLB   GL4 6808  18.300   9.020  10.110
  284BOLB   C1C 6809  17.970   9.110  10.630
  284BOLB   C2C 6810  18.120   9.540  10.650
  284BOLB   C3C 6811  17.940  10.020  10.730
  284BOLB   C4C 6812  17.710  10.380  10.750
  284BOLB   C1D 6813  18.170   9.320  10.020
  284BOLB   C2D 6814  17.980   9.630  10.150
  284BOLB   C3D 6815  17.740  10.040   9.940
  284BOLB   C4D 6816  17.770  10.420   9.770
  285BOLB   NC1 6817  25.770  25.870  13.480
  285BOLB   PO1 6818  25.770  25.810  13.060
  285BOLB   GL1 6819  26.120  25.850  13.010
  285BOLB   GL2 6820  26.360  25.660  12.840
  285BOLB   C1A 6821  26.480  25.890  13.300
  285BOLB   C2A 6822  26.880  25.820  13.320
  285BOLB   C3A 6823  27.260  25.940  13.090
  285BOLB   C4A 6824  27.650  26.050  13.110
  285BOLB   C1B 6825  26.730  25.830  12.760
  285BOLB   C2B 6826  27.170  26.080  12.600
  285BOLB   C3B 6827  27.290  26.260  12.270
  285BOLB   C4B 6828  27.420  26.650  12.190
  285BOLB   NC2 6829  29.750  26.950  12.620
  285BOLB   PO2 6830  29.950  26.500  12.750
  285BOLB   GL3 6831  29.510  26.360  12.720
  285BOLB   GL4 6832  29.490  26.550  12.460
  285BOLB   C1C 6833  29.120  26.090  12.920
  285BOLB   C2C 6834  28.750  26.070  12.730
  285BOLB   C3C 6835  28.360  26.070  12.860
  285BOLB   C4C 6836  28.010  25.940  13.080
  285BOLB   C1D 6837  29.030  26.550  12.620
  285BOLB   C2D 6838  28.690  26.880  12.600
  285BOLB   C3D 6839  28.200  26.990  12.630
  285BOLB   C4D 6840  27.780  27.040  12.350
  286BOLB   NC1 6841  26.000  22.740  16.080
  286BOLB   PO1 6842  26.040  23.030  16.340
  286BOLB   GL1 6843  26.440  22.960  16.080
  286BOLB   GL2 6844  26.730  23.200  16.070
  286BOLB   C1A 6845  26.780  22.690  16.310
  286BOLB   C2A 6846  27.050  22.490  16.240
  286BOLB   C3A 6847  27.350  22.430  16.480
  286BOLB   C4A 6848  27.510  22.040  16.500
  286BOLB   C1B 6849  27.140  23.350  16.010
  286BOLB   C2B 6850  27.620  23.350  15.960
  286BOLB   C3B 6851  27.920  23.640  15.940
  286BOLB   C4B 6852  28.170  23.900  15.730
  286BOLB   NC2 6853  29.890  21.270  17.120
  286BOLB   PO2 6854  29.940  21.790  17.070
  286BOLB   GL3 6855  29.500  21.850  17.010
  286BOLB   GL4 6856  29.570  22.060  16.750
  286BOLB   C1C 6857  29.110  21.540  16.880
  286BOLB   C2C 6858  28.780  21.740  16.650
  286BOLB   C3C 6859  28.340  21.930  16.690
  286BOLB   C4C 6860  28.020  21.820  16.530
  286BOLB   C1D 6861  29.280  21.830  16.480
  286BOLB   C2D 6862  29.160  21.920  15.970
  286BOLB   C3D 6863  28.980  22.070  15.500
  286BOLB   C4D 6864  28.800  22.500  15.520
  287BOLB   NC1 6865  15.820  22.840  19.640
  287BOLB   PO1 6866  15.540  23.040  19.910
  287BOLB   GL1 6867  15.410  23.260  20.180
  287BOLB   GL2 6868  15.100  23.270  20.120
  287BOLB   C1A 6869  15.510  23.480  20.560
  287BOLB   C2A 6870  15.380  23.480  21.030
  287BOLB   C3A 6871  15.340  23.680  21.400
  287BOLB   C4A 6872  14.950  23.670  21.700
  287BOLB   C1B 6873  15.020  23.350  20.470
  287BOLB   C2B 6874  14.860  23.390  20.850
  287BOLB   C3B 6875  14.860  23.540  21.220
  287BOLB   C4B 6876  14.890  24.030  21.360
  287BOLB   NC2 6877  14.130  23.660  23.700
  287BOLB   PO2 6878  14.410  24.030  23.770
  287BOLB   GL3 6879  14.500  24.270  23.520
  287BOLB   GL4 6880  14.850  24.220  23.400
  287BOLB   C1C 6881  14.530  24.360  23.030
  287BOLB   C2C 6882  14.830  24.330  22.790
  287BOLB   C3C 6883  14.950  23.950  22.520
  287BOLB   C4C 6884  15.000  23.810  22.070
  287BOLB   C1D 6885  14.940  23.900  23.140
  287BOLB   C2D 6886  15.030  23.630  22.900
  287BOLB   C3D 6887  15.170  23.430  22.570
  287BOLB   C4D 6888  15.180  23.050  22.350
  288BOLB   NC1 6889  14.130  17.390  19.730
  288BOLB   PO1 6890  14.150  17.580  20.090
  288BOLB   GL1 6891  14.290  17.810  20.410
  288BOLB   GL2 6892  14.460  17.690  20.610
  288BOLB   C1A 6893  14.220  18.170  20.760
  288BOLB   C2A 6894  14.140  18.390  21.160
  288BOLB   C3A 6895  13.930  18.570  21.580
  288BOLB   C4A 6896  13.870  18.760  22.040
  288BOLB   C1B 6897  14.160  17.630  20.860
  288BOLB   C2B 6898  13.890  17.890  21.070
  288BOLB   C3B 6899  13.720  18.120  21.390
  288BOLB   C4B 6900  13.410  18.450  21.470
  288BOLB   NC2 6901  13.220  17.050  23.210
  288BOLB   PO2 6902  13.350  17.290  23.620
  288BOLB   GL3 6903  13.320  17.570  23.170
  288BOLB   GL4 6904  13.390  17.410  22.820
  288BOLB   C1C 6905  13.170  17.880  22.840
  288BOLB   C2C 6906  13.080  18.330  22.610
  288BOLB   C3C 6907  13.270  18.730  22.600
  288BOLB   C4C 6908  13.440  18.860  22.280
  288BOLB   C1D 6909  13.760  17.390  22.870
  288BOLB   C2D 6910  14.070  17.630  22.830
  288BOLB   C3D 6911  14.440  17.400  22.940
  288BOLB   C4D 6912  14.790  17.390  23.310
  289BOLB   NC1 6913  21.410  18.440   7.480
  289BOLB   PO1 6914  21.490  18.380   7.080
  289BOLB   GL1 6915  21.610  18.320   6.570
  289BOLB   GL2 6916  21.710  18.520   6.390
  289BOLB   C1A 6917  21.690  17.970   6.280
  289BOLB   C2A 6918  21.800  17.790   5.850
  289BOLB   C3A 6919  22.080  17.610   5.510
  289BOLB   C4A 6920  22.160  17.360   5.160
  289BOLB   C1B 6921  21.900  18.300   6.010
  289BOLB   C2B 6922  22.180  18.120   5.730
  289BOLB   C3B 6923  22.700  18.290   5.720
  289BOLB   C4B 6924  22.940  18.430   5.400
  289BOLB   NC2 6925  21.740  16.120   2.500
  289BOLB   PO2 6926  21.700  16.080   2.960
  289BOLB   GL3 6927  21.800  16.300   3.340
  289BOLB   GL4 6928  21.830  16.100   3.690
  289BOLB   C1C 6929  21.950  16.640   3.710
  289BOLB   C2C 6930  21.770  16.840   4.080
  289BOLB   C3C 6931  21.710  17.010   4.520
  289BOLB   C4C 6932  21.950  17.280   4.750
  289BOLB   C1D 6933  21.480  16.430   3.800
  289BOLB   C2D 6934  21.350  16.540   4.090
  289BOLB   C3D 6935  21.020  16.630   4.260
  289BOLB   C4D 6936  20.560  16.770   4.310
  290BOLB   NC1 6937  25.900  21.490  12.630
  290BOLB   PO1 6938  25.930  21.580  12.980
  290BOLB   GL1 6939  26.380  21.460  12.850
  290BOLB   GL2 6940  26.600  21.680  12.780
  290BOLB   C1A 6941  26.780  21.170  13.040
  290BOLB   C2A 6942  27.160  20.930  12.890
  290BOLB   C3A 6943  27.520  20.690  12.780
  290BOLB   C4A 6944  27.740  20.500  12.480
  290BOLB   C1B 6945  27.070  21.640  12.780
  290BOLB   C2B 6946  27.510  21.360  12.840
  290BOLB   C3B 6947  27.860  21.070  12.710
  290BOLB   C4B 6948  28.240  20.910  12.700
  290BOLB   NC2 6949  30.000  19.570  12.260
  290BOLB   PO2 6950  29.800  19.910  12.420
  290BOLB   GL3 6951  29.430  20.030  12.370
  290BOLB   GL4 6952  29.350  20.290  12.110
  290BOLB   C1C 6953  29.050  19.930  12.310
  290BOLB   C2C 6954  28.640  19.980  12.120
  290BOLB   C3C 6955  28.320  20.220  12.100
  290BOLB   C4C 6956  27.970  20.320  12.120
  290BOLB   C1D 6957  29.110  20.120  11.690
  290BOLB   C2D 6958  28.710  19.900  11.650
  290BOLB   C3D 6959  28.350  19.670  11.860
  290BOLB   C4D 6960  27.970  19.810  12.220
  291BOLB   NC1 6961  16.280  15.790  18.370
  291BOLB   PO1 6962  16.260  15.610  18.780
  291BOLB   GL1 6963  16.120  15.410  19.190
  291BOLB   GL2 6964  15.750  15.340  19.230
  291BOLB   C1A 6965  16.190  15.220  19.610
  291BOLB   C2A 6966  16.360  15.210  19.980
  291BOLB   C3A 6967  16.620  15.110  20.380
  291BOLB   C4A 6968  16.910  14.760  20.670
  291BOLB   C1B 6969  15.670  15.170  19.640
  291BOLB   C2B 6970  15.820  14.950  19.980
  291BOLB   C3B 6971  16.110  14.830  20.320
  291BOLB   C4B 6972  16.320  14.590  20.620
  291BOLB   NC2 6973  16.870  14.110  23.030
  291BOLB   PO2 6974  16.990  13.830  22.680
  291BOLB   GL3 6975  16.920  14.210  22.540
  291BOLB   GL4 6976  16.640  14.100  22.300
  291BOLB   C1C 6977  16.680  14.620  22.440
  291BOLB   C2C 6978  16.770  14.750  22.040
  291BOLB   C3C 6979  16.740  14.610  21.610
  291BOLB   C4C 6980  16.850  14.520  21.160
  291BOLB   C1D 6981  16.540  14.310  21.980
  291BOLB   C2D 6982  16.300  14.460  21.760
  291BOLB   C3D 6983  16.350  14.430  21.350
  291BOLB   C4D 6984  16.440  14.760  21.070
  292BOLB   NC1 6985  19.670  18.140  19.770
  292BOLB   PO1 6986  19.730  17.790  19.430
  292BOLB   GL1 6987  19.970  17.660  19.750
  292BOLB   GL2 6988  19.750  17.450  19.930
  292BOLB   C1A 6989  20.230  17.730  20.090
  292BOLB   C2A 6990  20.430  17.490  20.440
  292BOLB   C3A 6991  20.510  17.220  20.780
  292BOLB   C4A 6992  20.610  16.770  21.030
  292BOLB   C1B 6993  19.910  17.430  20.370
  292BOLB   C2B 6994  20.140  17.110  20.510
  292BOLB   C3B 6995  20.320  16.750  20.420
  292BOLB   C4B 6996  20.670  16.500  20.600
  292BOLB   NC2 6997  21.390  16.180  22.900
  292BOLB   PO2 6998  21.300  15.710  22.830
  292BOLB   GL3 6999  21.570  15.830  22.420
  292BOLB   GL4 7000  21.400  16.130  22.320
  292BOLB   C1C 7001  21.510  15.640  21.890
  292BOLB   C2C 7002  21.400  15.940  21.640
  292BOLB   C3C 7003  21.250  16.250  21.350
  292BOLB   C4C 7004  21.000  16.500  21.150
  292BOLB   C1D 7005  21.130  16.330  22.010
  292BOLB   C2D 7006  20.840  16.290  21.670
  292BOLB   C3D 7007  20.540  16.120  21.320
  292BOLB   C4D 7008  20.360  16.320  20.980
  293BOLB   NC1 7009  24.450  17.120  11.220
  293BOLB   PO1 7010  24.640  17.180  11.640
  293BOLB   GL1 7011  24.950  17.010  11.590
  293BOLB   GL2 7012  25.020  17.060  11.230
  293BOLB   C1A 7013  25.300  16.740  11.700
  293BOLB   C2A 7014  25.610  16.450  11.610
  293BOLB   C3A 7015  25.940  16.200  11.680
  293BOLB   C4A 7016  26.310  16.070  11.810
  293BOLB   C1B 7017  25.490  16.950  11.080
  293BOLB   C2B 7018  25.850  16.870  10.900
  293BOLB   C3B 7019  25.850  16.520  11.050
  293BOLB   C4B 7020  25.980  16.100  11.160
  293BOLB   NC2 7021  28.630  16.380  12.240
  293BOLB   PO2 7022  28.590  16.600  12.620
  293BOLB   GL3 7023  28.240  16.560  12.430
  293BOLB   GL4 7024  27.940  16.650  12.530
  293BOLB   C1C 7025  27.850  16.750  12.050
  293BOLB   C2C 7026  27.450  16.700  12.090
  293BOLB   C3C 7027  27.100  16.430  12.160
  293BOLB   C4C 7028  26.640  16.180  12.070
  293BOLB   C1D 7029  27.680  16.900  12.520
  293BOLB   C2D 7030  27.410  17.190  12.580
  293BOLB   C3D 7031  27.100  17.410  12.740
  293BOLB   C4D 7032  26.880  17.720  13.080
  294BOLB   NC1 7033  17.770  13.920  17.660
  294BOLB   PO1 7034  17.710  14.410  17.710
  294BOLB   GL1 7035  17.670  14.150  18.160
  294BOLB   GL2 7036  17.640  13.760  18.160
  294BOLB   C1A 7037  17.760  14.080  18.510
  294BOLB   C2A 7038  17.810  13.840  18.910
  294BOLB   C3A 7039  17.860  13.600  19.230
  294BOLB   C4A 7040  17.650  13.220  19.490
  294BOLB   C1B 7041  17.800  13.530  18.490
  294BOLB   C2B 7042  18.220  13.280  18.570
  294BOLB   C3B 7043  18.530  12.980  18.780
  294BOLB   C4B 7044  18.890  12.770  18.800
  294BOLB   NC2 7045  17.100  12.020  21.760
  294BOLB   PO2 7046  17.420  12.290  21.790
  294BOLB   GL3 7047  17.700  12.430  21.440
  294BOLB   GL4 7048  17.540  12.670  21.380
  294BOLB   C1C 7049  17.760  12.640  20.950
  294BOLB   C2C 7050  17.600  12.710  20.590
  294BOLB   C3C 7051  17.390  12.840  20.150
  294BOLB   C4C 7052  17.430  13.070  19.770
  294BOLB   C1D 7053  17.860  12.950  21.310
  294BOLB   C2D 7054  17.900  13.150  20.910
  294BOLB   C3D 7055  17.660  13.350  20.720
  294BOLB   C4D 7056  17.380  13.540  20.690
  295BOLB   NC1 7057  22.750  18.640  18.030
  295BOLB   PO1 7058  23.030  18.870  18.290
  295BOLB   GL1 7059  23.310  18.470  18.560
  295BOLB   GL2 7060  23.660  18.440  18.450
  295BOLB   C1A 7061  23.410  18.230  18.880
  295BOLB   C2A 7062  23.580  18.020  19.140
  295BOLB   C3A 7063  23.660  17.790  19.500
  295BOLB   C4A 7064  23.660  17.800  19.880
  295BOLB   C1B 7065  23.790  18.150  18.460
  295BOLB   C2B 7066  24.010  17.790  18.640
  295BOLB   C3B 7067  24.010  17.460  18.740
  295BOLB   C4B 7068  24.280  17.300  18.940
  295BOLB   NC2 7069  23.570  17.700  22.440
  295BOLB   PO2 7070  23.880  18.000  22.260
  295BOLB   GL3 7071  23.550  17.850  21.930
  295BOLB   GL4 7072  23.670  18.080  21.650
  295BOLB   C1C 7073  23.400  17.690  21.430
  295BOLB   C2C 7074  23.310  17.560  20.910
  295BOLB   C3C 7075  23.230  17.650  20.510
  295BOLB   C4C 7076  23.400  17.830  20.180
  295BOLB   C1D 7077  23.670  18.470  21.260
  295BOLB   C2D 7078  23.370  18.680  21.170
  295BOLB   C3D 7079  23.190  19.030  21.340
  295BOLB   C4D 7080  23.370  19.420  21.130
  296BOLB   NC1 7081  10.040  23.790  14.440
  296BOLB   PO1 7082   9.790  23.860  14.070
  296BOLB   GL1 7083   9.410  24.040  14.350
  296BOLB   GL2 7084   9.040  23.840  14.300
  296BOLB   C1A 7085   9.270  24.320  14.610
  296BOLB   C2A 7086   9.020  24.400  14.910
  296BOLB   C3A 7087   8.670  24.510  15.120
  296BOLB   C4A 7088   8.300  24.740  15.380
  296BOLB   C1B 7089   8.810  24.150  14.370
  296BOLB   C2B 7090   8.370  24.180  14.250
  296BOLB   C3B 7091   8.010  24.390  14.480
  296BOLB   C4B 7092   7.520  24.420  14.520
  296BOLB   NC2 7093   5.660  25.410  15.870
  296BOLB   PO2 7094   6.030  25.240  16.120
  296BOLB   GL3 7095   6.500  25.230  16.100
  296BOLB   GL4 7096   6.740  25.400  16.350
  296BOLB   C1C 7097   6.920  25.130  15.900
  296BOLB   C2C 7098   7.280  25.250  15.730
  296BOLB   C3C 7099   7.620  25.000  15.410
  296BOLB   C4C 7100   7.990  24.950  15.450
  296BOLB   C1D 7101   6.860  25.040  16.570
  296BOLB   C2D 7102   7.210  24.750  16.520
  296BOLB   C3D 7103   7.580  24.620  16.210
  296BOLB   C4D 7104   8.060  24.400  16.210
  297BOLB   NC1 7105  26.250  21.920  14.780
  297BOLB   PO1 7106  26.240  21.950  15.200
  297BOLB   GL1 7107  26.490  21.610  15.110
  297BOLB   GL2 7108  26.680  21.640  14.760
  297BOLB   C1A 7109  26.790  21.360  15.270
  297BOLB   C2A 7110  27.190  21.210  15.260
  297BOLB   C3A 7111  27.450  20.930  15.220
  297BOLB   C4A 7112  27.740  20.690  15.520
  297BOLB   C1B 7113  27.000  21.460  14.830
  297BOLB   C2B 7114  27.390  21.390  14.690
  297BOLB   C3B 7115  27.840  21.320  14.760
  297BOLB   C4B 7116  28.320  21.320  14.480
  297BOLB   NC2 7117  30.210  20.250  15.060
  297BOLB   PO2 7118  30.000  19.850  15.340
  297BOLB   GL3 7119  29.630  20.010  15.330
  297BOLB   GL4 7120  29.600  20.290  15.130
  297BOLB   C1C 7121  29.310  20.050  15.590
  297BOLB   C2C 7122  28.860  20.240  15.610
  297BOLB   C3C 7123  28.540  20.400  15.850
  297BOLB   C4C 7124  28.120  20.500  15.690
  297BOLB   C1D 7125  29.250  20.230  15.140
  297BOLB   C2D 7126  28.850  20.230  14.930
  297BOLB   C3D 7127  28.460  20.480  14.910
  297BOLB   C4D 7128  28.220  20.830  14.680
  298BOLB   NC1 7129  15.970  23.990  19.660
  298BOLB   PO1 7130  15.780  24.360  19.760
  298BOLB   GL1 7131  15.570  24.200  20.070
  298BOLB   GL2 7132  15.870  24.310  20.340
  298BOLB   C1A 7133  15.170  24.330  20.120
  298BOLB   C2A 7134  14.810  24.290  20.420
  298BOLB   C3A 7135  14.490  24.430  20.540
  298BOLB   C4A 7136  14.330  24.570  20.880
  298BOLB   C1B 7137  15.890  24.600  20.670
  298BOLB   C2B 7138  16.090  24.630  21.040
  298BOLB   C3B 7139  15.930  24.950  21.350
  298BOLB   C4B 7140  15.570  25.050  21.550
  298BOLB   NC2 7141  13.290  25.750  23.000
  298BOLB   PO2 7142  13.370  26.000  22.500
  298BOLB   GL3 7143  13.620  26.040  22.160
  298BOLB   GL4 7144  13.920  25.990  22.300
  298BOLB   C1C 7145  13.710  25.950  21.840
  298BOLB   C2C 7146  13.890  25.620  21.530
  298BOLB   C3C 7147  14.100  25.310  21.270
  298BOLB   C4C 7148  14.260  24.870  21.190
  298BOLB   C1D 7149  14.040  25.700  22.050
  298BOLB   C2D 7150  14.240  25.340  21.940
  298BOLB   C3D 7151  14.130  24.970  21.690
  298BOLB   C4D 7152  13.790  24.790  21.350
  299BOLB   NC1 7153  12.750  22.020  18.000
  299BOLB   PO1 7154  12.720  22.040  18.510
  299BOLB   GL1 7155  12.580  22.110  18.910
  299BOLB   GL2 7156  12.650  22.380  18.970
  299BOLB   C1A 7157  12.420  22.010  19.360
  299BOLB   C2A 7158  12.230  22.100  19.720
  299BOLB   C3A 7159  12.060  22.020  20.200
  299BOLB   C4A 7160  11.990  21.890  20.700
  299BOLB   C1B 7161  12.340  22.480  19.270
  299BOLB   C2B 7162  12.360  22.700  19.670
  299BOLB   C3B 7163  12.330  22.830  20.170
  299BOLB   C4B 7164  12.630  22.900  20.480
  299BOLB   NC2 7165  10.960  22.070  22.590
  299BOLB   PO2 7166  10.540  21.880  22.470
  299BOLB   GL3 7167  10.850  21.630  22.220
  299BOLB   GL4 7168  10.820  21.580  22.040
  299BOLB   C1C 7169  11.330  21.680  22.110
  299BOLB   C2C 7170  11.520  21.710  21.610
  299BOLB   C3C 7171  11.740  21.460  21.150
  299BOLB   C4C 7172  11.790  21.860  20.980
  299BOLB   C1D 7173  11.040  21.910  21.730
  299BOLB   C2D 7174  11.310  22.240  21.460
  299BOLB   C3D 7175  11.650  22.240  21.280
  299BOLB   C4D 7176  12.000  22.450  20.960
  300BOLB   NC1 7177  15.840  18.990  20.230
  300BOLB   PO1 7178  16.080  18.550  20.280
  300BOLB   GL1 7179  16.160  18.570  20.790
  300BOLB   GL2 7180  16.380  18.270  20.610
  300BOLB   C1A 7181  16.290  18.540  21.290
  300BOLB   C2A 7182  16.560  18.370  21.640
  300BOLB   C3A 7183  16.860  18.310  21.780
  300BOLB   C4A 7184  16.840  17.970  22.120
  300BOLB   C1B 7185  16.560  18.330  20.910
  300BOLB   C2B 7186  16.770  18.040  21.380
  300BOLB   C3B 7187  16.930  17.780  21.630
  300BOLB   C4B 7188  17.140  17.590  22.030
  300BOLB   NC2 7189  17.040  16.290  23.800
  300BOLB   PO2 7190  17.110  16.190  23.470
  300BOLB   GL3 7191  17.280  16.370  23.070
  300BOLB   GL4 7192  16.930  16.500  22.960
  300BOLB   C1C 7193  17.510  16.550  22.660
  300BOLB   C2C 7194  17.630  16.990  22.550
  300BOLB   C3C 7195  17.510  17.490  22.450
  300BOLB   C4C 7196  17.180  17.830  22.500
  300BOLB   C1D 7197  16.710  16.610  22.590
  300BOLB   C2D 7198  16.360  16.430  22.430
  300BOLB   C3D 7199  16.030  16.410  22.240
  300BOLB   C4D 7200  15.790  16.090  22.170
  301BOLB   NC1 7201  24.910  26.850  11.190
  301BOLB   PO1 7202  25.140  27.080  11.070
  301BOLB   GL1 7203  25.520  27.400  10.810
  301BOLB   GL2 7204  25.650  27.610  11.060
  301BOLB   C1A 7205  25.960  27.320  10.550
  301BOLB   C2A 7206  26.300  27.250  10.480
  301BOLB   C3A 7207  26.660  27.310  10.650
  301BOLB   C4A 7208  26.880  27.670  10.850
  301BOLB   C1B 7209  25.810  27.820  10.700
  301BOLB   C2B 7210  26.140  28.240  10.480
  301BOLB   C3B 7211  26.480  28.380  10.310
  301BOLB   C4B 7212  26.690  28.180   9.980
  301BOLB   NC2 7213  28.680  29.230   9.690
  301BOLB   PO2 7214  28.300  28.900   9.420
  301BOLB   GL3 7215  27.980  28.720   9.700
  301BOLB   GL4 7216  28.010  28.430   9.680
  301BOLB   C1C 7217  27.910  28.570  10.130
  301BOLB   C2C 7218  27.510  28.410  10.360
  301BOLB   C3C 7219  27.340  28.330  10.750
  301BOLB   C4C 7220  27.210  27.960  10.930
  301BOLB   C1D 7221  27.580  28.390   9.550
  301BOLB   C2D 7222  27.190  28.400   9.370
  301BOLB   C3D 7223  26.970  28.550   9.210
  301BOLB   C4D 7224  26.990  28.710   8.780
  302BOLB   NC1 7225  19.170  28.450  16.400
  302BOLB   PO1 7226  18.960  28.800  16.750
  302BOLB   GL1 7227  18.750  29.200  17.000
  302BOLB   GL2 7228  19.000  29.370  17.310
  302BOLB   C1A 7229  18.500  29.480  17.240
  302BOLB   C2A 7230  18.380  29.890  17.420
  302BOLB   C3A 7231  18.280  30.390  17.250
  302BOLB   C4A 7232  18.450  30.770  17.230
  302BOLB   C1B 7233  18.880  29.700  17.500
  302BOLB   C2B 7234  19.030  30.020  17.590
  302BOLB   C3B 7235  18.940  30.210  18.010
  302BOLB   C4B 7236  18.720  30.500  18.190
  302BOLB   NC2 7237  18.540  32.940  17.940
  302BOLB   PO2 7238  18.070  32.950  18.140
  302BOLB   GL3 7239  18.050  32.750  17.740
  302BOLB   GL4 7240  18.400  32.770  17.500
  302BOLB   C1C 7241  18.050  32.300  17.410
  302BOLB   C2C 7242  18.000  31.820  17.410
  302BOLB   C3C 7243  18.370  31.550  17.460
  302BOLB   C4C 7244  18.410  31.130  17.490
  302BOLB   C1D 7245  18.470  32.510  17.030
  302BOLB   C2D 7246  18.620  32.190  16.730
  302BOLB   C3D 7247  18.720  31.790  16.560
  302BOLB   C4D 7248  18.830  31.310  16.620
  303BOLB   NC1 7249  25.610  20.970  16.420
  303BOLB   PO1 7250  25.380  21.290  16.630
  303BOLB   GL1 7251  25.610  21.290  16.950
  303BOLB   GL2 7252  25.870  21.100  16.950
  303BOLB   C1A 7253  25.850  21.260  17.390
  303BOLB   C2A 7254  25.920  21.420  17.720
  303BOLB   C3A 7255  26.180  21.320  18.250
  303BOLB   C4A 7256  26.220  21.520  18.680
  303BOLB   C1B 7257  26.180  20.880  17.150
  303BOLB   C2B 7258  26.460  20.810  17.490
  303BOLB   C3B 7259  26.750  20.920  17.840
  303BOLB   C4B 7260  27.080  21.180  18.010
  303BOLB   NC2 7261  27.990  20.660  20.300
  303BOLB   PO2 7262  27.870  21.050  20.220
  303BOLB   GL3 7263  27.510  20.950  19.920
  303BOLB   GL4 7264  27.380  21.260  20.080
  303BOLB   C1C 7265  27.140  21.100  19.650
  303BOLB   C2C 7266  26.970  21.430  19.460
  303BOLB   C3C 7267  26.670  21.510  19.310
  303BOLB   C4C 7268  26.380  21.580  19.050
  303BOLB   C1D 7269  27.390  21.510  19.700
  303BOLB   C2D 7270  27.500  21.840  19.400
  303BOLB   C3D 7271  27.820  21.970  19.260
  303BOLB   C4D 7272  27.980  22.450  19.250
  304BOLB   NC1 7273  17.480  18.940  20.150
  304BOLB   PO1 7274  17.900  18.940  20.210
  304BOLB   GL1 7275  18.080  18.850  20.540
  304BOLB   GL2 7276  18.320  18.530  20.420
  304BOLB   C1A 7277  18.040  18.790  21.040
  304BOLB   C2A 7278  17.890  18.910  21.450
  304BOLB   C3A 7279  17.910  18.920  21.820
  304BOLB   C4A 7280  18.150  19.180  22.040
  304BOLB   C1B 7281  18.420  18.560  20.840
  304BOLB   C2B 7282  18.410  18.590  21.290
  304BOLB   C3B 7283  18.380  18.550  21.710
  304BOLB   C4B 7284  18.120  18.310  21.900
  304BOLB   NC2 7285  19.820  18.640  23.820
  304BOLB   PO2 7286  19.310  18.450  24.020
  304BOLB   GL3 7287  19.240  18.760  23.650
  304BOLB   GL4 7288  19.150  19.150  23.680
  304BOLB   C1C 7289  19.050  18.690  23.300
  304BOLB   C2C 7290  19.070  18.930  22.900
  304BOLB   C3C 7291  18.850  19.050  22.560
  304BOLB   C4C 7292  18.550  19.140  22.270
  304BOLB   C1D 7293  18.890  19.230  23.300
  304BOLB   C2D 7294  18.670  19.260  23.030
  304BOLB   C3D 7295  18.640  19.530  22.620
  304BOLB   C4D 7296  18.540  19.670  22.160
  305BOLB   NC1 7297  16.820  12.880  15.310
  305BOLB   PO1 7298  16.760  12.560  15.060
  305BOLB   GL1 7299  16.580  12.130  15.360
  305BOLB   GL2 7300  16.250  11.930  15.290
  305BOLB   C1A 7301  16.720  11.710  15.360
  305BOLB   C2A 7302  16.800  11.530  15.760
  305BOLB   C3A 7303  16.970  11.200  15.870
  305BOLB   C4A 7304  17.140  10.990  16.270
  305BOLB   C1B 7305  16.240  11.640  15.650
  305BOLB   C2B 7306  16.320  11.190  15.850
  305BOLB   C3B 7307  16.420  10.810  15.940
  305BOLB   C4B 7308  16.510  10.370  15.950
  305BOLB   NC2 7309  16.760   9.020  17.890
  305BOLB   PO2 7310  16.920   8.810  17.520
  305BOLB   GL3 7311  16.990   9.230  17.460
  305BOLB   GL4 7312  16.670   9.360  17.510
  305BOLB   C1C 7313  17.010   9.580  17.050
  305BOLB   C2C 7314  17.240   9.900  16.770
  305BOLB   C3C 7315  17.230  10.190  16.380
  305BOLB   C4C 7316  17.290  10.580  16.190
  305BOLB   C1D 7317  16.800   9.780  17.460
  305BOLB   C2D 7318  17.010  10.120  17.170
  305BOLB   C3D 7319  17.010  10.580  17.330
  305BOLB   C4D 7320  16.960  10.980  17.200
  306BOLB   NC1 7321  22.020  23.570  19.270
  306BOLB   PO1 7322  22.200  23.400  19.680
  306BOLB   GL1 7323  22.300  23.400  20.040
  306BOLB   GL2 7324  22.120  23.230  20.270
  306BOLB   C1A 7325  22.680  23.550  20.230
  306BOLB   C2A 7326  22.860  23.850  20.550
  306BOLB   C3A 7327  22.940  24.200  20.950
  306BOLB   C4A 7328  22.950  24.470  21.210
  306BOLB   C1B 7329  22.300  23.330  20.700
  306BOLB   C2B 7330  22.410  23.370  21.200
  306BOLB   C3B 7331  22.530  23.680  21.400
  306BOLB   C4B 7332  22.540  24.080  21.290
  306BOLB   NC2 7333  22.490  23.670  23.790
  306BOLB   PO2 7334  22.460  23.680  23.330
  306BOLB   GL3 7335  22.770  23.760  23.040
  306BOLB   GL4 7336  22.740  23.390  23.010
  306BOLB   C1C 7337  23.060  23.890  22.680
  306BOLB   C2C 7338  22.950  23.930  22.270
  306BOLB   C3C 7339  22.880  24.350  22.000
  306BOLB   C4C 7340  22.810  24.370  21.610
  306BOLB   C1D 7341  22.650  23.520  22.600
  306BOLB   C2D 7342  22.490  23.600  22.160
  306BOLB   C3D 7343  22.790  23.610  21.860
  306BOLB   C4D 7344  22.960  23.850  21.610
  307BOLB   NC1 7345  13.290  14.760  18.000
  307BOLB   PO1 7346  13.410  14.960  18.310
  307BOLB   GL1 7347  13.470  14.730  18.670
  307BOLB   GL2 7348  13.570  14.520  18.560
  307BOLB   C1A 7349  13.610  14.850  19.150
  307BOLB   C2A 7350  13.390  14.880  19.530
  307BOLB   C3A 7351  13.160  14.580  19.880
  307BOLB   C4A 7352  13.100  14.150  19.910
  307BOLB   C1B 7353  13.200  14.300  18.730
  307BOLB   C2B 7354  13.240  13.900  19.020
  307BOLB   C3B 7355  13.310  13.600  19.190
  307BOLB   C4B 7356  13.660  13.340  19.270
  307BOLB   NC2 7357  12.120  13.010  22.080
  307BOLB   PO2 7358  12.380  12.860  21.740
  307BOLB   GL3 7359  12.620  13.010  21.420
  307BOLB   GL4 7360  12.360  13.210  21.240
  307BOLB   C1C 7361  12.880  13.210  21.060
  307BOLB   C2C 7362  12.840  13.530  20.770
  307BOLB   C3C 7363  12.750  13.610  20.350
  307BOLB   C4C 7364  12.790  13.830  19.990
  307BOLB   C1D 7365  12.330  13.200  20.880
  307BOLB   C2D 7366  12.190  13.380  20.530
  307BOLB   C3D 7367  12.320  13.570  20.100
  307BOLB   C4D 7368  12.340  13.890  19.820
  308BOLB   NC1 7369  13.560  20.050  19.490
  308BOLB   PO1 7370  13.100  20.000  19.290
  308BOLB   GL1 7371  12.820  20.050  19.590
  308BOLB   GL2 7372  12.530  19.810  19.540
  308BOLB   C1A 7373  12.670  19.950  20.100
  308BOLB   C2A 7374  12.400  20.040  20.430
  308BOLB   C3A 7375  12.440  20.000  20.800
  308BOLB   C4A 7376  12.440  19.870  21.210
  308BOLB   C1B 7377  12.300  19.660  19.850
  308BOLB   C2B 7378  12.020  19.560  20.240
  308BOLB   C3B 7379  11.800  19.510  20.580
  308BOLB   C4B 7380  11.410  19.640  20.860
  308BOLB   NC2 7381  11.990  20.680  23.540
  308BOLB   PO2 7382  11.600  20.620  23.330
  308BOLB   GL3 7383  11.550  20.720  22.870
  308BOLB   GL4 7384  11.240  20.680  22.700
  308BOLB   C1C 7385  11.760  20.830  22.490
  308BOLB   C2C 7386  11.850  20.600  22.140
  308BOLB   C3C 7387  11.960  20.300  21.950
  308BOLB   C4C 7388  12.200  19.940  21.700
  308BOLB   C1D 7389  11.420  20.400  22.300
  308BOLB   C2D 7390  11.570  20.100  21.880
  308BOLB   C3D 7391  11.430  19.830  21.560
  308BOLB   C4D 7392  11.480  19.920  21.240
  309BOLB   NC1 7393  18.220  13.030   9.560
  309BOLB   PO1 7394  17.930  12.750   9.570
  309BOLB   GL1 7395  17.800  12.390   9.400
  309BOLB   GL2 7396  18.050  12.280   9.600
  309BOLB   C1A 7397  17.740  11.940   9.280
  309BOLB   C2A 7398  17.660  11.520   9.190
  309BOLB   C3A 7399  17.370  11.330   8.960
  309BOLB   C4A 7400  17.240  10.900   8.730
  309BOLB   C1B 7401  18.220  11.890   9.260
  309BOLB   C2B 7402  18.170  11.690   8.910
  309BOLB   C3B 7403  18.100  11.230   8.880
  309BOLB   C4B 7404  17.720  11.040   8.890
  309BOLB   NC2 7405  15.340   8.980   8.310
  309BOLB   PO2 7406  15.790   9.090   8.080
  309BOLB   GL3 7407  15.950   9.180   8.490
  309BOLB   GL4 7408  15.860   8.980   8.800
  309BOLB   C1C 7409  16.240   9.460   8.600
  309BOLB   C2C 7410  16.570   9.650   8.850
  309BOLB   C3C 7411  16.820  10.020   8.850
  309BOLB   C4C 7412  17.080  10.440   8.690
  309BOLB   C1D 7413  16.210   9.180   9.040
  309BOLB   C2D 7414  16.420   9.400   9.320
  309BOLB   C3D 7415  16.590   9.630   9.720
  309BOLB   C4D 7416  16.930   9.920   9.780
  310BOLB   NC1 7417  18.140  29.300  16.220
  310BOLB   PO1 7418  18.120  29.750  16.100
  310BOLB   GL1 7419  18.150  29.790  16.530
  310BOLB   GL2 7420  18.270  30.090  16.490
  310BOLB   C1A 7421  18.040  30.050  16.960
  310BOLB   C2A 7422  17.720  30.270  17.130
  310BOLB   C3A 7423  17.610  30.520  17.460
  310BOLB   C4A 7424  17.740  30.540  17.960
  310BOLB   C1B 7425  18.200  30.510  16.310
  310BOLB   C2B 7426  17.840  30.750  16.280
  310BOLB   C3B 7427  17.740  31.150  15.950
  310BOLB   C4B 7428  17.380  31.520  15.910
  310BOLB   NC2 7429  17.250  31.660  19.680
  310BOLB   PO2 7430  17.550  31.540  20.010
  310BOLB   GL3 7431  17.650  31.350  19.670
  310BOLB   GL4 7432  17.550  31.090  19.860
  310BOLB   C1C 7433  17.910  31.220  19.460
  310BOLB   C2C 7434  18.050  30.970  19.080
  310BOLB   C3C 7435  18.090  31.020  18.600
  310BOLB   C4C 7436  18.040  30.810  18.200
  310BOLB   C1D 7437  17.780  30.980  20.100
  310BOLB   C2D 7438  18.030  30.570  20.260
  310BOLB   C3D 7439  18.000  30.160  20.120
  310BOLB   C4D 7440  17.960  29.780  19.910
  311BOLB   NC1 7441  24.130  27.110  11.150
  311BOLB   PO1 7442  24.520  27.110  10.910
  311BOLB   GL1 7443  24.780  27.450  10.760
  311BOLB   GL2 7444  25.010  27.590  11.000
  311BOLB   C1A 7445  25.190  27.610  10.540
  311BOLB   C2A 7446  25.420  27.980  10.360
  311BOLB   C3A 7447  25.750  28.220  10.180
  311BOLB   C4A 7448  26.160  28.120   9.960
  311BOLB   C1B 7449  25.280  27.920  11.020
  311BOLB   C2B 7450  25.590  28.270  10.790
  311BOLB   C3B 7451  25.630  28.590  10.520
  311BOLB   C4B 7452  25.670  28.830  10.150
  311BOLB   NC2 7453  27.080  30.170  10.070
  311BOLB   PO2 7454  27.160  29.990   9.700
  311BOLB   GL3 7455  27.130  29.640   9.900
  311BOLB   GL4 7456  27.300  29.670  10.180
  311BOLB   C1C 7457  27.160  29.280   9.810
  311BOLB   C2C 7458  26.980  29.020   9.470
  311BOLB   C3C 7459  26.730  28.660   9.590
  311BOLB   C4C 7460  26.390  28.490   9.810
  311BOLB   C1D 7461  27.180  29.350  10.430
  311BOLB   C2D 7462  26.960  28.980  10.170
  311BOLB   C3D 7463  26.900  28.610  10.150
  311BOLB   C4D 7464  27.150  28.430   9.880
  312BOLB   NC1 7465  14.860  27.850  14.460
  312BOLB   PO1 7466  14.840  28.330  14.570
  312BOLB   GL1 7467  14.500  28.560  14.490
  312BOLB   GL2 7468  14.280  28.550  14.740
  312BOLB   C1A 7469  14.370  28.950  14.360
  312BOLB   C2A 7470  14.340  29.330  14.210
  312BOLB   C3A 7471  14.210  29.690  14.400
  312BOLB   C4A 7472  14.130  30.160  14.420
  312BOLB   C1B 7473  14.150  28.940  14.860
  312BOLB   C2B 7474  13.920  29.270  14.710
  312BOLB   C3B 7475  13.810  29.660  14.740
  312BOLB   C4B 7476  13.800  30.060  14.840
  312BOLB   NC2 7477  13.430  32.230  13.900
  312BOLB   PO2 7478  12.900  32.330  14.000
  312BOLB   GL3 7479  12.930  31.860  14.170
  312BOLB   GL4 7480  12.750  31.520  14.110
  312BOLB   C1C 7481  13.200  31.570  14.400
  312BOLB   C2C 7482  13.480  31.240  14.480
  312BOLB   C3C 7483  13.680  30.810  14.550
  312BOLB   C4C 7484  13.800  30.430  14.480
  312BOLB   C1D 7485  12.820  31.090  14.120
  312BOLB   C2D 7486  12.870  30.840  13.820
  312BOLB   C3D 7487  13.200  30.520  13.700
  312BOLB   C4D 7488  13.550  30.440  13.530
  313BOLB   NC1 7489  19.910  29.850  14.930
  313BOLB   PO1 7490  20.060  30.050  14.690
  313BOLB   GL1 7491  20.150  30.320  14.980
  313BOLB   GL2 7492  20.090  30.680  14.960
  313BOLB   C1A 7493  20.150  30.550  15.410
  313BOLB   C2A 7494  20.440  30.870  15.680
  313BOLB   C3A 7495  20.870  30.920  15.680
  313BOLB   C4A 7496  21.030  31.290  15.600
  313BOLB   C1B 7497  20.310  30.990  15.160
  313BOLB   C2B 7498  20.390  31.330  15.460
  313BOLB   C3B 7499  20.200  31.530  15.830
  313BOLB   C4B 7500  19.980  31.620  16.200
  313BOLB   NC2 7501  22.310  33.750  15.360
  313BOLB   PO2 7502  22.230  33.510  15.750
  313BOLB   GL3 7503  22.130  33.030  15.790
  313BOLB   GL4 7504  22.360  32.770  15.890
  313BOLB   C1C 7505  21.820  32.680  15.690
  313BOLB   C2C 7506  21.680  32.360  15.400
  313BOLB   C3C 7507  21.470  32.020  15.510
  313BOLB   C4C 7508  21.080  31.760  15.570
  313BOLB   C1D 7509  22.200  32.410  15.620
  313BOLB   C2D 7510  22.300  31.980  15.510
  313BOLB   C3D 7511  22.190  31.450  15.590
  313BOLB   C4D 7512  22.240  31.140  15.910
  314BOLB   NC1 7513  11.920  23.480  17.680
  314BOLB   PO1 7514  11.540  23.280  17.440
  314BOLB   GL1 7515  11.230  23.500  17.460
  314BOLB   GL2 7516  11.200  23.630  17.180
  314BOLB   C1A 7517  10.740  23.480  17.220
  314BOLB   C2A 7518  10.360  23.780  17.160
  314BOLB   C3A 7519   9.980  23.780  17.420
  314BOLB   C4A 7520   9.810  24.040  17.740
  314BOLB   C1B 7521  10.970  23.900  17.050
  314BOLB   C2B 7522  10.900  24.320  17.190
  314BOLB   C3B 7523  11.000  24.760  17.040
  314BOLB   C4B 7524  11.380  24.790  16.810
  314BOLB   NC2 7525   8.080  25.500  18.620
  314BOLB   PO2 7526   8.370  25.480  18.910
  314BOLB   GL3 7527   8.850  25.250  18.750
  314BOLB   GL4 7528   9.130  25.300  19.000
  314BOLB   C1C 7529   8.990  25.000  18.540
  314BOLB   C2C 7530   9.320  24.900  18.270
  314BOLB   C3C 7531   9.650  24.780  18.020
  314BOLB   C4C 7532   9.780  24.490  17.760
  314BOLB   C1D 7533   9.480  24.990  18.780
  314BOLB   C2D 7534   9.830  24.820  18.660
  314BOLB   C3D 7535  10.040  24.520  18.420
  314BOLB   C4D 7536  10.020  24.310  18.130
  315BOLB   NC1 7537  21.170  23.100  20.390
  315BOLB   PO1 7538  20.700  23.330  20.380
  315BOLB   GL1 7539  20.840  23.190  20.790
  315BOLB   GL2 7540  20.710  23.390  20.950
  315BOLB   C1A 7541  21.200  23.140  21.130
  315BOLB   C2A 7542  21.430  23.200  21.520
  315BOLB   C3A 7543  21.850  23.220  21.550
  315BOLB   C4A 7544  22.210  23.260  21.660
  315BOLB   C1B 7545  20.580  23.770  21.140
  315BOLB   C2B 7546  20.540  23.950  21.540
  315BOLB   C3B 7547  20.700  23.780  21.950
  315BOLB   C4B 7548  20.830  23.360  22.020
  315BOLB   NC2 7549  22.870  22.640  23.790
  315BOLB   PO2 7550  23.150  23.040  23.600
  315BOLB   GL3 7551  23.110  23.080  23.140
  315BOLB   GL4 7552  23.450  22.930  23.030
  315BOLB   C1C 7553  23.090  22.990  22.680
  315BOLB   C2C 7554  23.080  22.730  22.270
  315BOLB   C3C 7555  22.720  22.800  21.960
  315BOLB   C4C 7556  22.470  23.130  21.810
  315BOLB   C1D 7557  23.090  22.600  22.970
  315BOLB   C2D 7558  22.820  22.560  22.620
  315BOLB   C3D 7559  22.430  22.560  22.280
  315BOLB   C4D 7560  22.200  22.380  21.930
  316BOLB   NC1 7561  20.750  13.800  11.700
  316BOLB   PO1 7562  20.240  13.600  11.780
  316BOLB   GL1 7563  20.230  13.120  11.900
  316BOLB   GL2 7564  20.260  13.040  11.590
  316BOLB   C1A 7565  20.490  12.840  12.040
  316BOLB   C2A 7566  20.500  12.380  12.100
  316BOLB   C3A 7567  20.540  12.050  12.420
  316BOLB   C4A 7568  20.650  11.690  12.520
  316BOLB   C1B 7569  20.300  12.750  11.200
  316BOLB   C2B 7570  20.540  12.330  11.160
  316BOLB   C3B 7571  20.790  12.160  10.850
  316BOLB   C4B 7572  20.720  11.680  10.600
  316BOLB   NC2 7573  21.070   9.500  13.340
  316BOLB   PO2 7574  21.440   9.680  13.210
  316BOLB   GL3 7575  21.050   9.890  13.070
  316BOLB   GL4 7576  21.230  10.090  13.270
  316BOLB   C1C 7577  20.900  10.240  12.850
  316BOLB   C2C 7578  20.950  10.530  12.730
  316BOLB   C3C 7579  20.910  10.890  12.600
  316BOLB   C4C 7580  20.800  11.250  12.680
  316BOLB   C1D 7581  21.230  10.570  13.220
  316BOLB   C2D 7582  20.980  10.960  13.150
  316BOLB   C3D 7583  20.670  11.240  13.200
  316BOLB   C4D 7584  20.550  11.510  13.370
  317BOLB   NC1 7585  18.820  21.910  20.250
  317BOLB   PO1 7586  18.730  21.960  20.700
  317BOLB   GL1 7587  18.690  22.310  20.960
  317BOLB   GL2 7588  18.510  22.550  20.970
  317BOLB   C1A 7589  18.660  22.350  21.480
  317BOLB   C2A 7590  18.710  22.430  21.920
  317BOLB   C3A 7591  18.660  22.330  22.420
  317BOLB   C4A 7592  18.680  22.450  22.830
  317BOLB   C1B 7593  18.160  22.550  21.280
  317BOLB   C2B 7594  17.940  22.730  21.530
  317BOLB   C3B 7595  18.000  23.090  21.770
  317BOLB   C4B 7596  18.300  23.240  21.890
  317BOLB   NC2 7597  19.520  23.030  24.850
  317BOLB   PO2 7598  19.560  22.640  25.030
  317BOLB   GL3 7599  19.340  22.380  24.640
  317BOLB   GL4 7600  19.430  22.100  24.570
  317BOLB   C1C 7601  19.270  22.370  24.160
  317BOLB   C2C 7602  19.180  22.640  23.840
  317BOLB   C3C 7603  18.840  22.830  23.600
  317BOLB   C4C 7604  18.760  22.720  23.130
  317BOLB   C1D 7605  19.720  22.030  24.150
  317BOLB   C2D 7606  19.730  22.000  23.710
  317BOLB   C3D 7607  19.910  22.090  23.420
  317BOLB   C4D 7608  19.780  22.060  23.040
  318BOLB   NC1 7609  16.540  20.840  20.400
  318BOLB   PO1 7610  16.840  21.110  20.540
  318BOLB   GL1 7611  16.550  21.180  20.930
  318BOLB   GL2 7612  16.290  21.050  20.840
  318BOLB   C1A 7613  16.410  21.280  21.280
  318BOLB   C2A 7614  16.220  21.450  21.680
  318BOLB   C3A 7615  16.450  21.320  22.040
  318BOLB   C4A 7616  16.770  21.390  22.260
  318BOLB   C1B 7617  16.340  20.710  21.090
  318BOLB   C2B 7618  16.340  20.540  21.280
  318BOLB   C3B 7619  16.080  20.430  21.730
  318BOLB   C4B 7620  16.050  20.540  22.130
  318BOLB   NC2 7621  16.590  22.290  24.640
  318BOLB   PO2 7622  16.670  21.980  24.380
  318BOLB   GL3 7623  16.870  21.860  23.990
  318BOLB   GL4 7624  16.580  22.070  23.880
  318BOLB   C1C 7625  16.940  21.640  23.690
  318BOLB   C2C 7626  17.030  21.670  23.300
  318BOLB   C3C 7627  17.100  21.600  22.930
  318BOLB   C4C 7628  17.000  21.570  22.610
  318BOLB   C1D 7629  16.920  22.150  23.540
  318BOLB   C2D 7630  16.960  22.140  23.130
  318BOLB   C3D 7631  16.900  22.240  22.780
  318BOLB   C4D 7632  17.360  21.990  22.700
  319BOLB   NC1 7633  16.430  15.130  18.820
  319BOLB   PO1 7634  16.810  15.000  18.750
  319BOLB   GL1 7635  16.720  14.870  19.130
  319BOLB   GL2 7636  16.580  15.030  19.360
  319BOLB   C1A 7637  17.060  14.580  19.400
  319BOLB   C2A 7638  17.080  14.300  19.800
  319BOLB   C3A 7639  16.850  14.120  20.090
  319BOLB   C4A 7640  16.680  14.280  20.510
  319BOLB   C1B 7641  16.820  14.910  19.720
  319BOLB   C2B 7642  17.140  14.850  20.070
  319BOLB   C3B 7643  17.270  14.460  20.280
  319BOLB   C4B 7644  17.360  14.440  20.790
  319BOLB   NC2 7645  16.840  13.240  22.640
  319BOLB   PO2 7646  16.460  13.620  22.550
  319BOLB   GL3 7647  16.860  13.680  22.220
  319BOLB   GL4 7648  16.950  13.410  22.040
  319BOLB   C1C 7649  16.670  13.760  21.780
  319BOLB   C2C 7650  16.380  13.720  21.540
  319BOLB   C3C 7651  16.280  13.950  21.090
  319BOLB   C4C 7652  16.430  14.190  20.860
  319BOLB   C1D 7653  17.180  13.530  21.740
  319BOLB   C2D 7654  17.200  13.260  21.400
  319BOLB   C3D 7655  17.430  13.110  21.060
  319BOLB   C4D 7656  17.250  13.030  20.610
  320BOLB   NC1 7657  13.690  24.240  18.360
  320BOLB   PO1 7658  13.480  23.890  18.440
  320BOLB   GL1 7659  13.470  24.070  18.830
  320BOLB   GL2 7660  13.100  24.150  18.810
  320BOLB   C1A 7661  13.510  24.380  19.050
  320BOLB   C2A 7662  13.310  24.490  19.500
  320BOLB   C3A 7663  13.020  24.430  19.780
  320BOLB   C4A 7664  12.610  24.370  20.060
  320BOLB   C1B 7665  12.940  24.200  19.250
  320BOLB   C2B 7666  12.580  24.220  19.560
  320BOLB   C3B 7667  12.230  24.150  19.960
  320BOLB   C4B 7668  11.820  24.080  20.170
  320BOLB   NC2 7669  11.200  25.310  21.810
  320BOLB   PO2 7670  11.340  25.700  21.770
  320BOLB   GL3 7671  11.710  25.510  21.550
  320BOLB   GL4 7672  12.040  25.660  21.340
  320BOLB   C1C 7673  11.820  25.260  21.090
  320BOLB   C2C 7674  12.170  24.840  21.010
  320BOLB   C3C 7675  12.470  24.830  20.800
  320BOLB   C4C 7676  12.570  24.640  20.380
  320BOLB   C1D 7677  12.460  25.840  21.390
  320BOLB   C2D 7678  12.900  25.710  21.370
  320BOLB   C3D 7679  13.350  25.460  21.490
  320BOLB   C4D 7680  13.640  25.320  21.240
  321BOLB   NC1 7681  13.850  26.960   9.150
  321BOLB   PO1 7682  14.280  27.160   9.270
  321BOLB   GL1 7683  14.380  27.500   8.910
  321BOLB   GL2 7684  14.160  27.790   9.060
  321BOLB   C1A 7685  14.180  27.890   8.600
  321BOLB   C2A 7686  14.130  28.200   8.270
  321BOLB   C3A 7687  14.120  28.650   8.250
  321BOLB   C4A 7688  14.220  29.080   8.070
  321BOLB   C1B 7689  13.810  28.100   9.070
  321BOLB   C2B 7690  13.410  28.280   8.800
  321BOLB   C3B 7691  13.090  28.530   8.920
  321BOLB   C4B 7692  12.880  28.810   9.250
  321BOLB   NC2 7693  12.990  29.790   6.140
  321BOLB   PO2 7694  13.110  30.180   6.330
  321BOLB   GL3 7695  13.490  30.000   6.350
  321BOLB   GL4 7696  13.380  29.680   6.390
  321BOLB   C1C 7697  13.890  29.890   6.630
  321BOLB   C2C 7698  13.990  29.700   7.030
  321BOLB   C3C 7699  14.160  29.450   7.400
  321BOLB   C4C 7700  14.120  29.220   7.740
  321BOLB   C1D 7701  13.450  29.590   6.780
  321BOLB   C2D 7702  13.630  29.340   7.190
  321BOLB   C3D 7703  13.810  28.940   7.370
  321BOLB   C4D 7704  13.970  28.490   7.250
  322BOLB   NC1 7705  11.840  26.880  11.440
  322BOLB   PO1 7706  12.190  26.820  11.760
  322BOLB   GL1 7707  11.700  27.090  11.910
  322BOLB   GL2 7708  11.580  27.290  11.630
  322BOLB   C1A 7709  11.470  27.330  12.100
  322BOLB   C2A 7710  11.060  27.630  12.040
  322BOLB   C3A 7711  10.940  28.000  11.840
  322BOLB   C4A 7712  10.660  28.310  11.840
  322BOLB   C1B 7713  11.230  27.530  11.570
  322BOLB   C2B 7714  11.050  27.870  11.350
  322BOLB   C3B 7715  10.830  28.140  10.980
  322BOLB   C4B 7716  10.610  28.360  10.750
  322BOLB   NC2 7717   9.360  30.470  11.730
  322BOLB   PO2 7718   9.530  30.250  12.060
  322BOLB   GL3 7719   9.690  29.810  12.170
  322BOLB   GL4 7720   9.980  29.700  12.320
  322BOLB   C1C 7721   9.880  29.550  11.840
  322BOLB   C2C 7722   9.850  29.130  11.690
  322BOLB   C3C 7723  10.090  28.850  11.550
  322BOLB   C4C 7724  10.450  28.660  11.640
  322BOLB   C1D 7725  10.250  29.420  12.130
  322BOLB   C2D 7726  10.280  29.020  12.010
  322BOLB   C3D 7727  10.470  28.690  12.270
  322BOLB   C4D 7728  10.870  28.510  12.390
  323BOLB   NC1 7729  16.020  28.020  16.250
  323BOLB   PO1 7730  15.900  28.330  16.010
  323BOLB   GL1 7731  15.570  28.570  16.250
  323BOLB   GL2 7732  15.250  28.430  16.410
  323BOLB   C1A 7733  15.370  28.920  16.400
  323BOLB   C2A 7734  15.140  29.290  16.510
  323BOLB   C3A 7735  14.940  29.700  16.610
  323BOLB   C4A 7736  14.690  29.730  16.990
  323BOLB   C1B 7737  14.910  28.660  16.610
  323BOLB   C2B 7738  14.660  28.890  16.810
  323BOLB   C3B 7739  14.890  29.240  17.020
  323BOLB   C4B 7740  14.850  29.410  17.440
  323BOLB   NC2 7741  14.560  31.610  18.400
  323BOLB   PO2 7742  14.350  31.350  18.680
  323BOLB   GL3 7743  14.380  30.970  18.410
  323BOLB   GL4 7744  14.540  31.120  18.230
  323BOLB   C1C 7745  14.310  30.720  18.080
  323BOLB   C2C 7746  14.300  30.250  17.980
  323BOLB   C3C 7747  14.330  29.920  17.720
  323BOLB   C4C 7748  14.420  29.660  17.360
  323BOLB   C1D 7749  14.740  31.050  17.920
  323BOLB   C2D 7750  14.770  31.180  17.430
  323BOLB   C3D 7751  15.080  31.440  17.170
  323BOLB   C4D 7752  14.990  31.760  16.830
  324BOLB   NC1 7753  15.110  16.030  18.570
  324BOLB   PO1 7754  15.220  15.640  18.800
  324BOLB   GL1 7755  15.290  15.530  19.190
  324BOLB   GL2 7756  15.460  15.660  19.540
  324BOLB   C1A 7757  15.170  15.320  19.500
  324BOLB   C2A 7758  15.110  15.090  19.840
  324BOLB   C3A 7759  15.340  15.090  20.270
  324BOLB   C4A 7760  15.630  14.970  20.550
  324BOLB   C1B 7761  15.370  15.600  19.960
  324BOLB   C2B 7762  15.280  15.590  20.370
  324BOLB   C3B 7763  15.340  15.830  20.660
  324BOLB   C4B 7764  15.700  15.990  20.960
  324BOLB   NC2 7765  14.790  15.230  22.940
  324BOLB   PO2 7766  14.980  14.890  23.040
  324BOLB   GL3 7767  15.160  15.030  22.660
  324BOLB   GL4 7768  15.060  15.350  22.540
  324BOLB   C1C 7769  15.510  15.160  22.370
  324BOLB   C2C 7770  15.570  15.170  21.930
  324BOLB   C3C 7771  15.790  15.060  21.580
  324BOLB   C4C 7772  15.700  15.070  21.070
  324BOLB   C1D 7773  15.020  15.230  22.110
  324BOLB   C2D 7774  15.150  15.380  21.770
  324BOLB   C3D 7775  15.500  15.480  21.570
  324BOLB   C4D 7776  15.700  15.890  21.660
  325BOLB   NC1 7777   9.700  24.160  12.210
  325BOLB   PO1 7778   9.320  24.290  11.930
  325BOLB   GL1 7779   8.950  24.560  11.920
  325BOLB   GL2 7780   9.030  24.850  11.840
  325BOLB   C1A 7781   8.580  24.670  11.820
  325BOLB   C2A 7782   8.280  24.520  11.550
  325BOLB   C3A 7783   8.050  24.850  11.400
  325BOLB   C4A 7784   7.770  24.940  11.210
  325BOLB   C1B 7785   8.740  25.140  12.090
  325BOLB   C2B 7786   8.680  25.620  12.160
  325BOLB   C3B 7787   8.840  25.870  11.900
  325BOLB   C4B 7788   9.190  25.890  11.590
  325BOLB   NC2 7789   4.940  25.560  11.380
  325BOLB   PO2 7790   5.350  25.370  11.260
  325BOLB   GL3 7791   5.700  25.240  11.460
  325BOLB   GL4 7792   6.000  25.240  11.280
  325BOLB   C1C 7793   5.900  25.080  11.780
  325BOLB   C2C 7794   6.330  24.980  11.590
  325BOLB   C3C 7795   6.780  24.780  11.330
  325BOLB   C4C 7796   7.290  24.910  11.140
  325BOLB   C1D 7797   6.010  24.880  11.120
  325BOLB   C2D 7798   6.080  24.420  11.060
  325BOLB   C3D 7799   6.320  24.070  11.060
  325BOLB   C4D 7800   6.710  23.880  10.940
  326BOLB   NC1 7801  18.510  21.530  20.660
  326BOLB   PO1 7802  18.330  21.160  20.470
  326BOLB   GL1 7803  18.490  21.010  20.820
  326BOLB   GL2 7804  18.860  21.150  20.900
  326BOLB   C1A 7805  18.470  21.080  21.160
  326BOLB   C2A 7806  18.460  21.010  21.630
  326BOLB   C3A 7807  18.320  21.150  22.030
  326BOLB   C4A 7808  18.360  20.860  22.390
  326BOLB   C1B 7809  18.990  21.130  21.380
  326BOLB   C2B 7810  19.000  21.080  21.840
  326BOLB   C3B 7811  18.840  20.940  22.170
  326BOLB   C4B 7812  18.720  20.870  22.700
  326BOLB   NC2 7813  18.780  21.200  24.860
  326BOLB   PO2 7814  18.310  21.450  24.790
  326BOLB   GL3 7815  18.340  21.310  24.410
  326BOLB   GL4 7816  18.650  21.090  24.370
  326BOLB   C1C 7817  18.220  21.050  24.030
  326BOLB   C2C 7818  18.260  20.820  23.720
  326BOLB   C3C 7819  18.360  20.870  23.250
  326BOLB   C4C 7820  18.270  20.960  22.830
  326BOLB   C1D 7821  18.670  20.950  23.970
  326BOLB   C2D 7822  18.750  20.880  23.550
  326BOLB   C3D 7823  18.800  21.060  23.170
  326BOLB   C4D 7824  18.550  21.410  22.950
  327BOLB   NC1 7825  12.200  25.590  16.130
  327BOLB   PO1 7826  12.450  25.510  16.560
  327BOLB   GL1 7827  12.330  25.500  16.860
  327BOLB   GL2 7828  12.380  25.720  17.160
  327BOLB   C1A 7829  11.870  25.600  16.970
  327BOLB   C2A 7830  11.560  25.730  17.270
  327BOLB   C3A 7831  11.370  26.100  17.410
  327BOLB   C4A 7832  10.910  26.200  17.550
  327BOLB   C1B 7833  12.020  25.660  17.500
  327BOLB   C2B 7834  11.730  25.510  17.730
  327BOLB   C3B 7835  11.860  25.230  18.080
  327BOLB   C4B 7836  12.000  25.320  18.500
  327BOLB   NC2 7837   9.360  26.850  19.280
  327BOLB   PO2 7838   9.410  26.450  19.250
  327BOLB   GL3 7839   9.630  26.090  19.170
  327BOLB   GL4 7840   9.980  25.880  19.230
  327BOLB   C1C 7841   9.680  26.010  18.690
  327BOLB   C2C 7842   9.930  25.940  18.380
  327BOLB   C3C 7843  10.250  25.880  17.960
  327BOLB   C4C 7844  10.610  25.990  17.790
  327BOLB   C1D 7845  10.300  26.150  18.870
  327BOLB   C2D 7846  10.690  26.330  18.810
  327BOLB   C3D 7847  11.000  26.130  18.630
  327BOLB   C4D 7848  11.410  26.170  18.440
  328BOLB   NC1 7849  11.720  11.400  21.230
  328BOLB   PO1 7850  11.750  11.780  21.080
  328BOLB   GL1 7851  11.690  11.850  20.610
  328BOLB   GL2 7852  12.030  11.800  20.440
  328BOLB   C1A 7853  11.760  12.290  20.340
  328BOLB   C2A 7854  11.900  12.280  19.900
  328BOLB   C3A 7855  12.220  12.330  19.700
  328BOLB   C4A 7856  12.320  12.460  19.290
  328BOLB   C1B 7857  12.120  11.840  19.930
  328BOLB   C2B 7858  12.140  11.890  19.490
  328BOLB   C3B 7859  12.510  11.900  19.210
  328BOLB   C4B 7860  12.660  11.660  18.810
  328BOLB   NC2 7861  11.210  11.840  20.880
  328BOLB   PO2 7862  11.250  11.890  20.450
  328BOLB   GL3 7863  11.180  12.230  20.200
  328BOLB   GL4 7864  11.300  12.520  20.230
  328BOLB   C1C 7865  11.430  12.270  19.770
  328BOLB   C2C 7866  11.380  12.550  19.490
  328BOLB   C3C 7867  11.580  12.560  19.120
  328BOLB   C4C 7868  12.020  12.670  18.970
  328BOLB   C1D 7869  11.680  12.820  20.330
  328BOLB   C2D 7870  11.760  13.170  20.580
  328BOLB   C3D 7871  11.790  13.620  20.490
  328BOLB   C4D 7872  11.940  13.890  20.340
  329BOLB   NC1 7873  25.170  20.730  17.130
  329BOLB   PO1 7874  25.510  20.700  16.940
  329BOLB   GL1 7875  25.750  20.500  17.130
  329BOLB   GL2 7876  25.690  20.600  17.400
  329BOLB   C1A 7877  26.120  20.270  17.200
  329BOLB   C2A 7878  26.480  20.340  17.290
  329BOLB   C3A 7879  26.850  20.270  17.320
  329BOLB   C4A 7880  27.170  20.140  17.480
  329BOLB   C1B 7881  25.880  20.490  17.720
  329BOLB   C2B 7882  26.120  20.370  18.050
  329BOLB   C3B 7883  26.440  20.120  18.170
  329BOLB   C4B 7884  26.900  20.170  18.170
  329BOLB   NC2 7885  28.680  19.750  18.830
  329BOLB   PO2 7886  28.640  20.110  19.080
  329BOLB   GL3 7887  28.330  20.160  18.800
  329BOLB   GL4 7888  28.390  20.300  18.620
  329BOLB   C1C 7889  27.980  20.070  18.570
  329BOLB   C2C 7890  27.860  20.310  18.280
  329BOLB   C3C 7891  27.830  20.480  17.870
  329BOLB   C4C 7892  27.410  20.300  17.810
  329BOLB   C1D 7893  28.130  20.600  18.620
  329BOLB   C2D 7894  27.860  20.890  18.500
  329BOLB   C3D 7895  27.530  20.830  18.200
  329BOLB   C4D 7896  27.100  20.600  18.070
  330BOLB   NC1 7897  14.030  18.460  19.840
  330BOLB   PO1 7898  14.120  18.210  20.030
  330BOLB   GL1 7899  13.830  17.990  20.110
  330BOLB   GL2 7900  13.460  18.090  20.110
  330BOLB   C1A 7901  13.770  17.850  20.590
  330BOLB   C2A 7902  13.480  17.620  20.790
  330BOLB   C3A 7903  13.320  17.210  20.770
  330BOLB   C4A 7904  13.070  16.800  20.910
  330BOLB   C1B 7905  13.250  17.980  20.490
  330BOLB   C2B 7906  12.970  18.070  20.910
  330BOLB   C3B 7907  12.990  18.230  21.290
  330BOLB   C4B 7908  13.330  18.010  21.640
  330BOLB   NC2 7909  11.700  16.260  22.780
  330BOLB   PO2 7910  12.050  16.180  22.900
  330BOLB   GL3 7911  12.410  16.270  22.650
  330BOLB   GL4 7912  12.590  16.550  22.690
  330BOLB   C1C 7913  12.660  16.110  22.320
  330BOLB   C2C 7914  12.580  16.310  22.010
  330BOLB   C3C 7915  12.750  16.400  21.610
  330BOLB   C4C 7916  12.770  16.550  21.070
  330BOLB   C1D 7917  12.670  16.670  22.240
  330BOLB   C2D 7918  12.620  16.860  21.750
  330BOLB   C3D 7919  12.660  16.930  21.340
  330BOLB   C4D 7920  12.530  17.210  21.000
  331BOLB   NC1 7921  19.020  19.790  19.830
  331BOLB   PO1 7922  18.910  20.130  20.230
  331BOLB   GL1 7923  18.720  20.300  20.530
  331BOLB   GL2 7924  18.660  20.210  20.760
  331BOLB   C1A 7925  18.860  20.640  20.860
  331BOLB   C2A 7926  18.790  20.500  21.310
  331BOLB   C3A 7927  18.830  20.650  21.690
  331BOLB   C4A 7928  19.100  20.610  21.980
  331BOLB   C1B 7929  18.680  20.020  21.110
  331BOLB   C2B 7930  18.750  19.740  21.440
  331BOLB   C3B 7931  18.420  19.560  21.630
  331BOLB   C4B 7932  18.030  19.470  21.600
  331BOLB   NC2 7933  19.080  19.790  24.530
  331BOLB   PO2 7934  19.490  19.840  24.280
  331BOLB   GL3 7935  19.410  19.980  23.920
  331BOLB   GL4 7936  19.790  20.030  23.900
  331BOLB   C1C 7937  19.420  20.030  23.550
  331BOLB   C2C 7938  19.210  20.220  23.100
  331BOLB   C3C 7939  19.140  20.450  22.750
  331BOLB   C4C 7940  19.150  20.540  22.360
  331BOLB   C1D 7941  19.870  19.790  23.520
  331BOLB   C2D 7942  20.130  19.740  23.180
  331BOLB   C3D 7943  20.430  19.630  22.870
  331BOLB   C4D 7944  20.750  19.440  22.840
  332BOLB   NC1 7945  11.860  25.330  15.490
  332BOLB   PO1 7946  11.430  25.370  15.530
  332BOLB   GL1 7947  11.180  25.350  15.980
  332BOLB   GL2 7948  11.310  25.320  16.220
  332BOLB   C1A 7949  10.710  25.430  16.200
  332BOLB   C2A 7950  10.310  25.650  16.240
  332BOLB   C3A 7951  10.120  25.860  15.990
  332BOLB   C4A 7952   9.690  26.010  15.970
  332BOLB   C1B 7953  11.040  25.730  16.510
  332BOLB   C2B 7954  10.670  25.940  16.490
  332BOLB   C3B 7955  10.480  26.320  16.750
  332BOLB   C4B 7956  10.250  26.790  16.720
  332BOLB   NC2 7957   8.030  27.770  17.930
  332BOLB   PO2 7958   8.290  27.380  17.770
  332BOLB   GL3 7959   8.580  27.290  17.360
  332BOLB   GL4 7960   8.770  27.450  17.360
  332BOLB   C1C 7961   8.760  27.010  16.990
  332BOLB   C2C 7962   9.000  26.670  16.920
  332BOLB   C3C 7963   9.300  26.490  16.570
  332BOLB   C4C 7964   9.510  26.290  16.150
  332BOLB   C1D 7965   8.940  27.410  16.750
  332BOLB   C2D 7966   9.250  27.380  16.370
  332BOLB   C3D 7967   9.630  27.170  16.240
  332BOLB   C4D 7968   9.830  26.860  16.360
  333BOLB   NC1 7969  19.700  30.160  12.790
  333BOLB   PO1 7970  19.430  30.260  12.870
  333BOLB   GL1 7971  19.260  30.570  12.670
  333BOLB   GL2 7972  19.230  30.850  12.940
  333BOLB   C1A 7973  19.330  30.920  12.410
  333BOLB   C2A 7974  19.150  31.320  12.320
  333BOLB   C3A 7975  18.860  31.670  12.410
  333BOLB   C4A 7976  18.580  31.940  12.660
  333BOLB   C1B 7977  19.360  31.250  12.830
  333BOLB   C2B 7978  19.330  31.650  12.680
  333BOLB   C3B 7979  19.370  31.980  13.080
  333BOLB   C4B 7980  19.080  31.960  13.530
  333BOLB   NC2 7981  18.760  34.360  12.250
  333BOLB   PO2 7982  18.360  34.360  12.380
  333BOLB   GL3 7983  18.510  33.910  12.400
  333BOLB   GL4 7984  18.530  33.800  12.080
  333BOLB   C1C 7985  18.440  33.450  12.400
  333BOLB   C2C 7986  18.300  33.050  12.540
  333BOLB   C3C 7987  18.280  32.700  12.730
  333BOLB   C4C 7988  18.260  32.310  12.840
  333BOLB   C1D 7989  18.810  33.480  12.110
  333BOLB   C2D 7990  18.800  32.990  12.260
  333BOLB   C3D 7991  18.820  32.720  12.540
  333BOLB   C4D 7992  18.990  32.260  12.580
  334BOLB   NC1 7993  20.730  19.840   6.590
  334BOLB   PO1 7994  20.900  19.510   6.290
  334BOLB   GL1 7995  21.240  19.450   5.930
  334BOLB   GL2 7996  21.220  19.130   5.720
  334BOLB   C1A 7997  21.590  19.530   5.630
  334BOLB   C2A 7998  21.820  19.630   5.350
  334BOLB   C3A 7999  22.060  19.700   4.970
  334BOLB   C4A 8000  22.240  19.960   4.670
  334BOLB   C1B 8001  21.360  18.900   5.440
  334BOLB   C2B 8002  21.650  18.650   5.150
  334BOLB   C3B 8003  21.650  18.320   5.020
  334BOLB   C4B 8004  21.780  17.960   4.800
  334BOLB   NC2 8005  23.860  20.070   2.620
  334BOLB   PO2 8006  23.580  19.740   2.540
  334BOLB   GL3 8007  23.620  19.450   3.020
  334BOLB   GL4 8008  23.750  19.270   3.220
  334BOLB   C1C 8009  23.200  19.530   3.300
  334BOLB   C2C 8010  23.070  19.730   3.660
  334BOLB   C3C 8011  22.870  19.930   4.080
  334BOLB   C4C 8012  22.560  20.080   4.460
  334BOLB   C1D 8013  23.690  19.570   3.500
  334BOLB   C2D 8014  23.570  19.720   3.910
  334BOLB   C3D 8015  23.340  19.870   4.220
  334BOLB   C4D 8016  23.100  20.060   4.510
  335BOLB   NC1 8017  17.790  28.230  18.110
  335BOLB   PO1 8018  17.860  27.840  18.460
  335BOLB   GL1 8019  17.910  28.240  18.590
  335BOLB   GL2 8020  18.020  28.520  18.400
  335BOLB   C1A 8021  17.890  28.620  19.040
  335BOLB   C2A 8022  18.020  28.980  19.290
  335BOLB   C3A 8023  18.350  29.300  19.430
  335BOLB   C4A 8024  18.350  29.750  19.510
  335BOLB   C1B 8025  18.000  28.890  18.550
  335BOLB   C2B 8026  17.950  29.330  18.490
  335BOLB   C3B 8027  18.080  29.700  18.680
  335BOLB   C4B 8028  18.280  30.010  18.870
  335BOLB   NC2 8029  19.770  31.200  20.600
  335BOLB   PO2 8030  19.530  30.950  20.780
  335BOLB   GL3 8031  19.330  30.950  20.420
  335BOLB   GL4 8032  19.450  31.060  20.150
  335BOLB   C1C 8033  19.010  30.880  20.130
  335BOLB   C2C 8034  18.900  30.630  19.720
  335BOLB   C3C 8035  18.610  30.440  19.530
  335BOLB   C4C 8036  18.550  30.060  19.360
  335BOLB   C1D 8037  19.430  30.580  20.070
  335BOLB   C2D 8038  19.490  30.270  19.800
  335BOLB   C3D 8039  19.570  30.000  19.580
  335BOLB   C4D 8040  19.690  29.990  19.150
  336BOLB   NC1 8041  22.000  29.080  14.010
  336BOLB   PO1 8042  22.230  29.050  14.420
  336BOLB   GL1 8043  22.260  29.400  14.700
  336BOLB   GL2 8044  22.280  29.730  14.570
  336BOLB   C1A 8045  22.220  29.770  15.100
  336BOLB   C2A 8046  22.330  30.140  15.390
  336BOLB   C3A 8047  22.780  30.340  15.590
  336BOLB   C4A 8048  23.000  30.750  15.660
  336BOLB   C1B 8049  22.570  30.050  14.740
  336BOLB   C2B 8050  22.590  30.340  14.990
  336BOLB   C3B 8051  22.780  30.720  14.970
  336BOLB   C4B 8052  22.640  31.110  15.020
  336BOLB   NC2 8053  24.980  32.250  16.870
  336BOLB   PO2 8054  24.790  32.200  16.500
  336BOLB   GL3 8055  24.640  31.820  16.340
  336BOLB   GL4 8056  24.930  31.710  16.010
  336BOLB   C1C 8057  24.310  31.740  16.090
  336BOLB   C2C 8058  24.000  31.370  15.930
  336BOLB   C3C 8059  23.820  31.080  15.600
  336BOLB   C4C 8060  23.420  30.900  15.650
  336BOLB   C1D 8061  24.680  31.310  16.040
  336BOLB   C2D 8062  24.430  31.110  15.810
  336BOLB   C3D 8063  24.270  30.770  15.580
  336BOLB   C4D 8064  24.100  30.330  15.530
  337BOLB   NC1 8065  16.200  25.240  19.240
  337BOLB   PO1 8066  16.200  25.640  19.100
  337BOLB   GL1 8067  16.210  26.040  19.330
  337BOLB   GL2 8068  16.280  26.060  19.670
  337BOLB   C1A 8069  16.130  26.510  19.530
  337BOLB   C2A 8070  15.970  26.690  19.850
  337BOLB   C3A 8071  15.890  26.600  20.250
  337BOLB   C4A 8072  15.970  26.650  20.710
  337BOLB   C1B 8073  16.100  26.260  19.970
  337BOLB   C2B 8074  16.280  26.320  20.360
  337BOLB   C3B 8075  16.410  26.530  20.760
  337BOLB   C4B 8076  16.340  26.880  21.000
  337BOLB   NC2 8077  16.180  26.500  23.430
  337BOLB   PO2 8078  15.880  26.320  23.250
  337BOLB   GL3 8079  15.990  26.300  22.820
  337BOLB   GL4 8080  15.940  25.920  22.810
  337BOLB   C1C 8081  16.190  26.210  22.380
  337BOLB   C2C 8082  16.060  26.160  21.990
  337BOLB   C3C 8083  15.930  26.380  21.550
  337BOLB   C4C 8084  15.920  26.660  21.160
  337BOLB   C1D 8085  16.000  25.700  22.430
  337BOLB   C2D 8086  16.190  25.620  22.120
  337BOLB   C3D 8087  16.430  25.390  21.870
  337BOLB   C4D 8088  16.810  25.070  21.710
  338BOLB   NC1 8089   9.930  23.690  15.380
  338BOLB   PO1 8090   9.800  23.740  14.900
  338BOLB   GL1 8091   9.440  23.910  14.810
  338BOLB   GL2 8092   9.200  23.640  14.740
  338BOLB   C1A 8093   9.250  24.060  15.180
  338BOLB   C2A 8094   9.180  24.090  15.600
  338BOLB   C3A 8095   8.880  24.300  15.840
  338BOLB   C4A 8096   8.830  24.510  16.210
  338BOLB   C1B 8097   8.890  23.920  14.800
  338BOLB   C2B 8098   8.530  24.180  14.810
  338BOLB   C3B 8099   8.170  24.280  14.990
  338BOLB   C4B 8100   7.860  24.530  15.230
  338BOLB   NC2 8101   6.590  25.680  16.760
  338BOLB   PO2 8102   6.700  25.620  17.170
  338BOLB   GL3 8103   6.950  25.370  16.890
  338BOLB   GL4 8104   7.090  25.560  16.700
  338BOLB   C1C 8105   7.340  25.110  16.810
  338BOLB   C2C 8106   7.690  24.850  16.810
  338BOLB   C3C 8107   8.000  24.730  16.590
  338BOLB   C4C 8108   8.470  24.660  16.440
  338BOLB   C1D 8109   7.290  25.410  16.420
  338BOLB   C2D 8110   7.360  25.120  16.190
  338BOLB   C3D 8111   7.270  24.760  15.900
  338BOLB   C4D 8112   6.790  24.650  15.740
  339BOLB   NC1 8113  16.440  18.200  20.130
  339BOLB   PO1 8114  16.610  18.530  20.150
  339BOLB   GL1 8115  16.840  18.450  20.530
  339BOLB   GL2 8116  16.890  18.190  20.440
  339BOLB   C1A 8117  17.070  18.660  20.870
  339BOLB   C2A 8118  16.860  18.620  21.310
  339BOLB   C3A 8119  16.770  18.830  21.650
  339BOLB   C4A 8120  17.120  18.860  21.970
  339BOLB   C1B 8121  17.030  18.100  20.880
  339BOLB   C2B 8122  17.260  18.220  21.370
  339BOLB   C3B 8123  17.330  18.000  21.830
  339BOLB   C4B 8124  17.630  17.830  22.130
  339BOLB   NC2 8125  17.930  18.230  23.830
  339BOLB   PO2 8126  18.400  18.380  23.770
  339BOLB   GL3 8127  18.370  18.110  23.540
  339BOLB   GL4 8128  18.540  18.310  23.260
  339BOLB   C1C 8129  18.050  18.250  23.130
  339BOLB   C2C 8130  17.700  18.420  22.900
  339BOLB   C3C 8131  17.490  18.530  22.570
  339BOLB   C4C 8132  17.450  18.810  22.210
  339BOLB   C1D 8133  18.810  18.430  22.950
  339BOLB   C2D 8134  18.650  18.550  22.500
  339BOLB   C3D 8135  18.330  18.660  22.260
  339BOLB   C4D 8136  17.940  18.770  22.300
  340BOLB   NC1 8137  23.920  19.350  17.810
  340BOLB   PO1 8138  24.210  18.950  17.890
  340BOLB   GL1 8139  24.420  18.930  18.190
  340BOLB   GL2 8140  24.560  19.180  18.430
  340BOLB   C1A 8141  24.800  18.690  18.340
  340BOLB   C2A 8142  25.090  18.340  18.620
  340BOLB   C3A 8143  24.950  18.040  18.690
  340BOLB   C4A 8144  25.030  17.670  18.880
  340BOLB   C1B 8145  24.910  18.950  18.760
  340BOLB   C2B 8146  24.930  18.540  19.070
  340BOLB   C3B 8147  25.010  18.190  19.210
  340BOLB   C4B 8148  24.900  18.070  19.640
  340BOLB   NC2 8149  25.150  16.030  20.960
  340BOLB   PO2 8150  25.310  15.820  20.460
  340BOLB   GL3 8151  25.250  16.210  20.350
  340BOLB   GL4 8152  25.320  16.360  20.590
  340BOLB   C1C 8153  25.160  16.550  20.040
  340BOLB   C2C 8154  24.840  16.820  19.850
  340BOLB   C3C 8155  24.910  17.040  19.510
  340BOLB   C4C 8156  24.860  17.250  19.160
  340BOLB   C1D 8157  24.910  16.670  20.430
  340BOLB   C2D 8158  24.560  16.930  20.410
  340BOLB   C3D 8159  24.430  17.140  19.920
  340BOLB   C4D 8160  24.450  17.240  19.430
  341BOLB   NC1 8161  19.490  33.250  17.990
  341BOLB   PO1 8162  19.230  33.230  17.650
  341BOLB   GL1 8163  19.150  32.770  17.490
  341BOLB   GL2 8164  18.930  32.570  17.620
  341BOLB   C1A 8165  19.370  32.440  17.360
  341BOLB   C2A 8166  19.710  31.960  17.320
  341BOLB   C3A 8167  19.790  31.520  17.110
  341BOLB   C4A 8168  19.560  31.090  17.200
  341BOLB   C1B 8169  18.640  32.390  17.510
  341BOLB   C2B 8170  18.490  32.030  17.340
  341BOLB   C3B 8171  18.280  31.750  16.890
  341BOLB   C4B 8172  18.330  31.520  16.560
  341BOLB   NC2 8173  19.840  32.900  18.940
  341BOLB   PO2 8174  19.580  32.660  18.720
  341BOLB   GL3 8175  19.310  32.360  18.630
  341BOLB   GL4 8176  19.160  32.570  18.420
  341BOLB   C1C 8177  19.400  32.110  18.280
  341BOLB   C2C 8178  19.450  31.640  18.320
  341BOLB   C3C 8179  19.280  31.260  18.040
  341BOLB   C4C 8180  19.310  31.000  17.610
  341BOLB   C1D 8181  19.280  32.480  17.960
  341BOLB   C2D 8182  19.650  32.270  17.850
  341BOLB   C3D 8183  19.950  32.120  17.710
  341BOLB   C4D 8184  20.060  31.680  17.590
  342BOLB   NC1 8185  17.140  28.310  16.680
  342BOLB   PO1 8186  16.670  28.400  16.830
  342BOLB   GL1 8187  16.370  28.740  16.730
  342BOLB   GL2 8188  16.320  28.740  16.990
  342BOLB   C1A 8189  16.320  29.220  16.880
  342BOLB   C2A 8190  15.910  29.430  17.060
  342BOLB   C3A 8191  15.720  29.790  17.260
  342BOLB   C4A 8192  15.620  30.010  17.580
  342BOLB   C1B 8193  16.040  28.870  17.370
  342BOLB   C2B 8194  15.950  29.130  17.730
  342BOLB   C3B 8195  16.070  29.250  18.120
  342BOLB   C4B 8196  16.190  29.350  18.530
  342BOLB   NC2 8197  14.550  31.690  19.090
  342BOLB   PO2 8198  14.800  31.460  19.460
  342BOLB   GL3 8199  14.730  31.210  18.990
  342BOLB   GL4 8200  14.900  31.440  18.760
  342BOLB   C1C 8201  14.760  30.800  18.680
  342BOLB   C2C 8202  14.750  30.650  18.250
  342BOLB   C3C 8203  15.160  30.480  18.110
  342BOLB   C4C 8204  15.440  30.190  17.940
  342BOLB   C1D 8205  15.300  31.440  18.630
  342BOLB   C2D 8206  15.560  31.670  18.490
  342BOLB   C3D 8207  16.000  31.500  18.540
  342BOLB   C4D 8208  16.210  31.170  18.800
  343BOLB   NC1 8209  18.650  22.930  20.660
  343BOLB   PO1 8210  19.010  22.790  20.840
  343BOLB   GL1 8211  18.780  22.940  21.160
  343BOLB   GL2 8212  18.960  22.890  21.550
  343BOLB   C1A 8213  18.400  22.940  21.490
  343BOLB   C2A 8214  18.320  22.710  21.850
  343BOLB   C3A 8215  18.380  22.730  22.310
  343BOLB   C4A 8216  18.100  22.790  22.740
  343BOLB   C1B 8217  18.810  22.900  21.890
  343BOLB   C2B 8218  18.770  23.190  22.220
  343BOLB   C3B 8219  18.320  23.260  22.400
  343BOLB   C4B 8220  17.850  23.300  22.230
  343BOLB   NC2 8221  17.450  22.530  24.390
  343BOLB   PO2 8222  17.330  22.890  24.630
  343BOLB   GL3 8223  17.370  22.990  24.220
  343BOLB   GL4 8224  17.620  23.140  23.950
  343BOLB   C1C 8225  17.200  22.890  23.790
  343BOLB   C2C 8226  17.230  23.090  23.330
  343BOLB   C3C 8227  17.350  23.210  22.880
  343BOLB   C4C 8228  17.690  23.070  22.650
  343BOLB   C1D 8229  17.690  23.290  23.630
  343BOLB   C2D 8230  17.700  23.270  23.220
  343BOLB   C3D 8231  18.070  23.340  22.890
  343BOLB   C4D 8232  18.520  23.170  22.840
  344BOLB   NC1 8233  20.250  23.770  19.440
  344BOLB   PO1 8234  20.510  23.910  19.890
  344BOLB   GL1 8235  20.550  23.780  20.330
  344BOLB   GL2 8236  20.460  24.020  20.560
  344BOLB   C1A 8237  20.860  23.880  20.750
  344BOLB   C2A 8238  20.830  24.150  21.120
  344BOLB   C3A 8239  21.020  24.170  21.550
  344BOLB   C4A 8240  20.810  24.260  21.910
  344BOLB   C1B 8241  20.670  24.410  20.700
  344BOLB   C2B 8242  20.760  24.690  21.030
  344BOLB   C3B 8243  20.860  24.870  21.450
  344BOLB   C4B 8244  20.990  25.060  21.790
  344BOLB   NC2 8245  21.160  24.940  24.330
  344BOLB   PO2 8246  21.620  24.580  24.200
  344BOLB   GL3 8247  21.600  24.500  23.840
  344BOLB   GL4 8248  21.410  24.150  23.780
  344BOLB   C1C 8249  21.550  24.400  23.300
  344BOLB   C2C 8250  21.220  24.540  23.020
  344BOLB   C3C 8251  20.940  24.530  22.760
  344BOLB   C4C 8252  20.860  24.210  22.370
  344BOLB   C1D 8253  21.680  23.920  23.440
  344BOLB   C2D 8254  21.810  23.830  22.960
  344BOLB   C3D 8255  22.160  23.370  22.690
  344BOLB   C4D 8256  22.030  22.980  22.540
  345BOLB   NC1 8257  15.940  20.130  20.170
  345BOLB   PO1 8258  15.930  19.720  20.250
  345BOLB   GL1 8259  15.890  19.490  20.510
  345BOLB   GL2 8260  16.140  19.550  20.700
  345BOLB   C1A 8261  15.700  19.230  20.860
  345BOLB   C2A 8262  15.320  18.870  21.090
  345BOLB   C3A 8263  15.150  18.580  21.380
  345BOLB   C4A 8264  14.950  18.430  21.690
  345BOLB   C1B 8265  16.120  19.490  21.060
  345BOLB   C2B 8266  16.010  19.380  21.470
  345BOLB   C3B 8267  16.060  19.300  21.870
  345BOLB   C4B 8268  16.120  19.180  22.200
  345BOLB   NC2 8269  15.300  17.600  24.290
  345BOLB   PO2 8270  15.040  17.310  23.960
  345BOLB   GL3 8271  14.970  17.720  23.660
  345BOLB   GL4 8272  14.960  18.030  23.680
  345BOLB   C1C 8273  14.860  17.910  23.190
  345BOLB   C2C 8274  14.970  18.160  22.860
  345BOLB   C3C 8275  14.980  18.130  22.480
  345BOLB   C4C 8276  15.010  18.060  22.070
  345BOLB   C1D 8277  14.740  18.340  23.330
  345BOLB   C2D 8278  14.470  18.400  23.030
  345BOLB   C3D 8279  14.320  18.610  22.760
  345BOLB   C4D 8280  14.360  19.100  22.840
  346BOLB   NC1 8281  29.040  17.450  16.940
  346BOLB   PO1 8282  28.700  17.580  17.200
  346BOLB   GL1 8283  28.300  17.760  17.270
  346BOLB   GL2 8284  28.160  17.710  17.720
  346BOLB   C1A 8285  27.810  17.940  17.150
  346BOLB   C2A 8286  27.440  18.000  17.030
  346BOLB   C3A 8287  27.160  18.210  17.120
  346BOLB   C4A 8288  27.020  18.560  17.120
  346BOLB   C1B 8289  27.840  17.980  17.790
  346BOLB   C2B 8290  28.020  18.470  17.850
  346BOLB   C3B 8291  28.070  18.930  17.920
  346BOLB   C4B 8292  28.060  19.300  18.190
  346BOLB   NC2 8293  28.470  18.270  19.020
  346BOLB   PO2 8294  28.390  18.690  19.080
  346BOLB   GL3 8295  28.060  18.900  18.830
  346BOLB   GL4 8296  27.960  19.180  18.910
  346BOLB   C1C 8297  27.810  18.920  18.380
  346BOLB   C2C 8298  27.400  18.900  18.290
  346BOLB   C3C 8299  27.110  18.820  18.020
  346BOLB   C4C 8300  27.090  18.680  17.610
  346BOLB   C1D 8301  27.700  19.420  18.490
  346BOLB   C2D 8302  27.390  19.460  18.000
  346BOLB   C3D 8303  27.110  19.800  17.860
  346BOLB   C4D 8304  26.750  19.950  17.740
  347BOLB   NC1 8305  20.080  28.650  17.320
  347BOLB   PO1 8306  20.210  28.350  17.700
  347BOLB   GL1 8307  20.200  28.610  18.030
  347BOLB   GL2 8308  20.490  28.730  18.160
  347BOLB   C1A 8309  20.050  29.060  18.160
  347BOLB   C2A 8310  20.040  29.490  18.460
  347BOLB   C3A 8311  19.990  29.790  18.850
  347BOLB   C4A 8312  20.180  30.130  19.090
  347BOLB   C1B 8313  20.700  29.050  18.400
  347BOLB   C2B 8314  20.970  29.370  18.570
  347BOLB   C3B 8315  21.010  29.820  18.780
  347BOLB   C4B 8316  21.130  30.300  18.920
  347BOLB   NC2 8317  20.640  31.140  20.380
  347BOLB   PO2 8318  20.500  31.410  20.010
  347BOLB   GL3 8319  20.400  30.970  19.980
  347BOLB   GL4 8320  20.510  30.660  20.180
  347BOLB   C1C 8321  20.070  30.660  19.820
  347BOLB   C2C 8322  19.750  30.680  19.600
  347BOLB   C3C 8323  19.820  30.820  19.250
  347BOLB   C4C 8324  19.930  30.540  19.090
  347BOLB   C1D 8325  20.480  30.360  19.880
  347BOLB   C2D 8326  20.540  30.110  19.480
  347BOLB   C3D 8327  20.460  29.710  19.150
  347BOLB   C4D 8328  20.130  29.370  19.230
  348BOLB   NC1 8329  17.870  12.250  14.430
  348BOLB   PO1 8330  17.590  11.990  14.290
  348BOLB   GL1 8331  17.860  11.710  14.480
  348BOLB   GL2 8332  18.220  11.720  14.470
  348BOLB   C1A 8333  17.970  11.320  14.710
  348BOLB   C2A 8334  18.260  11.020  14.950
  348BOLB   C3A 8335  18.420  10.690  14.940
  348BOLB   C4A 8336  18.750  10.500  15.080
  348BOLB   C1B 8337  18.470  11.360  14.410
  348BOLB   C2B 8338  18.420  10.940  14.400
  348BOLB   C3B 8339  18.280  10.510  14.400
  348BOLB   C4B 8340  17.850  10.450  14.220
  348BOLB   NC2 8341  18.730   8.070  16.320
  348BOLB   PO2 8342  18.940   8.300  16.040
  348BOLB   GL3 8343  19.150   8.710  16.020
  348BOLB   GL4 8344  18.880   8.870  15.960
  348BOLB   C1C 8345  19.110   9.190  16.200
  348BOLB   C2C 8346  19.010   9.620  15.970
  348BOLB   C3C 8347  18.880   9.910  15.710
  348BOLB   C4C 8348  18.810  10.230  15.370
  348BOLB   C1D 8349  18.590   9.180  16.020
  348BOLB   C2D 8350  18.390   9.570  15.890
  348BOLB   C3D 8351  18.040   9.580  15.490
  348BOLB   C4D 8352  18.050   9.930  15.230
  349BOLB   NC1 8353  11.220  17.790  18.460
  349BOLB   PO1 8354  11.510  17.790  18.710
  349BOLB   GL1 8355  11.240  17.750  19.050
  349BOLB   GL2 8356  11.550  17.680  19.160
  349BOLB   C1A 8357  11.020  17.790  19.480
  349BOLB   C2A 8358  11.070  17.840  19.920
  349BOLB   C3A 8359  11.210  18.190  20.090
  349BOLB   C4A 8360  11.310  18.470  20.370
  349BOLB   C1B 8361  11.330  17.370  19.420
  349BOLB   C2B 8362  11.230  17.380  19.840
  349BOLB   C3B 8363  10.900  17.400  20.110
  349BOLB   C4B 8364  10.620  17.290  20.410
  349BOLB   NC2 8365  11.010  19.160  22.790
  349BOLB   PO2 8366  10.480  19.090  22.730
  349BOLB   GL3 8367  10.820  18.960  22.370
  349BOLB   GL4 8368  10.670  19.300  22.280
  349BOLB   C1C 8369  10.940  19.040  22.020
  349BOLB   C2C 8370  11.130  18.850  21.610
  349BOLB   C3C 8371  11.120  18.810  21.100
  349BOLB   C4C 8372  11.100  18.800  20.620
  349BOLB   C1D 8373  10.770  19.670  22.010
  349BOLB   C2D 8374  11.030  19.960  21.870
  349BOLB   C3D 8375  11.080  20.380  21.920
  349BOLB   C4D 8376  11.310  20.820  21.910
  350BOLB   NC1 8377  13.880  10.740  20.150
  350BOLB   PO1 8378  14.120  10.390  19.920
  350BOLB   GL1 8379  14.180  10.840  19.720
  350BOLB   GL2 8380  14.470  11.020  19.780
  350BOLB   C1A 8381  13.970  10.950  19.290
  350BOLB   C2A 8382  13.680  11.160  19.030
  350BOLB   C3A 8383  13.670  11.550  18.700
  350BOLB   C4A 8384  13.320  11.870  18.510
  350BOLB   C1B 8385  14.420  11.150  19.380
  350BOLB   C2B 8386  14.440  11.510  19.190
  350BOLB   C3B 8387  14.480  11.850  19.080
  350BOLB   C4B 8388  14.400  12.270  19.150
  350BOLB   NC2 8389  12.230  11.130  20.500
  350BOLB   PO2 8390  12.400  11.370  20.270
  350BOLB   GL3 8391  12.570  11.810  20.190
  350BOLB   GL4 8392  12.830  11.890  20.300
  350BOLB   C1C 8393  12.570  12.020  19.840
  350BOLB   C2C 8394  12.750  12.310  19.500
  350BOLB   C3C 8395  12.880  12.260  19.060
  350BOLB   C4C 8396  12.950  12.080  18.640
  350BOLB   C1D 8397  13.050  12.160  20.010
  350BOLB   C2D 8398  13.470  12.210  19.810
  350BOLB   C3D 8399  13.940  12.280  19.830
  350BOLB   C4D 8400  14.300  12.450  19.620
  351BOLB   NC1 8401  18.970  13.690  11.600
  351BOLB   PO1 8402  18.900  13.150  11.540
  351BOLB   GL1 8403  18.900  12.720  11.590
  351BOLB   GL2 8404  18.760  12.610  11.190
  351BOLB   C1A 8405  19.010  12.290  11.630
  351BOLB   C2A 8406  19.290  11.870  11.790
  351BOLB   C3A 8407  19.680  11.700  11.960
  351BOLB   C4A 8408  19.860  11.570  11.730
  351BOLB   C1B 8409  19.000  12.170  11.140
  351BOLB   C2B 8410  19.130  11.810  11.260
  351BOLB   C3B 8411  19.360  11.560  11.460
  351BOLB   C4B 8412  19.660  11.280  11.340
  351BOLB   NC2 8413  20.540   9.390  11.260
  351BOLB   PO2 8414  20.270   9.140  11.520
  351BOLB   GL3 8415  20.220   9.440  11.820
  351BOLB   GL4 8416  19.980   9.370  12.080
  351BOLB   C1C 8417  20.240   9.980  11.930
  351BOLB   C2C 8418  20.160  10.280  11.620
  351BOLB   C3C 8419  20.070  10.790  11.620
  351BOLB   C4C 8420  20.050  11.230  11.690
  351BOLB   C1D 8421  19.830   9.800  12.060
  351BOLB   C2D 8422  19.970  10.200  12.270
  351BOLB   C3D 8423  19.880  10.660  12.560
  351BOLB   C4D 8424  19.890  11.040  12.740
  352BOLB   NC1 8425  13.620  23.150  18.250
  352BOLB   PO1 8426  13.480  23.330  18.570
  352BOLB   GL1 8427  13.430  23.560  19.010
  352BOLB   GL2 8428  13.090  23.450  19.150
  352BOLB   C1A 8429  13.430  23.910  19.300
  352BOLB   C2A 8430  13.040  23.930  19.600
  352BOLB   C3A 8431  12.870  23.980  19.980
  352BOLB   C4A 8432  12.540  23.810  20.260
  352BOLB   C1B 8433  12.770  23.690  19.310
  352BOLB   C2B 8434  12.570  23.620  19.750
  352BOLB   C3B 8435  12.520  23.330  20.160
  352BOLB   C4B 8436  12.200  23.200  20.450
  352BOLB   NC2 8437  11.080  23.450  22.220
  352BOLB   PO2 8438  10.710  23.120  22.030
  352BOLB   GL3 8439  11.010  23.260  21.630
  352BOLB   GL4 8440  11.300  23.090  21.740
  352BOLB   C1C 8441  11.120  23.490  21.240
  352BOLB   C2C 8442  11.450  23.750  21.010
  352BOLB   C3C 8443  11.720  23.860  20.680
  352BOLB   C4C 8444  12.170  23.940  20.490
  352BOLB   C1D 8445  11.180  22.730  21.480
  352BOLB   C2D 8446  11.370  22.610  21.180
  352BOLB   C3D 8447  11.550  22.830  20.880
  352BOLB   C4D 8448  11.870  23.170  20.830
  353BOLB   NC1 8449  18.940  18.560  19.650
  353BOLB   PO1 8450  18.670  18.430  20.080
  353BOLB   GL1 8451  18.850  18.520  20.540
  353BOLB   GL2 8452  19.160  18.620  20.430
  353BOLB   C1A 8453  18.930  18.830  20.910
  353BOLB   C2A 8454  19.250  19.080  21.180
  353BOLB   C3A 8455  19.440  18.860  21.540
  353BOLB   C4A 8456  19.650  18.860  21.960
  353BOLB   C1B 8457  19.210  18.300  20.850
  353BOLB   C2B 8458  19.270  17.900  21.110
  353BOLB   C3B 8459  18.960  17.560  21.170
  353BOLB   C4B 8460  18.770  17.150  21.210
  353BOLB   NC2 8461  22.030  18.240  23.750
  353BOLB   PO2 8462  21.510  18.120  23.590
  353BOLB   GL3 8463  21.370  18.220  23.190
  353BOLB   GL4 8464  21.370  18.550  23.090
  353BOLB   C1C 8465  20.990  18.250  22.950
  353BOLB   C2C 8466  20.740  18.500  22.680
  353BOLB   C3C 8467  20.370  18.650  22.390
  353BOLB   C4C 8468  20.100  18.810  22.140
  353BOLB   C1D 8469  21.300  18.660  22.670
  353BOLB   C2D 8470  21.580  18.870  22.300
  353BOLB   C3D 8471  21.610  19.070  21.880
  353BOLB   C4D 8472  21.720  19.230  21.430
  354BOLB   NC1 8473  24.940  22.440  17.650
  354BOLB   PO1 8474  25.210  22.780  17.380
  354BOLB   GL1 8475  25.520  22.520  17.490
  354BOLB   GL2 8476  25.840  22.650  17.530
  354BOLB   C1A 8477  25.690  22.420  17.940
  354BOLB   C2A 8478  26.150  22.290  17.970
  354BOLB   C3A 8479  26.580  22.460  18.070
  354BOLB   C4A 8480  26.940  22.810  18.160
  354BOLB   C1B 8481  26.140  22.420  17.480
  354BOLB   C2B 8482  26.590  22.360  17.540
  354BOLB   C3B 8483  26.960  22.420  17.810
  354BOLB   C4B 8484  27.290  22.240  18.140
  354BOLB   NC2 8485  28.210  21.690  19.780
  354BOLB   PO2 8486  28.130  22.050  20.000
  354BOLB   GL3 8487  27.820  22.390  19.990
  354BOLB   GL4 8488  27.610  22.650  20.050
  354BOLB   C1C 8489  27.680  22.500  19.580
  354BOLB   C2C 8490  27.330  22.750  19.340
  354BOLB   C3C 8491  27.090  22.780  19.050
  354BOLB   C4C 8492  26.940  22.970  18.640
  354BOLB   C1D 8493  27.160  22.610  19.940
  354BOLB   C2D 8494  26.730  22.390  19.810
  354BOLB   C3D 8495  26.330  22.590  19.840
  354BOLB   C4D 8496  26.230  22.960  19.910
  355BOLB   NC1 8497  19.190  13.530  13.840
  355BOLB   PO1 8498  19.220  13.040  13.700
  355BOLB   GL1 8499  19.480  12.640  13.660
  355BOLB   GL2 8500  19.820  12.540  13.490
  355BOLB   C1A 8501  19.740  12.110  13.740
  355BOLB   C2A 8502  19.840  11.760  14.020
  355BOLB   C3A 8503  19.860  11.320  14.010
  355BOLB   C4A 8504  19.940  11.050  13.700
  355BOLB   C1B 8505  20.110  12.340  13.490
  355BOLB   C2B 8506  20.260  12.100  13.780
  355BOLB   C3B 8507  20.300  12.030  14.200
  355BOLB   C4B 8508  20.420  12.240  14.630
  355BOLB   NC2 8509  20.220   9.100  12.490
  355BOLB   PO2 8510  20.230   8.890  12.860
  355BOLB   GL3 8511  19.870   9.140  12.840
  355BOLB   GL4 8512  19.710   9.220  12.520
  355BOLB   C1C 8513  19.760   9.530  12.990
  355BOLB   C2C 8514  19.650   9.810  13.240
  355BOLB   C3C 8515  19.690  10.160  13.620
  355BOLB   C4C 8516  19.760  10.640  13.470
  355BOLB   C1D 8517  19.570   9.650  12.510
  355BOLB   C2D 8518  19.540  10.160  12.640
  355BOLB   C3D 8519  19.360  10.550  12.440
  355BOLB   C4D 8520  19.370  10.980  12.480
  356BOLB   NC1 8521  13.110  16.420  19.500
  356BOLB   PO1 8522  12.830  16.150  19.460
  356BOLB   GL1 8523  12.740  15.890  19.800
  356BOLB   GL2 8524  12.760  15.580  19.620
  356BOLB   C1A 8525  12.490  15.570  20.000
  356BOLB   C2A 8526  12.070  15.450  20.030
  356BOLB   C3A 8527  11.880  15.120  20.100
  356BOLB   C4A 8528  12.000  14.880  20.430
  356BOLB   C1B 8529  12.880  15.240  19.810
  356BOLB   C2B 8530  12.830  14.880  20.190
  356BOLB   C3B 8531  13.000  14.470  20.390
  356BOLB   C4B 8532  12.940  14.030  20.480
  356BOLB   NC2 8533  12.860  14.800  23.390
  356BOLB   PO2 8534  12.670  14.550  22.910
  356BOLB   GL3 8535  12.560  14.660  22.450
  356BOLB   GL4 8536  12.500  15.080  22.520
  356BOLB   C1C 8537  12.620  14.570  21.990
  356BOLB   C2C 8538  12.310  14.640  21.670
  356BOLB   C3C 8539  12.390  14.690  21.130
  356BOLB   C4C 8540  12.300  14.890  20.700
  356BOLB   C1D 8541  12.550  15.030  22.170
  356BOLB   C2D 8542  12.650  15.070  21.740
  356BOLB   C3D 8543  12.620  15.110  21.380
  356BOLB   C4D 8544  12.510  15.160  21.040
  357BOLB   NC1 8545  24.610  18.720  14.740
  357BOLB   PO1 8546  24.840  18.660  15.120
  357BOLB   GL1 8547  25.160  18.420  15.150
  357BOLB   GL2 8548  25.350  18.060  14.930
  357BOLB   C1A 8549  25.500  18.190  15.400
  357BOLB   C2A 8550  25.900  18.050  15.350
  357BOLB   C3A 8551  26.310  18.210  15.230
  357BOLB   C4A 8552  26.540  17.790  15.130
  357BOLB   C1B 8553  25.580  17.720  15.160
  357BOLB   C2B 8554  25.850  17.420  15.320
  357BOLB   C3B 8555  26.040  17.050  15.140
  357BOLB   C4B 8556  26.290  16.800  14.920
  357BOLB   NC2 8557  29.090  16.610  14.770
  357BOLB   PO2 8558  28.880  16.920  15.090
  357BOLB   GL3 8559  28.430  17.050  15.240
  357BOLB   GL4 8560  28.570  17.270  15.420
  357BOLB   C1C 8561  28.010  17.040  15.280
  357BOLB   C2C 8562  27.710  17.180  15.340
  357BOLB   C3C 8563  27.300  17.330  15.310
  357BOLB   C4C 8564  26.910  17.540  15.320
  357BOLB   C1D 8565  28.200  17.470  15.310
  357BOLB   C2D 8566  27.890  17.650  15.030
  357BOLB   C3D 8567  27.500  17.800  15.100
  357BOLB   C4D 8568  27.320  18.090  15.480
  358BOLB   NC1 8569  25.550  23.110  16.460
  358BOLB   PO1 8570  25.680  22.720  16.580
  358BOLB   GL1 8571  26.070  22.680  16.710
  358BOLB   GL2 8572  26.060  22.640  17.060
  358BOLB   C1A 8573  26.490  22.730  16.720
  358BOLB   C2A 8574  26.990  22.590  16.770
  358BOLB   C3A 8575  27.290  22.490  16.980
  358BOLB   C4A 8576  27.770  22.320  17.180
  358BOLB   C1B 8577  26.370  22.300  16.910
  358BOLB   C2B 8578  26.760  22.190  16.990
  358BOLB   C3B 8579  27.010  22.150  17.370
  358BOLB   C4B 8580  27.360  22.290  17.590
  358BOLB   NC2 8581  29.640  22.150  18.970
  358BOLB   PO2 8582  29.390  22.460  18.900
  358BOLB   GL3 8583  28.960  22.500  18.680
  358BOLB   GL4 8584  28.890  22.770  18.710
  358BOLB   C1C 8585  28.550  22.240  18.590
  358BOLB   C2C 8586  28.250  22.200  18.350
  358BOLB   C3C 8587  28.100  22.020  17.970
  358BOLB   C4C 8588  27.910  22.070  17.530
  358BOLB   C1D 8589  28.610  23.150  18.760
  358BOLB   C2D 8590  28.270  23.150  18.730
  358BOLB   C3D 8591  27.860  23.010  18.710
  358BOLB   C4D 8592  27.530  22.830  18.390
  359BOLB   NC1 8593  18.320  22.380  20.550
  359BOLB   PO1 8594  18.160  22.760  20.620
  359BOLB   GL1 8595  18.170  22.950  20.980
  359BOLB   GL2 8596  18.400  23.220  21.070
  359BOLB   C1A 8597  17.800  23.110  21.180
  359BOLB   C2A 8598  17.580  23.270  21.520
  359BOLB   C3A 8599  17.650  23.530  21.830
  359BOLB   C4A 8600  17.610  23.750  22.210
  359BOLB   C1B 8601  18.510  23.380  21.480
  359BOLB   C2B 8602  18.860  23.370  21.700
  359BOLB   C3B 8603  19.200  23.260  21.990
  359BOLB   C4B 8604  19.270  22.860  22.140
  359BOLB   NC2 8605  16.930  25.420  24.190
  359BOLB   PO2 8606  17.150  25.010  23.970
  359BOLB   GL3 8607  17.260  25.060  23.560
  359BOLB   GL4 8608  17.370  25.440  23.360
  359BOLB   C1C 8609  17.580  24.870  23.350
  359BOLB   C2C 8610  17.460  24.540  23.190
  359BOLB   C3C 8611  17.610  24.230  22.770
  359BOLB   C4C 8612  17.280  24.040  22.440
  359BOLB   C1D 8613  17.220  25.850  23.160
  359BOLB   C2D 8614  17.000  25.960  22.790
  359BOLB   C3D 8615  17.090  25.760  22.340
  359BOLB   C4D 8616  16.880  25.530  21.970
  360BOLB   NC1 8617  25.290  23.460  10.940
  360BOLB   PO1 8618  25.780  23.470  10.820
  360BOLB   GL1 8619  26.260  23.500  10.840
  360BOLB   GL2 8620  26.460  23.760  10.820
  360BOLB   C1A 8621  26.780  23.420  10.620
  360BOLB   C2A 8622  26.880  23.050  10.320
  360BOLB   C3A 8623  27.220  23.090   9.950
  360BOLB   C4A 8624  27.540  23.420   9.960
  360BOLB   C1B 8625  26.850  23.860  10.800
  360BOLB   C2B 8626  27.200  23.960  11.140
  360BOLB   C3B 8627  27.490  24.240  11.040
  360BOLB   C4B 8628  27.770  24.260  10.780
  360BOLB   NC2 8629  29.480  23.250   9.370
  360BOLB   PO2 8630  29.740  23.550   9.280
  360BOLB   GL3 8631  29.450  23.710   9.660
  360BOLB   GL4 8632  29.340  24.030   9.680
  360BOLB   C1C 8633  29.000  23.600   9.580
  360BOLB   C2C 8634  28.690  23.540   9.920
  360BOLB   C3C 8635  28.340  23.890   9.880
  360BOLB   C4C 8636  27.890  23.760   9.840
  360BOLB   C1D 8637  28.910  24.140   9.900
  360BOLB   C2D 8638  28.670  24.120  10.190
  360BOLB   C3D 8639  28.370  24.010  10.380
  360BOLB   C4D 8640  27.940  23.900  10.330
  361BOLB   NC1 8641  18.350  25.100  19.980
  361BOLB   PO1 8642  18.040  25.200  20.210
  361BOLB   GL1 8643  17.980  25.310  20.680
  361BOLB   GL2 8644  18.000  25.680  20.810
  361BOLB   C1A 8645  17.960  25.370  21.140
  361BOLB   C2A 8646  18.080  25.100  21.670
  361BOLB   C3A 8647  18.260  24.750  21.910
  361BOLB   C4A 8648  18.400  24.650  22.300
  361BOLB   C1B 8649  17.920  25.910  21.110
  361BOLB   C2B 8650  17.990  26.330  21.280
  361BOLB   C3B 8651  18.290  26.730  21.310
  361BOLB   C4B 8652  18.750  26.650  21.200
  361BOLB   NC2 8653  19.790  24.610  24.360
  361BOLB   PO2 8654  19.380  24.890  24.440
  361BOLB   GL3 8655  19.430  24.800  24.090
  361BOLB   GL4 8656  19.660  24.820  23.780
  361BOLB   C1C 8657  19.160  24.590  23.770
  361BOLB   C2C 8658  19.030  24.730  23.400
  361BOLB   C3C 8659  18.940  24.660  22.830
  361BOLB   C4C 8660  18.730  24.760  22.520
  361BOLB   C1D 8661  19.550  24.580  23.410
  361BOLB   C2D 8662  19.450  24.740  23.090
  361BOLB   C3D 8663  19.400  24.780  22.520
  361BOLB   C4D 8664  19.150  24.780  22.140
  362BOLB   NC1 8665  14.370  20.910  19.570
  362BOLB   PO1 8666  14.030  20.700  19.890
  362BOLB   GL1 8667  14.070  20.740  20.330
  362BOLB   GL2 8668  14.320  20.540  20.470
  362BOLB   C1A 8669  14.020  21.230  20.580
  362BOLB   C2A 8670  14.060  21.490  20.900
  362BOLB   C3A 8671  13.820  21.730  21.270
  362BOLB   C4A 8672  13.490  21.650  21.490
  362BOLB   C1B 8673  14.120  20.640  20.820
  362BOLB   C2B 8674  13.910  20.980  21.020
  362BOLB   C3B 8675  14.130  21.260  21.300
  362BOLB   C4B 8676  14.370  21.270  21.690
  362BOLB   NC2 8677  13.730  20.840  23.970
  362BOLB   PO2 8678  13.200  20.970  23.960
  362BOLB   GL3 8679  13.390  20.980  23.620
  362BOLB   GL4 8680  13.650  20.970  23.410
  362BOLB   C1C 8681  13.240  21.160  23.160
  362BOLB   C2C 8682  13.460  21.290  22.700
  362BOLB   C3C 8683  13.420  21.490  22.370
  362BOLB   C4C 8684  13.440  21.640  21.960
  362BOLB   C1D 8685  13.850  20.620  23.190
  362BOLB   C2D 8686  13.850  20.400  22.800
  362BOLB   C3D 8687  13.820  20.030  22.720
  362BOLB   C4D 8688  14.030  19.940  22.290
  363BOLB   NC1 8689  17.220  21.340  20.290
  363BOLB   PO1 8690  17.660  21.320  20.340
  363BOLB   GL1 8691  17.780  21.340  20.800
  363BOLB   GL2 8692  18.100  21.430  20.920
  363BOLB   C1A 8693  17.690  21.350  21.220
  363BOLB   C2A 8694  17.640  21.410  21.620
  363BOLB   C3A 8695  17.800  21.300  22.060
  363BOLB   C4A 8696  17.870  20.940  22.150
  363BOLB   C1B 8697  18.190  21.440  21.400
  363BOLB   C2B 8698  18.150  21.590  21.850
  363BOLB   C3B 8699  18.180  21.610  22.260
  363BOLB   C4B 8700  18.310  21.310  22.500
  363BOLB   NC2 8701  18.290  20.770  24.620
  363BOLB   PO2 8702  18.540  20.430  24.440
  363BOLB   GL3 8703  18.430  20.240  24.020
  363BOLB   GL4 8704  18.240  19.920  23.930
  363BOLB   C1C 8705  18.210  20.330  23.650
  363BOLB   C2C 8706  17.960  20.500  23.390
  363BOLB   C3C 8707  17.850  20.780  23.040
  363BOLB   C4C 8708  17.800  21.050  22.590
  363BOLB   C1D 8709  17.840  20.030  23.620
  363BOLB   C2D 8710  17.910  20.050  23.170
  363BOLB   C3D 8711  17.680  20.300  22.950
  363BOLB   C4D 8712  17.580  20.310  22.530
  364BOLB   NC1 8713  16.750  19.600  19.840
  364BOLB   PO1 8714  16.860  19.570  20.280
  364BOLB   GL1 8715  16.790  19.410  20.700
  364BOLB   GL2 8716  16.550  19.570  20.920
  364BOLB   C1A 8717  17.000  19.260  21.090
  364BOLB   C2A 8718  17.140  18.990  21.310
  364BOLB   C3A 8719  17.440  18.720  21.460
  364BOLB   C4A 8720  17.550  18.510  21.790
  364BOLB   C1B 8721  16.710  19.490  21.380
  364BOLB   C2B 8722  16.600  19.280  21.740
  364BOLB   C3B 8723  16.560  18.990  22.060
  364BOLB   C4B 8724  16.680  18.640  22.210
  364BOLB   NC2 8725  19.110  17.780  24.210
  364BOLB   PO2 8726  19.050  17.670  23.710
  364BOLB   GL3 8727  18.870  17.810  23.360
  364BOLB   GL4 8728  18.550  17.540  23.430
  364BOLB   C1C 8729  18.610  17.900  23.010
  364BOLB   C2C 8730  18.410  18.210  22.790
  364BOLB   C3C 8731  18.080  18.380  22.570
  364BOLB   C4C 8732  17.750  18.300  22.220
  364BOLB   C1D 8733  18.140  17.560  23.280
  364BOLB   C2D 8734  17.740  17.500  23.050
  364BOLB   C3D 8735  17.270  17.350  22.900
  364BOLB   C4D 8736  16.800  17.190  22.900
  365BOLB   NC1 8737  15.800  26.930  17.880
  365BOLB   PO1 8738  15.950  26.930  18.220
  365BOLB   GL1 8739  15.630  27.160  18.330
  365BOLB   GL2 8740  15.480  27.040  18.570
  365BOLB   C1A 8741  15.600  27.580  18.550
  365BOLB   C2A 8742  15.730  27.900  18.860
  365BOLB   C3A 8743  15.640  28.070  19.210
  365BOLB   C4A 8744  15.240  28.180  19.450
  365BOLB   C1B 8745  15.240  27.240  18.870
  365BOLB   C2B 8746  14.940  27.460  19.020
  365BOLB   C3B 8747  14.500  27.720  18.940
  365BOLB   C4B 8748  14.280  28.140  18.930
  365BOLB   NC2 8749  13.720  29.660  21.110
  365BOLB   PO2 8750  14.120  29.350  21.140
  365BOLB   GL3 8751  14.450  29.190  20.960
  365BOLB   GL4 8752  14.450  28.940  21.120
  365BOLB   C1C 8753  14.430  29.070  20.600
  365BOLB   C2C 8754  14.500  29.010  20.230
  365BOLB   C3C 8755  14.650  28.720  19.900
  365BOLB   C4C 8756  14.970  28.480  19.580
  365BOLB   C1D 8757  14.410  28.550  20.910
  365BOLB   C2D 8758  14.250  28.210  20.840
  365BOLB   C3D 8759  14.380  27.850  20.580
  365BOLB   C4D 8760  14.410  27.760  20.080
  366BOLB   NC1 8761  13.250  13.890  14.890
  366BOLB   PO1 8762  13.160  14.080  14.550
  366BOLB   GL1 8763  13.230  14.510  14.460
  366BOLB   GL2 8764  13.480  14.720  14.400
  366BOLB   C1A 8765  13.040  14.810  14.200
  366BOLB   C2A 8766  12.820  15.060  14.290
  366BOLB   C3A 8767  12.510  15.180  14.310
  366BOLB   C4A 8768  12.240  15.350  14.030
  366BOLB   C1B 8769  13.610  14.960  14.100
  366BOLB   C2B 8770  13.700  15.450  13.930
  366BOLB   C3B 8771  13.840  15.800  14.040
  366BOLB   C4B 8772  14.050  16.140  14.340
  366BOLB   NC2 8773  11.320  17.460  12.650
  366BOLB   PO2 8774  11.210  16.900  12.630
  366BOLB   GL3 8775  11.270  16.420  12.720
  366BOLB   GL4 8776  11.520  16.300  12.440
  366BOLB   C1C 8777  11.320  16.390  13.130
  366BOLB   C2C 8778  11.460  16.150  13.350
  366BOLB   C3C 8779  11.720  15.660  13.360
  366BOLB   C4C 8780  11.900  15.320  13.690
  366BOLB   C1D 8781  11.810  16.220  12.890
  366BOLB   C2D 8782  11.990  16.100  13.400
  366BOLB   C3D 8783  12.160  16.330  13.730
  366BOLB   C4D 8784  12.550  16.360  13.840
  367BOLB   NC1 8785  23.650  19.250  18.710
  367BOLB   PO1 8786  23.580  18.920  18.430
  367BOLB   GL1 8787  23.730  18.750  18.820
  367BOLB   GL2 8788  24.000  18.920  19.050
  367BOLB   C1A 8789  23.940  18.350  18.910
  367BOLB   C2A 8790  24.060  17.920  19.090
  367BOLB   C3A 8791  24.210  17.660  19.390
  367BOLB   C4A 8792  24.040  17.460  19.800
  367BOLB   C1B 8793  24.360  18.640  19.270
  367BOLB   C2B 8794  24.800  18.720  19.530
  367BOLB   C3B 8795  24.940  18.790  20.010
  367BOLB   C4B 8796  25.080  18.630  20.400
  367BOLB   NC2 8797  24.450  17.600  21.900
  367BOLB   PO2 8798  23.960  17.570  22.010
  367BOLB   GL3 8799  23.930  17.580  21.490
  367BOLB   GL4 8800  24.140  17.640  21.330
  367BOLB   C1C 8801  23.770  17.360  21.130
  367BOLB   C2C 8802  23.690  17.290  20.750
  367BOLB   C3C 8803  23.550  17.320  20.350
  367BOLB   C4C 8804  23.700  17.260  20.000
  367BOLB   C1D 8805  23.780  17.970  21.170
  367BOLB   C2D 8806  23.470  18.170  20.940
  367BOLB   C3D 8807  23.200  18.190  20.740
  367BOLB   C4D 8808  23.170  18.270  20.330
  368BOLB   NC1 8809  21.070  22.180  20.220
  368BOLB   PO1 8810  21.220  21.750  20.040
  368BOLB   GL1 8811  21.560  21.640  20.340
  368BOLB   GL2 8812  21.840  21.760  20.260
  368BOLB   C1A 8813  21.710  21.580  20.810
  368BOLB   C2A 8814  21.620  21.350  21.230
  368BOLB   C3A 8815  21.800  21.190  21.550
  368BOLB   C4A 8816  22.000  21.400  21.910
  368BOLB   C1B 8817  22.040  21.830  20.620
  368BOLB   C2B 8818  22.330  21.800  21.000
  368BOLB   C3B 8819  22.320  22.000  21.390
  368BOLB   C4B 8820  22.240  21.760  21.730
  368BOLB   NC2 8821  22.150  22.210  23.970
  368BOLB   PO2 8822  22.060  21.830  24.210
  368BOLB   GL3 8823  21.870  21.830  23.860
  368BOLB   GL4 8824  21.630  21.560  23.670
  368BOLB   C1C 8825  21.770  21.930  23.480
  368BOLB   C2C 8826  21.900  21.660  23.060
  368BOLB   C3C 8827  22.110  21.550  22.780
  368BOLB   C4C 8828  22.240  21.540  22.300
  368BOLB   C1D 8829  21.620  21.310  23.260
  368BOLB   C2D 8830  21.770  21.210  22.910
  368BOLB   C3D 8831  21.750  21.130  22.470
  368BOLB   C4D 8832  21.670  21.030  22.020
  369BOLB   NC1 8833  24.570  22.110  18.350
  369BOLB   PO1 8834  24.440  21.710  18.090
  369BOLB   GL1 8835  24.740  21.530  18.450
  369BOLB   GL2 8836  25.010  21.500  18.330
  369BOLB   C1A 8837  24.860  21.340  18.880
  369BOLB   C2A 8838  25.200  21.350  19.290
  369BOLB   C3A 8839  25.550  21.560  19.410
  369BOLB   C4A 8840  25.880  21.600  19.660
  369BOLB   C1B 8841  25.270  21.540  18.650
  369BOLB   C2B 8842  25.580  21.380  18.850
  369BOLB   C3B 8843  25.990  21.310  19.120
  369BOLB   C4B 8844  26.250  21.160  19.390
  369BOLB   NC2 8845  27.410  19.820  20.620
  369BOLB   PO2 8846  27.470  20.160  20.920
  369BOLB   GL3 8847  27.090  20.380  20.680
  369BOLB   GL4 8848  27.160  20.240  20.380
  369BOLB   C1C 8849  26.740  20.730  20.580
  369BOLB   C2C 8850  26.480  20.880  20.270
  369BOLB   C3C 8851  26.200  21.140  20.050
  369BOLB   C4C 8852  25.920  21.320  19.950
  369BOLB   C1D 8853  27.020  20.630  20.180
  369BOLB   C2D 8854  26.920  21.100  20.190
  369BOLB   C3D 8855  26.770  21.420  20.010
  369BOLB   C4D 8856  26.460  21.510  19.700
  370BOLB   NC1 8857  19.530  19.010  19.520
  370BOLB   PO1 8858  19.810  18.980  19.850
  370BOLB   GL1 8859  19.800  18.930  20.330
  370BOLB   GL2 8860  19.960  18.810  20.340
  370BOLB   C1A 8861  19.610  18.790  20.680
  370BOLB   C2A 8862  19.500  18.670  21.090
  370BOLB   C3A 8863  19.330  18.430  21.330
  370BOLB   C4A 8864  19.190  18.450  21.880
  370BOLB   C1B 8865  20.170  18.910  20.730
  370BOLB   C2B 8866  20.170  19.030  21.170
  370BOLB   C3B 8867  20.060  19.030  21.640
  370BOLB   C4B 8868  20.470  19.110  21.890
  370BOLB   NC2 8869  18.810  17.230  23.690
  370BOLB   PO2 8870  18.810  16.840  23.450
  370BOLB   GL3 8871  18.420  17.030  23.270
  370BOLB   GL4 8872  18.370  16.900  22.920
  370BOLB   C1C 8873  18.450  17.390  22.980
  370BOLB   C2C 8874  18.650  17.570  22.580
  370BOLB   C3C 8875  18.750  17.990  22.500
  370BOLB   C4C 8876  19.110  18.250  22.240
  370BOLB   C1D 8877  18.660  17.050  22.710
  370BOLB   C2D 8878  18.920  17.250  22.330
  370BOLB   C3D 8879  19.070  17.420  21.920
  370BOLB   C4D 8880  19.100  17.810  21.630
  371BOLB   NC1 8881  18.040  14.510  18.090
  371BOLB   PO1 8882  18.160  14.080  17.950
  371BOLB   GL1 8883  18.410  13.910  18.230
  371BOLB   GL2 8884  18.220  13.870  18.410
  371BOLB   C1A 8885  18.650  13.670  18.460
  371BOLB   C2A 8886  18.760  13.540  18.860
  371BOLB   C3A 8887  18.830  13.220  19.130
  371BOLB   C4A 8888  19.080  12.920  19.290
  371BOLB   C1B 8889  18.280  13.460  18.090
  371BOLB   C2B 8890  18.370  12.940  18.190
  371BOLB   C3B 8891  18.300  12.570  18.050
  371BOLB   C4B 8892  18.140  12.200  17.790
  371BOLB   NC2 8893  20.460  11.130  19.970
  371BOLB   PO2 8894  20.250  10.790  19.650
  371BOLB   GL3 8895  20.060  11.200  19.620
  371BOLB   GL4 8896  19.670  11.270  19.610
  371BOLB   C1C 8897  19.980  11.660  19.440
  371BOLB   C2C 8898  19.810  12.020  19.410
  371BOLB   C3C 8899  19.400  12.200  19.230
  371BOLB   C4C 8900  19.130  12.500  19.080
  371BOLB   C1D 8901  19.480  11.700  19.630
  371BOLB   C2D 8902  19.130  11.820  19.410
  371BOLB   C3D 8903  18.980  11.990  19.020
  371BOLB   C4D 8904  18.790  11.990  18.610
  372BOLB   NC1 8905  12.420  24.690  15.940
  372BOLB   PO1 8906  11.980  24.570  15.980
  372BOLB   GL1 8907  11.440  24.560  16.080
  372BOLB   GL2 8908  11.340  24.360  16.360
  372BOLB   C1A 8909  11.140  24.830  16.320
  372BOLB   C2A 8910  10.910  25.110  16.620
  372BOLB   C3A 8911  10.680  25.460  16.730
  372BOLB   C4A 8912  10.350  25.720  16.740
  372BOLB   C1B 8913  11.000  24.470  16.630
  372BOLB   C2B 8914  10.610  24.680  16.760
  372BOLB   C3B 8915  10.480  24.860  17.130
  372BOLB   C4B 8916  10.660  24.610  17.500
  372BOLB   NC2 8917   8.710  27.060  17.750
  372BOLB   PO2 8918   8.990  26.900  18.050
  372BOLB   GL3 8919   9.210  26.880  17.670
  372BOLB   GL4 8920   9.060  27.040  17.390
  372BOLB   C1C 8921   9.230  26.550  17.450
  372BOLB   C2C 8922   9.250  26.260  17.180
  372BOLB   C3C 8923   9.560  26.070  16.850
  372BOLB   C4C 8924  10.040  26.040  16.710
  372BOLB   C1D 8925   9.390  26.960  17.180
  372BOLB   C2D 8926   9.610  26.570  16.950
  372BOLB   C3D 8927   9.830  26.490  16.680
  372BOLB   C4D 8928  10.000  26.340  16.280
  373BOLB   NC1 8929  21.340  18.070  19.330
  373BOLB   PO1 8930  21.170  17.720  19.100
  373BOLB   GL1 8931  21.370  17.530  19.480
  373BOLB   GL2 8932  21.600  17.780  19.620
  373BOLB   C1A 8933  21.380  17.290  19.870
  373BOLB   C2A 8934  21.310  17.100  20.320
  373BOLB   C3A 8935  21.560  17.390  20.520
  373BOLB   C4A 8936  21.860  17.770  20.810
  373BOLB   C1B 8937  21.900  17.510  19.690
  373BOLB   C2B 8938  22.390  17.470  19.920
  373BOLB   C3B 8939  22.510  17.290  20.350
  373BOLB   C4B 8940  22.910  17.300  20.630
  373BOLB   NC2 8941  23.460  16.790  22.700
  373BOLB   PO2 8942  23.700  17.180  22.460
  373BOLB   GL3 8943  23.480  17.390  22.050
  373BOLB   GL4 8944  23.590  17.340  21.760
  373BOLB   C1C 8945  23.150  17.570  21.850
  373BOLB   C2C 8946  22.910  17.830  21.510
  373BOLB   C3C 8947  22.580  17.990  21.360
  373BOLB   C4C 8948  22.210  17.860  21.050
  373BOLB   C1D 8949  23.310  17.170  21.590
  373BOLB   C2D 8950  23.310  17.080  21.230
  373BOLB   C3D 8951  23.610  16.890  20.990
  373BOLB   C4D 8952  23.690  16.820  20.540
  374BOLB   NC1 8953  17.170  15.000  18.290
  374BOLB   PO1 8954  17.460  15.400  18.430
  374BOLB   GL1 8955  17.400  15.030  18.820
  374BOLB   GL2 8956  17.710  14.960  18.990
  374BOLB   C1A 8957  17.390  14.590  18.980
  374BOLB   C2A 8958  17.510  14.340  19.340
  374BOLB   C3A 8959  17.470  13.950  19.450
  374BOLB   C4A 8960  17.590  13.590  19.790
  374BOLB   C1B 8961  17.850  14.700  19.410
  374BOLB   C2B 8962  18.010  14.380  19.730
  374BOLB   C3B 8963  18.040  14.140  20.140
  374BOLB   C4B 8964  18.250  13.920  20.450
  374BOLB   NC2 8965  19.290  11.850  20.730
  374BOLB   PO2 8966  19.280  12.260  20.860
  374BOLB   GL3 8967  18.960  12.110  20.500
  374BOLB   GL4 8968  18.630  12.160  20.580
  374BOLB   C1C 8969  18.730  12.320  20.110
  374BOLB   C2C 8970  18.580  12.650  20.230
  374BOLB   C3C 8971  18.310  13.060  19.990
  374BOLB   C4C 8972  17.980  13.380  19.960
  374BOLB   C1D 8973  18.440  12.490  20.670
  374BOLB   C2D 8974  18.140  12.780  20.560
  374BOLB   C3D 8975  17.800  13.090  20.320
  374BOLB   C4D 8976  17.420  13.340  20.230
  375BOLB   NC1 8977  23.620  28.580  13.230
  375BOLB   PO1 8978  24.010  28.690  12.970
  375BOLB   GL1 8979  24.300  28.800  12.750
  375BOLB   GL2 8980  24.670  28.600  12.750
  375BOLB   C1A 8981  24.650  29.170  12.820
  375BOLB   C2A 8982  24.890  29.380  13.010
  375BOLB   C3A 8983  24.950  29.760  13.300
  375BOLB   C4A 8984  25.120  29.980  13.650
  375BOLB   C1B 8985  25.070  28.760  12.930
  375BOLB   C2B 8986  25.250  29.070  13.070
  375BOLB   C3B 8987  25.610  29.250  13.100
  375BOLB   C4B 8988  25.980  29.640  13.190
  375BOLB   NC2 8989  26.340  32.120  14.590
  375BOLB   PO2 8990  26.400  31.630  14.590
  375BOLB   GL3 8991  26.000  31.430  14.590
  375BOLB   GL4 8992  25.870  31.470  14.890
  375BOLB   C1C 8993  25.780  31.030  14.470
  375BOLB   C2C 8994  25.650  30.680  14.400
  375BOLB   C3C 8995  25.630  30.430  14.010
  375BOLB   C4C 8996  25.500  30.140  13.900
  375BOLB   C1D 8997  25.450  31.380  15.060
  375BOLB   C2D 8998  25.160  30.970  15.210
  375BOLB   C3D 8999  24.810  30.600  15.140
  375BOLB   C4D 9000  24.650  30.400  14.850
  376BOLB   NC1 9001  10.050  19.100  15.760
  376BOLB   PO1 9002   9.590  19.380  15.890
  376BOLB   GL1 9003   9.160  19.240  15.880
  376BOLB   GL2 9004   9.090  18.960  16.130
  376BOLB   C1A 9005   8.730  19.260  15.850
  376BOLB   C2A 9006   8.380  18.980  15.740
  376BOLB   C3A 9007   8.130  18.610  15.810
  376BOLB   C4A 9008   8.050  18.160  15.730
  376BOLB   C1B 9009   8.680  18.900  16.140
  376BOLB   C2B 9010   8.360  18.990  16.290
  376BOLB   C3B 9011   8.070  18.920  16.170
  376BOLB   C4B 9012   7.710  18.870  16.000
  376BOLB   NC2 9013   5.870  17.650  15.380
  376BOLB   PO2 9014   5.840  17.490  15.830
  376BOLB   GL3 9015   6.110  17.870  15.840
  376BOLB   GL4 9016   6.150  17.950  16.170
  376BOLB   C1C 9017   6.450  17.950  15.730
  376BOLB   C2C 9018   6.850  17.760  15.900
  376BOLB   C3C 9019   7.300  17.810  15.930
  376BOLB   C4C 9020   7.720  17.930  15.830
  376BOLB   C1D 9021   6.570  18.070  16.190
  376BOLB   C2D 9022   7.060  18.180  16.210
  376BOLB   C3D 9023   7.240  18.150  16.580
  376BOLB   C4D 9024   7.630  18.410  16.680
  377BOLB   NC1 9025  22.210  24.700  18.660
  377BOLB   PO1 9026  22.450  24.820  19.100
  377BOLB   GL1 9027  22.810  24.950  19.280
  377BOLB   GL2 9028  22.820  25.240  19.190
  377BOLB   C1A 9029  22.740  25.000  19.660
  377BOLB   C2A 9030  22.770  25.060  20.150
  377BOLB   C3A 9031  23.030  25.090  20.560
  377BOLB   C4A 9032  23.310  25.380  20.850
  377BOLB   C1B 9033  23.170  25.300  19.460
  377BOLB   C2B 9034  23.250  25.170  19.890
  377BOLB   C3B 9035  23.600  25.180  20.190
  377BOLB   C4B 9036  23.740  25.380  20.530
  377BOLB   NC2 9037  24.560  26.100  23.470
  377BOLB   PO2 9038  24.250  25.910  23.230
  377BOLB   GL3 9039  24.010  26.020  22.810
  377BOLB   GL4 9040  23.720  25.910  22.900
  377BOLB   C1C 9041  23.840  25.890  22.370
  377BOLB   C2C 9042  23.780  25.610  21.960
  377BOLB   C3C 9043  23.520  25.530  21.570
  377BOLB   C4C 9044  23.560  25.400  21.160
  377BOLB   C1D 9045  23.870  25.520  22.700
  377BOLB   C2D 9046  23.990  25.310  22.300
  377BOLB   C3D 9047  24.010  25.160  21.800
  377BOLB   C4D 9048  23.800  25.080  21.390
  378BOLB   NC1 9049  12.030  14.140  15.580
  378BOLB   PO1 9050  12.140  14.500  15.410
  378BOLB   GL1 9051  12.140  14.600  15.010
  378BOLB   GL2 9052  12.000  14.890  14.980
  378BOLB   C1A 9053  12.220  14.770  14.540
  378BOLB   C2A 9054  11.880  15.020  14.180
  378BOLB   C3A 9055  11.430  15.070  14.200
  378BOLB   C4A 9056  11.090  15.160  14.380
  378BOLB   C1B 9057  11.790  15.030  14.660
  378BOLB   C2B 9058  11.520  15.390  14.590
  378BOLB   C3B 9059  11.170  15.590  14.710
  378BOLB   C4B 9060  10.770  15.440  14.870
  378BOLB   NC2 9061   9.410  14.540  13.040
  378BOLB   PO2 9062   9.590  14.900  12.880
  378BOLB   GL3 9063   9.770  15.000  13.280
  378BOLB   GL4 9064   9.780  14.910  13.720
  378BOLB   C1C 9065   9.970  15.300  13.440
  378BOLB   C2C 9066  10.160  15.530  13.810
  378BOLB   C3C 9067  10.370  15.460  14.220
  378BOLB   C4C 9068  10.760  15.270  14.350
  378BOLB   C1D 9069  10.030  15.100  14.030
  378BOLB   C2D 9070  10.270  15.090  14.550
  378BOLB   C3D 9071  10.350  15.100  14.980
  378BOLB   C4D 9072  10.500  14.900  15.240
  379BOLB   NC1 9073  13.650  20.510  19.570
  379BOLB   PO1 9074  13.450  20.470  19.260
  379BOLB   GL1 9075  13.080  20.460  19.560
  379BOLB   GL2 9076  13.290  20.710  19.830
  379BOLB   C1A 9077  13.030  20.280  19.980
  379BOLB   C2A 9078  12.820  20.320  20.350
  379BOLB   C3A 9079  12.700  20.440  20.700
  379BOLB   C4A 9080  12.490  20.700  21.080
  379BOLB   C1B 9081  12.900  20.840  20.040
  379BOLB   C2B 9082  12.720  20.930  20.460
  379BOLB   C3B 9083  12.350  20.960  20.660
  379BOLB   C4B 9084  12.060  20.900  20.950
  379BOLB   NC2 9085  12.280  22.420  23.280
  379BOLB   PO2 9086  11.960  22.150  23.110
  379BOLB   GL3 9087  12.220  22.160  22.800
  379BOLB   GL4 9088  12.320  22.460  22.770
  379BOLB   C1C 9089  12.170  21.810  22.460
  379BOLB   C2C 9090  12.360  21.450  22.230
  379BOLB   C3C 9091  12.430  21.090  21.860
  379BOLB   C4C 9092  12.600  20.890  21.480
  379BOLB   C1D 9093  12.360  22.380  22.320
  379BOLB   C2D 9094  12.570  22.290  21.920
  379BOLB   C3D 9095  12.990  22.250  21.600
  379BOLB   C4D 9096  13.340  22.070  21.310
  380BOLB   NC1 9097  22.430  33.550  16.710
  380BOLB   PO1 9098  21.950  33.560  16.530
  380BOLB   GL1 9099  21.550  33.230  16.370
  380BOLB   GL2 9100  21.320  33.330  16.100
  380BOLB   C1A 9101  21.620  32.770  16.170
  380BOLB   C2A 9102  21.400  32.510  15.800
  380BOLB   C3A 9103  21.190  32.150  15.910
  380BOLB   C4A 9104  20.890  31.980  16.130
  380BOLB   C1B 9105  21.110  32.920  16.020
  380BOLB   C2B 9106  20.890  32.660  15.770
  380BOLB   C3B 9107  20.350  32.840  15.650
  380BOLB   C4B 9108  20.120  32.620  15.630
  380BOLB   NC2 9109  21.570  33.230  17.260
  380BOLB   PO2 9110  21.680  33.120  17.630
  380BOLB   GL3 9111  21.670  32.680  17.650
  380BOLB   GL4 9112  21.800  32.670  17.310
  380BOLB   C1C 9113  21.330  32.500  17.300
  380BOLB   C2C 9114  21.050  32.100  17.180
  380BOLB   C3C 9115  20.790  31.760  16.940
  380BOLB   C4C 9116  20.680  31.720  16.460
  380BOLB   C1D 9117  21.850  32.270  17.130
  380BOLB   C2D 9118  21.940  31.850  16.860
  380BOLB   C3D 9119  22.250  31.470  16.850
  380BOLB   C4D 9120  22.450  31.130  16.770
  381BOLB   NC1 9121  23.010  23.630  19.320
  381BOLB   PO1 9122  23.450  23.560  19.220
  381BOLB   GL1 9123  23.410  23.810  19.520
  381BOLB   GL2 9124  23.780  23.980  19.510
  381BOLB   C1A 9125  23.790  23.770  19.950
  381BOLB   C2A 9126  23.930  23.990  20.310
  381BOLB   C3A 9127  23.840  24.130  20.720
  381BOLB   C4A 9128  23.740  24.010  21.060
  381BOLB   C1B 9129  24.170  23.990  19.640
  381BOLB   C2B 9130  24.460  24.040  20.020
  381BOLB   C3B 9131  24.360  24.040  20.470
  381BOLB   C4B 9132  24.340  23.990  20.870
  381BOLB   NC2 9133  24.550  23.460  23.730
  381BOLB   PO2 9134  24.780  23.560  23.360
  381BOLB   GL3 9135  24.620  23.690  22.940
  381BOLB   GL4 9136  24.260  23.830  22.880
  381BOLB   C1C 9137  24.540  23.710  22.480
  381BOLB   C2C 9138  24.250  23.790  22.120
  381BOLB   C3C 9139  23.820  23.810  21.930
  381BOLB   C4C 9140  23.730  23.910  21.480
  381BOLB   C1D 9141  24.160  23.430  22.950
  381BOLB   C2D 9142  23.830  23.230  22.830
  381BOLB   C3D 9143  23.560  23.090  22.480
  381BOLB   C4D 9144  23.480  22.650  22.550
  382BOLB   NC1 9145  14.670  28.310  13.020
  382BOLB   PO1 9146  14.480  28.530  13.290
  382BOLB   GL1 9147  14.290  28.850  13.370
  382BOLB   GL2 9148  14.060  28.940  13.160
  382BOLB   C1A 9149  14.230  29.410  13.280
  382BOLB   C2A 9150  14.020  29.780  13.300
  382BOLB   C3A 9151  14.020  30.220  13.410
  382BOLB   C4A 9152  13.850  30.340  13.920
  382BOLB   C1B 9153  13.680  29.100  12.890
  382BOLB   C2B 9154  13.320  29.340  12.780
  382BOLB   C3B 9155  13.080  29.470  12.530
  382BOLB   C4B 9156  12.970  29.880  12.300
  382BOLB   NC2 9157  11.840  31.530  14.440
  382BOLB   PO2 9158  11.660  31.200  14.290
  382BOLB   GL3 9159  11.980  31.090  14.560
  382BOLB   GL4 9160  12.120  31.060  14.920
  382BOLB   C1C 9161  12.370  30.900  14.400
  382BOLB   C2C 9162  12.660  30.630  14.380
  382BOLB   C3C 9163  12.980  30.380  14.200
  382BOLB   C4C 9164  13.360  30.250  14.060
  382BOLB   C1D 9165  12.480  30.700  14.850
  382BOLB   C2D 9166  12.700  30.370  14.870
  382BOLB   C3D 9167  12.840  30.080  15.000
  382BOLB   C4D 9168  12.910  29.950  15.380
  383BOLB   NC1 9169  23.290  20.730  18.910
  383BOLB   PO1 9170  23.730  20.840  18.810
  383BOLB   GL1 9171  24.020  20.880  19.100
  383BOLB   GL2 9172  24.010  21.280  19.310
  383BOLB   C1A 9173  24.290  20.730  19.430
  383BOLB   C2A 9174  24.590  20.820  19.720
  383BOLB   C3A 9175  24.990  20.780  19.930
  383BOLB   C4A 9176  25.260  20.840  20.160
  383BOLB   C1B 9177  24.230  21.210  19.620
  383BOLB   C2B 9178  24.530  21.280  19.970
  383BOLB   C3B 9179  24.800  21.560  20.170
  383BOLB   C4B 9180  24.580  21.810  20.310
  383BOLB   NC2 9181  27.130  21.330  21.470
  383BOLB   PO2 9182  26.790  21.380  21.600
  383BOLB   GL3 9183  26.460  21.190  21.450
  383BOLB   GL4 9184  26.320  21.510  21.340
  383BOLB   C1C 9185  26.070  21.110  21.240
  383BOLB   C2C 9186  25.720  20.910  21.230
  383BOLB   C3C 9187  25.470  20.760  20.880
  383BOLB   C4C 9188  25.460  20.990  20.520
  383BOLB   C1D 9189  26.060  21.750  21.170
  383BOLB   C2D 9190  25.920  21.860  20.830
  383BOLB   C3D 9191  25.490  21.760  20.630
  383BOLB   C4D 9192  25.140  21.530  20.560
  384BOLB   NC1 9193  25.670  22.880  17.160
  384BOLB   PO1 9194  25.560  23.320  17.330
  384BOLB   GL1 9195  25.770  23.220  17.740
  384BOLB   GL2 9196  25.630  22.960  17.940
  384BOLB   C1A 9197  26.020  23.350  18.140
  384BOLB   C2A 9198  25.980  23.200  18.470
  384BOLB   C3A 9199  26.400  23.300  18.690
  384BOLB   C4A 9200  26.800  23.490  18.690
  384BOLB   C1B 9201  26.070  22.870  17.980
  384BOLB   C2B 9202  26.460  22.770  17.750
  384BOLB   C3B 9203  26.880  22.990  17.700
  384BOLB   C4B 9204  27.200  23.230  17.970
  384BOLB   NC2 9205  28.240  23.710  20.390
  384BOLB   PO2 9206  27.910  23.600  20.470
  384BOLB   GL3 9207  27.480  23.680  20.390
  384BOLB   GL4 9208  27.300  23.430  20.620
  384BOLB   C1C 9209  27.300  23.610  20.060
  384BOLB   C2C 9210  27.290  23.530  19.600
  384BOLB   C3C 9211  27.350  23.620  19.170
  384BOLB   C4C 9212  27.140  23.660  18.820
  384BOLB   C1D 9213  26.830  23.390  20.660
  384BOLB   C2D 9214  26.440  23.300  20.290
  384BOLB   C3D 9215  26.100  23.500  20.110
  384BOLB   C4D 9216  25.920  23.360  19.730
  385BOLB   NC1 9217  26.070  21.430  15.200
  385BOLB   PO1 9218  25.960  21.120  15.040
  385BOLB   GL1 9219  26.320  21.030  15.330
  385BOLB   GL2 9220  26.390  20.780  15.320
  385BOLB   C1A 9221  26.630  21.050  15.620
  385BOLB   C2A 9222  27.070  21.040  15.880
  385BOLB   C3A 9223  27.460  20.730  16.060
  385BOLB   C4A 9224  27.720  20.380  15.980
  385BOLB   C1B 9225  26.610  20.410  15.340
  385BOLB   C2B 9226  26.950  20.230  15.320
  385BOLB   C3B 9227  27.280  20.440  15.150
  385BOLB   C4B 9228  27.550  20.490  14.900
  385BOLB   NC2 9229  30.090  19.530  15.740
  385BOLB   PO2 9230  29.880  19.230  15.880
  385BOLB   GL3 9231  29.460  19.200  15.620
  385BOLB   GL4 9232  29.430  18.840  15.410
  385BOLB   C1C 9233  29.150  19.500  15.500
  385BOLB   C2C 9234  28.760  19.760  15.680
  385BOLB   C3C 9235  28.460  19.900  15.820
  385BOLB   C4C 9236  27.980  20.000  15.880
  385BOLB   C1D 9237  29.020  18.980  15.560
  385BOLB   C2D 9238  28.740  19.310  15.280
  385BOLB   C3D 9239  28.560  19.460  14.980
  385BOLB   C4D 9240  28.170  19.630  15.040
  386BOLB   NC1 9241  13.220  20.880  18.910
  386BOLB   PO1 9242  13.310  21.200  19.020
  386BOLB   GL1 9243  13.060  21.280  19.380
  386BOLB   GL2 9244  13.100  21.690  19.530
  386BOLB   C1A 9245  13.110  21.230  19.880
  386BOLB   C2A 9246  13.130  21.200  20.310
  386BOLB   C3A 9247  12.900  21.270  20.800
  386BOLB   C4A 9248  12.690  21.180  21.100
  386BOLB   C1B 9249  13.050  21.730  20.010
  386BOLB   C2B 9250  13.170  21.680  20.400
  386BOLB   C3B 9251  13.010  21.870  20.730
  386BOLB   C4B 9252  12.880  22.040  21.130
  386BOLB   NC2 9253  11.430  21.550  23.080
  386BOLB   PO2 9254  11.050  21.680  22.910
  386BOLB   GL3 9255  11.410  21.740  22.620
  386BOLB   GL4 9256  11.700  22.060  22.580
  386BOLB   C1C 9257  11.720  21.580  22.370
  386BOLB   C2C 9258  11.880  21.620  21.960
  386BOLB   C3C 9259  11.960  21.380  21.570
  386BOLB   C4C 9260  12.280  21.230  21.270
  386BOLB   C1D 9261  11.890  22.160  22.320
  386BOLB   C2D 9262  12.220  21.980  21.990
  386BOLB   C3D 9263  12.480  21.740  21.730
  386BOLB   C4D 9264  12.820  21.400  21.870
  387BOLB   NC1 9265   9.640  19.180  17.730
  387BOLB   PO1 9266   9.810  19.620  17.670
  387BOLB   GL1 9267   9.450  19.630  17.870
  387BOLB   GL2 9268   9.390  19.940  18.110
  387BOLB   C1A 9269   9.070  19.530  17.920
  387BOLB   C2A 9270   8.690  19.400  18.150
  387BOLB   C3A 9271   8.680  19.100  18.480
  387BOLB   C4A 9272   8.480  19.010  18.880
  387BOLB   C1B 9273   9.350  19.860  18.520
  387BOLB   C2B 9274   9.090  20.110  18.660
  387BOLB   C3B 9275   9.090  20.520  18.870
  387BOLB   C4B 9276   9.230  20.940  19.110
  387BOLB   NC2 9277   7.200  20.530  20.780
  387BOLB   PO2 9278   7.150  20.120  20.880
  387BOLB   GL3 9279   7.360  19.920  20.500
  387BOLB   GL4 9280   7.470  20.220  20.390
  387BOLB   C1C 9281   7.710  19.760  20.190
  387BOLB   C2C 9282   8.080  19.780  19.870
  387BOLB   C3C 9283   8.010  19.530  19.530
  387BOLB   C4C 9284   8.280  19.230  19.220
  387BOLB   C1D 9285   7.930  20.190  20.160
  387BOLB   C2D 9286   8.280  20.360  19.890
  387BOLB   C3D 9287   8.580  20.370  19.520
  387BOLB   C4D 9288   8.830  20.210  19.150
  388BOLB   NC1 9289  11.530  15.110  18.090
  388BOLB   PO1 9290  11.210  14.950  17.970
  388BOLB   GL1 9291  11.080  14.450  17.900
  388BOLB   GL2 9292  10.910  14.290  17.650
  388BOLB   C1A 9293  11.160  14.030  17.950
  388BOLB   C2A 9294  10.910  13.780  18.130
  388BOLB   C3A 9295  10.520  13.730  18.190
  388BOLB   C4A 9296  10.190  13.530  17.910
  388BOLB   C1B 9297  10.530  14.330  17.560
  388BOLB   C2B 9298  10.120  14.320  17.740
  388BOLB   C3B 9299  10.060  14.030  18.020
  388BOLB   C4B 9300  10.120  13.750  18.440
  388BOLB   NC2 9301   8.880  11.630  17.070
  388BOLB   PO2 9302   9.220  11.520  16.790
  388BOLB   GL3 9303   9.370  11.810  17.060
  388BOLB   GL4 9304   9.160  12.140  17.110
  388BOLB   C1C 9305   9.650  12.220  17.030
  388BOLB   C2C 9306   9.730  12.650  16.990
  388BOLB   C3C 9307   9.990  12.950  17.170
  388BOLB   C4C 9308  10.200  13.320  17.470
  388BOLB   C1D 9309   9.190  12.620  17.040
  388BOLB   C2D 9310   9.430  13.020  16.810
  388BOLB   C3D 9311   9.660  13.340  16.900
  388BOLB   C4D 9312   9.860  13.820  16.970
  389BOLB   NC1 9313  14.050  24.970  17.890
  389BOLB   PO1 9314  14.120  25.350  18.060
  389BOLB   GL1 9315  14.080  25.450  18.350
  389BOLB   GL2 9316  13.990  25.200  18.520
  389BOLB   C1A 9317  13.890  25.740  18.670
  389BOLB   C2A 9318  13.670  25.990  18.950
  389BOLB   C3A 9319  13.330  26.140  19.050
  389BOLB   C4A 9320  13.360  26.200  19.480
  389BOLB   C1B 9321  13.920  25.270  18.870
  389BOLB   C2B 9322  13.780  25.560  19.210
  389BOLB   C3B 9323  13.820  25.880  19.540
  389BOLB   C4B 9324  13.590  26.070  19.890
  389BOLB   NC2 9325  11.760  27.550  20.750
  389BOLB   PO2 9326  12.110  27.440  20.980
  389BOLB   GL3 9327  12.500  27.280  20.900
  389BOLB   GL4 9328  12.430  26.990  20.790
  389BOLB   C1C 9329  12.950  27.110  20.860
  389BOLB   C2C 9330  13.130  26.930  20.460
  389BOLB   C3C 9331  13.240  26.840  20.080
  389BOLB   C4C 9332  13.300  26.450  19.920
  389BOLB   C1D 9333  12.610  27.100  20.430
  389BOLB   C2D 9334  12.740  27.060  19.970
  389BOLB   C3D 9335  12.940  27.140  19.690
  389BOLB   C4D 9336  13.200  27.300  19.300
  390BOLB   NC1 9337  25.720  26.100  14.570
  390BOLB   PO1 9338  25.580  26.170  14.190
  390BOLB   GL1 9339  25.960  26.170  14.130
  390BOLB   GL2 9340  26.070  26.000  14.260
  390BOLB   C1A 9341  26.360  26.450  13.960
  390BOLB   C2A 9342  26.720  26.690  13.840
  390BOLB   C3A 9343  26.880  27.110  13.960
  390BOLB   C4A 9344  27.300  27.210  13.900
  390BOLB   C1B 9345  26.490  25.970  14.110
  390BOLB   C2B 9346  26.800  26.250  14.110
  390BOLB   C3B 9347  27.120  26.450  13.950
  390BOLB   C4B 9348  27.130  26.800  13.540
  390BOLB   NC2 9349  29.010  28.810  13.840
  390BOLB   PO2 9350  29.210  28.490  14.130
  390BOLB   GL3 9351  28.820  28.290  14.110
  390BOLB   GL4 9352  28.870  28.350  13.730
  390BOLB   C1C 9353  28.460  28.010  14.110
  390BOLB   C2C 9354  28.170  27.710  14.200
  390BOLB   C3C 9355  28.050  27.410  14.130
  390BOLB   C4C 9356  27.730  27.210  13.850
  390BOLB   C1D 9357  28.500  28.300  13.710
  390BOLB   C2D 9358  28.230  27.940  13.680
  390BOLB   C3D 9359  28.170  27.520  13.620
  390BOLB   C4D 9360  28.090  27.130  13.480
  391BOLB   NC1 9361  22.870  26.330  18.060
  391BOLB   PO1 9362  23.110  26.170  18.470
  391BOLB   GL1 9363  23.490  26.270  18.770
  391BOLB   GL2 9364  23.330  26.600  18.920
  391BOLB   C1A 9365  23.790  26.320  19.080
  391BOLB   C2A 9366  24.100  26.420  19.450
  391BOLB   C3A 9367  24.470  26.330  19.730
  391BOLB   C4A 9368  24.740  26.300  19.960
  391BOLB   C1B 9369  23.500  26.570  19.400
  391BOLB   C2B 9370  23.760  26.650  19.710
  391BOLB   C3B 9371  24.120  26.760  19.890
  391BOLB   C4B 9372  24.490  26.810  19.590
  391BOLB   NC2 9373  27.020  26.170  21.020
  391BOLB   PO2 9374  26.680  26.260  21.000
  391BOLB   GL3 9375  26.650  25.960  20.660
  391BOLB   GL4 9376  26.860  25.750  20.530
  391BOLB   C1C 9377  26.420  26.110  20.350
  391BOLB   C2C 9378  26.010  26.260  20.290
  391BOLB   C3C 9379  25.580  26.370  20.140
  391BOLB   C4C 9380  25.160  26.280  20.110
  391BOLB   C1D 9381  26.930  26.030  20.150
  391BOLB   C2D 9382  26.690  25.960  19.730
  391BOLB   C3D 9383  26.330  26.020  19.570
  391BOLB   C4D 9384  26.040  26.120  19.390
  392BOLB   NC1 9385  25.170  21.560  16.150
  392BOLB   PO1 9386  25.510  21.730  16.370
  392BOLB   GL1 9387  25.860  21.430  16.440
  392BOLB   GL2 9388  25.920  21.780  16.640
  392BOLB   C1A 9389  26.300  21.340  16.620
  392BOLB   C2A 9390  26.570  21.130  16.860
  392BOLB   C3A 9391  26.690  21.210  17.270
  392BOLB   C4A 9392  27.080  21.220  17.510
  392BOLB   C1B 9393  26.020  21.630  16.930
  392BOLB   C2B 9394  26.260  21.430  17.170
  392BOLB   C3B 9395  26.390  21.410  17.600
  392BOLB   C4B 9396  26.710  21.460  17.790
  392BOLB   NC2 9397  29.670  21.880  17.560
  392BOLB   PO2 9398  29.340  21.650  17.770
  392BOLB   GL3 9399  28.990  21.570  17.980
  392BOLB   GL4 9400  28.900  21.400  18.320
  392BOLB   C1C 9401  28.520  21.700  18.040
  392BOLB   C2C 9402  28.180  21.470  17.890
  392BOLB   C3C 9403  27.760  21.490  17.850
  392BOLB   C4C 9404  27.390  21.390  17.650
  392BOLB   C1D 9405  28.440  21.270  18.300
  392BOLB   C2D 9406  28.020  21.290  18.330
  392BOLB   C3D 9407  27.610  21.340  18.340
  392BOLB   C4D 9408  27.230  21.340  18.480
  393BOLB   NC1 9409  15.190  32.230  18.060
  393BOLB   PO1 9410  15.130  32.380  17.600
  393BOLB   GL1 9411  15.210  31.940  17.600
  393BOLB   GL2 9412  15.400  31.870  17.350
  393BOLB   C1A 9413  15.060  31.480  17.700
  393BOLB   C2A 9414  15.270  31.030  17.780
  393BOLB   C3A 9415  15.370  30.680  17.600
  393BOLB   C4A 9416  15.260  30.310  17.460
  393BOLB   C1B 9417  15.500  31.620  16.910
  393BOLB   C2B 9418  15.330  31.610  16.540
  393BOLB   C3B 9419  14.790  31.400  16.410
  393BOLB   C4B 9420  14.640  31.080  16.510
  393BOLB   NC2 9421  13.390  31.630  18.420
  393BOLB   PO2 9422  13.660  31.210  18.260
  393BOLB   GL3 9423  13.860  30.950  18.060
  393BOLB   GL4 9424  13.860  30.760  18.330
  393BOLB   C1C 9425  13.910  30.500  17.810
  393BOLB   C2C 9426  14.090  30.320  17.460
  393BOLB   C3C 9427  14.480  30.130  17.170
  393BOLB   C4C 9428  14.920  30.230  17.120
  393BOLB   C1D 9429  14.190  30.540  18.530
  393BOLB   C2D 9430  14.540  30.240  18.470
  393BOLB   C3D 9431  14.830  30.130  18.060
  393BOLB   C4D 9432  14.770  30.420  17.740
  394BOLB   NC1 9433  12.970  13.580  14.440
  394BOLB   PO1 9434  12.790  13.540  14.750
  394BOLB   GL1 9435  12.460  13.110  14.610
  394BOLB   GL2 9436  12.450  13.210  14.340
  394BOLB   C1A 9437  12.080  13.210  14.700
  394BOLB   C2A 9438  11.760  13.060  14.630
  394BOLB   C3A 9439  11.490  12.750  14.820
  394BOLB   C4A 9440  11.270  12.500  15.130
  394BOLB   C1B 9441  11.980  13.260  14.170
  394BOLB   C2B 9442  11.560  13.450  14.120
  394BOLB   C3B 9443  11.180  13.610  14.090
  394BOLB   C4B 9444  10.820  13.810  14.220
  394BOLB   NC2 9445   9.790  10.390  14.310
  394BOLB   PO2 9446   9.880  10.750  14.010
  394BOLB   GL3 9447  10.140  11.030  14.370
  394BOLB   GL4 9448  10.420  10.970  14.310
  394BOLB   C1C 9449  10.320  11.390  14.630
  394BOLB   C2C 9450  10.580  11.500  14.990
  394BOLB   C3C 9451  10.880  11.790  15.200
  394BOLB   C4C 9452  11.230  12.060  15.160
  394BOLB   C1D 9453  10.780  11.140  14.630
  394BOLB   C2D 9454  11.110  11.480  14.730
  394BOLB   C3D 9455  11.380  11.790  14.660
  394BOLB   C4D 9456  11.380  12.220  14.720
  395BOLB   NC1 9457  21.280  22.760   6.270
  395BOLB   PO1 9458  21.720  22.910   6.210
  395BOLB   GL1 9459  22.010  22.970   5.830
  395BOLB   GL2 9460  22.260  22.920   5.870
  395BOLB   C1A 9461  21.910  23.080   5.420
  395BOLB   C2A 9462  21.950  23.020   4.920
  395BOLB   C3A 9463  22.210  23.040   4.620
  395BOLB   C4A 9464  22.610  22.950   4.420
  395BOLB   C1B 9465  22.460  23.050   5.480
  395BOLB   C2B 9466  22.600  23.230   5.050
  395BOLB   C3B 9467  22.770  23.320   4.750
  395BOLB   C4B 9468  22.700  23.510   4.440
  395BOLB   NC2 9469  24.320  22.780   2.720
  395BOLB   PO2 9470  24.520  22.950   3.060
  395BOLB   GL3 9471  24.070  22.990   3.100
  395BOLB   GL4 9472  24.020  22.580   3.290
  395BOLB   C1C 9473  23.680  23.010   3.440
  395BOLB   C2C 9474  23.270  23.060   3.640
  395BOLB   C3C 9475  23.190  23.030   4.030
  395BOLB   C4C 9476  22.960  23.140   4.270
  395BOLB   C1D 9477  24.070  22.240   3.560
  395BOLB   C2D 9478  23.830  22.150   4.010
  395BOLB   C3D 9479  23.510  22.230   4.400
  395BOLB   C4D 9480  22.990  22.290   4.470
  396BOLB   NC1 9481  21.370  15.140  14.960
  396BOLB   PO1 9482  21.710  14.890  15.040
  396BOLB   GL1 9483  21.890  14.490  15.240
  396BOLB   GL2 9484  22.180  14.570  15.250
  396BOLB   C1A 9485  22.140  14.060  15.130
  396BOLB   C2A 9486  22.410  13.620  15.170
  396BOLB   C3A 9487  22.730  13.390  15.390
  396BOLB   C4A 9488  23.150  13.400  15.560
  396BOLB   C1B 9489  22.550  14.300  15.310
  396BOLB   C2B 9490  22.820  14.020  15.290
  396BOLB   C3B 9491  23.260  13.810  15.220
  396BOLB   C4B 9492  23.740  13.870  15.250
  396BOLB   NC2 9493  24.040  12.350  17.500
  396BOLB   PO2 9494  24.460  12.410  17.530
  396BOLB   GL3 9495  24.270  12.740  17.270
  396BOLB   GL4 9496  24.050  12.960  17.400
  396BOLB   C1C 9497  23.950  12.760  16.910
  396BOLB   C2C 9498  23.690  12.760  16.580
  396BOLB   C3C 9499  23.530  13.000  16.340
  396BOLB   C4C 9500  23.310  13.220  16.010
  396BOLB   C1D 9501  23.590  13.060  17.360
  396BOLB   C2D 9502  23.180  13.120  17.220
  396BOLB   C3D 9503  22.790  12.950  17.030
  396BOLB   C4D 9504  22.480  12.780  17.150
  397BOLB   NC1 9505  19.720  12.880  14.420
  397BOLB   PO1 9506  19.830  12.750  14.010
  397BOLB   GL1 9507  19.640  12.420  14.210
  397BOLB   GL2 9508  19.860  12.360  14.540
  397BOLB   C1A 9509  19.460  11.950  14.370
  397BOLB   C2A 9510  19.430  11.600  14.570
  397BOLB   C3A 9511  19.740  11.480  14.930
  397BOLB   C4A 9512  20.080  11.290  15.030
  397BOLB   C1B 9513  19.920  11.960  14.510
  397BOLB   C2B 9514  19.970  11.520  14.450
  397BOLB   C3B 9515  20.270  11.130  14.580
  397BOLB   C4B 9516  20.380  10.660  14.570
  397BOLB   NC2 9517  21.260   9.450  14.840
  397BOLB   PO2 9518  21.340   9.570  15.230
  397BOLB   GL3 9519  21.280   9.910  14.980
  397BOLB   GL4 9520  21.450   9.940  14.680
  397BOLB   C1C 9521  21.000  10.160  14.860
  397BOLB   C2C 9522  20.930  10.630  14.820
  397BOLB   C3C 9523  20.760  11.060  14.880
  397BOLB   C4C 9524  20.470  11.330  14.980
  397BOLB   C1D 9525  21.580  10.310  14.560
  397BOLB   C2D 9526  21.710  10.600  14.720
  397BOLB   C3D 9527  21.760  10.790  15.040
  397BOLB   C4D 9528  21.540  10.690  15.490
  398BOLB   NC1 9529  21.050  21.350  20.240
  398BOLB   PO1 9530  21.030  21.770  20.510
  398BOLB   GL1 9531  21.210  21.710  20.820
  398BOLB   GL2 9532  21.390  22.030  20.730
  398BOLB   C1A 9533  21.110  21.410  21.170
  398BOLB   C2A 9534  21.250  21.100  21.530
  398BOLB   C3A 9535  21.100  20.970  21.900
  398BOLB   C4A 9536  21.090  20.880  22.330
  398BOLB   C1B 9537  21.460  22.440  20.930
  398BOLB   C2B 9538  21.640  22.700  21.270
  398BOLB   C3B 9539  21.610  22.730  21.710
  398BOLB   C4B 9540  21.650  22.860  22.160
  398BOLB   NC2 9541  21.420  20.110  24.900
  398BOLB   PO2 9542  21.600  20.000  24.460
  398BOLB   GL3 9543  21.670  20.340  24.090
  398BOLB   GL4 9544  21.930  20.550  24.080
  398BOLB   C1C 9545  21.460  20.520  23.870
  398BOLB   C2C 9546  21.440  20.810  23.450
  398BOLB   C3C 9547  21.430  20.830  23.080
  398BOLB   C4C 9548  21.420  20.740  22.640
  398BOLB   C1D 9549  21.900  20.410  23.620
  398BOLB   C2D 9550  21.980  20.440  23.290
  398BOLB   C3D 9551  22.340  20.180  23.010
  398BOLB   C4D 9552  22.260  19.990  22.620
  399BOLB   NC1 9553  23.710  28.330  11.800
  399BOLB   PO1 9554  23.860  28.130  11.330
  399BOLB   GL1 9555  24.160  28.330  11.050
  399BOLB   GL2 9556  23.840  28.610  11.120
  399BOLB   C1A 9557  24.500  28.480  11.370
  399BOLB   C2A 9558  24.800  28.880  11.380
  399BOLB   C3A 9559  25.060  29.260  11.440
  399BOLB   C4A 9560  25.470  29.430  11.200
  399BOLB   C1B 9561  24.220  28.790  11.070
  399BOLB   C2B 9562  24.370  29.140  11.380
  399BOLB   C3B 9563  24.570  29.530  11.460
  399BOLB   C4B 9564  24.700  29.940  11.430
  399BOLB   NC2 9565  27.260  31.430  10.630
  399BOLB   PO2 9566  26.960  31.000  10.500
  399BOLB   GL3 9567  26.630  30.760  10.270
  399BOLB   GL4 9568  26.740  30.460  10.250
  399BOLB   C1C 9569  26.300  30.340  10.320
  399BOLB   C2C 9570  26.040  29.950  10.310
  399BOLB   C3C 9571  25.700  29.690  10.390
  399BOLB   C4C 9572  25.620  29.540  10.740
  399BOLB   C1D 9573  26.720  30.230  10.710
  399BOLB   C2D 9574  26.520  29.910  10.970
  399BOLB   C3D 9575  26.280  29.530  11.110
  399BOLB   C4D 9576  25.960  29.400  11.060
  400BOLB   NC1 9577  13.610  13.990  13.130
  400BOLB   PO1 9578  13.450  13.690  12.830
  400BOLB   GL1 9579  13.000  13.670  12.700
  400BOLB   GL2 9580  13.000  13.620  12.270
  400BOLB   C1A 9581  12.660  13.280  12.610
  400BOLB   C2A 9582  12.330  13.050  12.500
  400BOLB   C3A 9583  11.980  12.790  12.430
  400BOLB   C4A 9584  11.620  12.710  12.680
  400BOLB   C1B 9585  12.590  13.490  12.000
  400BOLB   C2B 9586  12.220  13.650  11.830
  400BOLB   C3B 9587  12.030  13.900  12.050
  400BOLB   C4B 9588  11.590  13.920  12.140
  400BOLB   NC2 9589   9.980  11.380  13.280
  400BOLB   PO2 9590   9.600  11.710  13.460
  400BOLB   GL3 9591  10.060  11.750  13.600
  400BOLB   GL4 9592  10.030  11.900  13.840
  400BOLB   C1C 9593  10.300  12.110  13.500
  400BOLB   C2C 9594  10.690  12.260  13.440
  400BOLB   C3C 9595  11.190  12.350  13.260
  400BOLB   C4C 9596  11.310  12.550  12.860
  400BOLB   C1D 9597  10.480  11.820  13.860
  400BOLB   C2D 9598  10.860  12.000  13.890
  400BOLB   C3D 9599  11.110  12.270  14.150
  400BOLB   C4D 9600  11.480  12.520  14.300
  401BOLB   NC1 9601   9.570  22.880  15.770
  401BOLB   PO1 9602   9.700  23.300  15.620
  401BOLB   GL1 9603   9.260  23.310  15.760
  401BOLB   GL2 9604   9.100  23.110  15.790
  401BOLB   C1A 9605   8.920  23.690  15.820
  401BOLB   C2A 9606   8.630  23.850  15.790
  401BOLB   C3A 9607   8.450  24.170  15.940
  401BOLB   C4A 9608   8.420  24.530  15.780
  401BOLB   C1B 9609   8.770  23.310  16.120
  401BOLB   C2B 9610   8.470  23.540  16.320
  401BOLB   C3B 9611   8.180  23.920  16.310
  401BOLB   C4B 9612   8.480  24.180  16.510
  401BOLB   NC2 9613   8.000  26.440  17.930
  401BOLB   PO2 9614   8.000  26.000  17.760
  401BOLB   GL3 9615   7.930  25.810  17.320
  401BOLB   GL4 9616   8.160  25.690  17.310
  401BOLB   C1C 9617   7.930  25.790  16.890
  401BOLB   C2C 9618   7.770  25.480  16.590
  401BOLB   C3C 9619   7.890  25.120  16.320
  401BOLB   C4C 9620   8.060  24.850  15.930
  401BOLB   C1D 9621   8.400  25.710  16.980
  401BOLB   C2D 9622   8.730  25.470  16.850
  401BOLB   C3D 9623   8.810  25.080  16.490
  401BOLB   C4D 9624   9.140  24.820  16.650
  402BOLB   NC1 9625  20.950  23.690  20.070
  402BOLB   PO1 9626  21.300  23.430  20.030
  402BOLB   GL1 9627  21.270  23.690  20.430
  402BOLB   GL2 9628  21.210  23.490  20.740
  402BOLB   C1A 9629  21.510  24.000  20.770
  402BOLB   C2A 9630  21.500  24.170  21.090
  402BOLB   C3A 9631  21.290  24.510  21.260
  402BOLB   C4A 9632  21.330  24.830  21.490
  402BOLB   C1B 9633  21.070  23.640  21.190
  402BOLB   C2B 9634  21.120  23.710  21.660
  402BOLB   C3B 9635  21.210  23.970  22.050
  402BOLB   C4B 9636  21.340  24.340  22.290
  402BOLB   NC2 9637  22.010  26.140  24.000
  402BOLB   PO2 9638  22.040  25.800  23.760
  402BOLB   GL3 9639  21.680  25.620  23.540
  402BOLB   GL4 9640  21.410  25.840  23.450
  402BOLB   C1C 9641  21.490  25.330  23.270
  402BOLB   C2C 9642  21.460  25.310  22.840
  402BOLB   C3C 9643  21.550  25.200  22.360
  402BOLB   C4C 9644  21.490  25.110  21.870
  402BOLB   C1D 9645  21.520  25.770  23.040
  402BOLB   C2D 9646  21.240  25.740  22.590
  402BOLB   C3D 9647  20.910  25.810  22.240
  402BOLB   C4D 9648  20.660  25.640  21.920
  403BOLB   NC1 9649  21.090  16.980  18.220
  403BOLB   PO1 9650  21.050  16.800  18.600
  403BOLB   GL1 9651  21.220  16.860  18.900
  403BOLB   GL2 9652  21.030  16.600  19.200
  403BOLB   C1A 9653  21.660  16.740  19.090
  403BOLB   C2A 9654  21.760  16.460  19.380
  403BOLB   C3A 9655  21.930  16.110  19.660
  403BOLB   C4A 9656  21.890  15.860  19.850
  403BOLB   C1B 9657  21.250  16.450  19.520
  403BOLB   C2B 9658  21.640  16.480  19.860
  403BOLB   C3B 9659  21.740  16.720  20.150
  403BOLB   C4B 9660  21.810  17.150  20.140
  403BOLB   NC2 9661  23.840  15.030  21.060
  403BOLB   PO2 9662  23.580  15.230  21.340
  403BOLB   GL3 9663  23.200  15.340  21.220
  403BOLB   GL4 9664  23.130  15.640  21.170
  403BOLB   C1C 9665  22.650  15.410  21.210
  403BOLB   C2C 9666  22.480  15.530  20.870
  403BOLB   C3C 9667  22.230  15.580  20.490
  403BOLB   C4C 9668  21.820  15.750  20.250
  403BOLB   C1D 9669  23.000  15.590  20.670
  403BOLB   C2D 9670  22.710  15.870  20.490
  403BOLB   C3D 9671  22.420  15.990  20.210
  403BOLB   C4D 9672  22.050  16.260  20.120
  404BOLB   NC1 9673  11.050  24.600  15.340
  404BOLB   PO1 9674  11.140  24.990  15.320
  404BOLB   GL1 9675  10.810  25.330  15.520
  404BOLB   GL2 9676  10.700  25.630  15.320
  404BOLB   C1A 9677  10.450  25.530  15.760
  404BOLB   C2A 9678  10.600  25.900  15.950
  404BOLB   C3A 9679  10.490  26.300  16.230
  404BOLB   C4A 9680  10.380  26.730  16.250
  404BOLB   C1B 9681  10.250  25.830  15.320
  404BOLB   C2B 9682  10.010  26.190  15.580
  404BOLB   C3B 9683   9.600  26.430  15.660
  404BOLB   C4B 9684   9.310  26.770  15.520
  404BOLB   NC2 9685   8.980  28.380  17.260
  404BOLB   PO2 9686   9.040  28.420  16.870
  404BOLB   GL3 9687   9.040  28.070  16.680
  404BOLB   GL4 9688   8.810  28.160  16.500
  404BOLB   C1C 9689   9.360  27.890  16.570
  404BOLB   C2C 9690   9.700  27.680  16.400
  404BOLB   C3C 9691  10.060  27.500  16.150
  404BOLB   C4C 9692  10.370  27.140  16.170
  404BOLB   C1D 9693   8.720  27.770  16.280
  404BOLB   C2D 9694   8.770  27.330  16.270
  404BOLB   C3D 9695   9.000  26.940  16.450
  404BOLB   C4D 9696   9.390  26.930  16.670
  405BOLB   NC1 9697  21.070  13.820  12.570
  405BOLB   PO1 9698  20.970  13.800  12.160
  405BOLB   GL1 9699  21.070  13.390  12.250
  405BOLB   GL2 9700  21.250  13.420  11.990
  405BOLB   C1A 9701  21.100  12.970  12.150
  405BOLB   C2A 9702  20.940  12.650  11.880
  405BOLB   C3A 9703  21.180  12.400  11.670
  405BOLB   C4A 9704  21.360  12.070  11.770
  405BOLB   C1B 9705  21.710  13.290  12.030
  405BOLB   C2B 9706  22.040  12.910  11.940
  405BOLB   C3B 9707  22.280  12.740  11.660
  405BOLB   C4B 9708  22.610  12.660  11.370
  405BOLB   NC2 9709  21.750   9.990  11.880
  405BOLB   PO2 9710  22.180  10.110  11.740
  405BOLB   GL3 9711  22.060  10.520  11.780
  405BOLB   GL4 9712  21.740  10.460  11.800
  405BOLB   C1C 9713  21.880  10.940  11.670
  405BOLB   C2C 9714  21.630  11.160  11.820
  405BOLB   C3C 9715  21.630  11.530  12.070
  405BOLB   C4C 9716  21.520  11.990  12.070
  405BOLB   C1D 9717  21.360  10.720  11.860
  405BOLB   C2D 9718  21.060  10.910  11.900
  405BOLB   C3D 9719  21.120  11.320  11.860
  405BOLB   C4D 9720  21.410  11.570  11.630
  406BOLB   NC1 9721  15.720  25.670  19.270
  406BOLB   PO1 9722  15.490  26.050  18.900
  406BOLB   GL1 9723  15.510  26.100  19.330
  406BOLB   GL2 9724  15.770  26.140  19.470
  406BOLB   C1A 9725  15.210  26.340  19.500
  406BOLB   C2A 9726  15.330  26.700  19.810
  406BOLB   C3A 9727  15.380  26.630  20.140
  406BOLB   C4A 9728  15.520  26.790  20.550
  406BOLB   C1B 9729  15.630  26.610  19.430
  406BOLB   C2B 9730  15.620  27.030  19.640
  406BOLB   C3B 9731  15.480  27.480  19.730
  406BOLB   C4B 9732  15.420  27.860  19.820
  406BOLB   NC2 9733  15.520  28.430  22.690
  406BOLB   PO2 9734  15.550  27.880  22.680
  406BOLB   GL3 9735  15.580  27.480  22.490
  406BOLB   GL4 9736  15.430  27.280  22.520
  406BOLB   C1C 9737  15.530  27.390  22.050
  406BOLB   C2C 9738  15.630  27.320  21.680
  406BOLB   C3C 9739  15.430  27.160  21.380
  406BOLB   C4C 9740  15.420  26.830  21.070
  406BOLB   C1D 9741  15.720  26.990  22.260
  406BOLB   C2D 9742  15.650  26.610  22.020
  406BOLB   C3D 9743  15.510  26.300  21.890
  406BOLB   C4D 9744  15.220  25.890  21.670
  407BOLB   NC1 9745  21.920  27.570  18.320
  407BOLB   PO1 9746  21.810  27.950  18.100
  407BOLB   GL1 9747  21.870  28.130  18.520
  407BOLB   GL2 9748  21.960  28.470  18.210
  407BOLB   C1A 9749  21.980  28.500  18.740
  407BOLB   C2A 9750  22.110  28.870  18.740
  407BOLB   C3A 9751  22.140  29.270  18.770
  407BOLB   C4A 9752  22.340  29.660  19.010
  407BOLB   C1B 9753  21.700  28.700  18.400
  407BOLB   C2B 9754  21.650  28.850  18.790
  407BOLB   C3B 9755  21.810  28.970  19.130
  407BOLB   C4B 9756  22.110  28.970  19.490
  407BOLB   NC2 9757  23.680  30.130  20.570
  407BOLB   PO2 9758  23.650  29.970  20.180
  407BOLB   GL3 9759  23.640  29.650  20.250
  407BOLB   GL4 9760  23.910  29.510  20.060
  407BOLB   C1C 9761  23.390  29.410  20.020
  407BOLB   C2C 9762  23.010  29.270  19.870
  407BOLB   C3C 9763  22.810  29.470  19.680
  407BOLB   C4C 9764  22.620  29.730  19.250
  407BOLB   C1D 9765  23.770  29.140  19.840
  407BOLB   C2D 9766  23.550  29.140  19.550
  407BOLB   C3D 9767  23.290  29.450  19.510
  407BOLB   C4D 9768  23.170  29.870  19.290
  408BOLB   NC1 9769  12.780  15.660  16.270
  408BOLB   PO1 9770  13.110  15.740  16.010
  408BOLB   GL1 9771  13.120  16.120  15.700
  408BOLB   GL2 9772  13.300  16.390  15.780
  408BOLB   C1A 9773  13.030  16.220  15.160
  408BOLB   C2A 9774  12.910  16.260  14.750
  408BOLB   C3A 9775  13.140  16.000  14.430
  408BOLB   C4A 9776  13.280  15.820  14.190
  408BOLB   C1B 9777  13.420  16.500  15.430
  408BOLB   C2B 9778  13.700  16.730  15.150
  408BOLB   C3B 9779  13.850  17.140  15.020
  408BOLB   C4B 9780  14.180  17.420  15.230
  408BOLB   NC2 9781  13.470  17.290  12.920
  408BOLB   PO2 9782  13.100  17.500  13.020
  408BOLB   GL3 9783  13.110  17.120  13.250
  408BOLB   GL4 9784  12.940  16.920  13.170
  408BOLB   C1C 9785  13.300  16.870  13.560
  408BOLB   C2C 9786  13.490  16.440  13.390
  408BOLB   C3C 9787  13.310  16.020  13.440
  408BOLB   C4C 9788  13.380  15.790  13.820
  408BOLB   C1D 9789  13.120  16.440  13.020
  408BOLB   C2D 9790  13.060  15.950  12.970
  408BOLB   C3D 9791  12.890  15.380  12.940
  408BOLB   C4D 9792  12.540  15.150  12.940
  409BOLB   NC1 9793  16.300  22.470  20.060
  409BOLB   PO1 9794  16.070  22.810  20.110
  409BOLB   GL1 9795  15.740  22.910  20.390
  409BOLB   GL2 9796  15.390  22.820  20.510
  409BOLB   C1A 9797  15.740  23.040  20.880
  409BOLB   C2A 9798  15.610  23.170  21.290
  409BOLB   C3A 9799  15.700  23.340  21.660
  409BOLB   C4A 9800  15.870  23.530  22.020
  409BOLB   C1B 9801  15.170  22.960  20.880
  409BOLB   C2B 9802  15.120  23.120  21.250
  409BOLB   C3B 9803  15.190  23.240  21.680
  409BOLB   C4B 9804  15.330  23.410  22.080
  409BOLB   NC2 9805  16.130  23.630  24.780
  409BOLB   PO2 9806  15.820  23.700  24.500
  409BOLB   GL3 9807  15.930  23.650  24.060
  409BOLB   GL4 9808  15.630  23.510  23.990
  409BOLB   C1C 9809  15.940  23.780  23.670
  409BOLB   C2C 9810  15.930  24.030  23.230
  409BOLB   C3C 9811  15.960  23.760  22.850
  409BOLB   C4C 9812  15.870  23.610  22.430
  409BOLB   C1D 9813  15.920  23.270  23.770
  409BOLB   C2D 9814  15.900  22.840  23.580
  409BOLB   C3D 9815  16.020  22.540  23.260
  409BOLB   C4D 9816  16.150  22.080  23.190
  410BOLB   NC1 9817  15.150  26.840  17.150
  410BOLB   PO1 9818  15.500  27.170  17.210
  410BOLB   GL1 9819  15.180  27.530  17.500
  410BOLB   GL2 9820  15.100  27.730  17.310
  410BOLB   C1A 9821  15.180  27.810  17.780
  410BOLB   C2A 9822  15.020  28.180  17.960
  410BOLB   C3A 9823  14.710  28.370  18.200
  410BOLB   C4A 9824  14.280  28.640  18.170
  410BOLB   C1B 9825  14.990  28.180  17.490
  410BOLB   C2B 9826  14.630  28.350  17.710
  410BOLB   C3B 9827  14.640  28.720  17.860
  410BOLB   C4B 9828  14.490  29.120  18.010
  410BOLB   NC2 9829  12.620  29.930  19.830
  410BOLB   PO2 9830  12.710  29.590  19.520
  410BOLB   GL3 9831  12.860  29.810  19.160
  410BOLB   GL4 9832  12.760  29.470  19.030
  410BOLB   C1C 9833  13.240  29.530  18.960
  410BOLB   C2C 9834  13.360  29.310  18.580
  410BOLB   C3C 9835  13.680  29.200  18.280
  410BOLB   C4C 9836  14.060  28.990  18.410
  410BOLB   C1D 9837  12.880  29.100  18.690
  410BOLB   C2D 9838  13.250  28.930  18.310
  410BOLB   C3D 9839  13.640  28.820  17.960
  410BOLB   C4D 9840  13.770  28.910  17.550
  411BOLB   NC1 9841  23.410  18.390   9.140
  411BOLB   PO1 9842  23.710  18.290   9.450
  411BOLB   GL1 9843  24.000  17.980   9.350
  411BOLB   GL2 9844  24.260  18.120   9.510
  411BOLB   C1A 9845  24.330  17.950   8.970
  411BOLB   C2A 9846  24.520  17.530   9.050
  411BOLB   C3A 9847  24.940  17.460   9.110
  411BOLB   C4A 9848  25.280  17.620   9.060
  411BOLB   C1B 9849  24.690  18.020   9.570
  411BOLB   C2B 9850  25.020  17.850   9.380
  411BOLB   C3B 9851  25.610  18.090   9.490
  411BOLB   C4B 9852  25.960  18.080   9.830
  411BOLB   NC2 9853  27.400  18.250   7.710
  411BOLB   PO2 9854  27.560  17.910   7.960
  411BOLB   GL3 9855  27.200  18.040   8.150
  411BOLB   GL4 9856  27.220  18.450   8.130
  411BOLB   C1C 9857  26.850  17.990   8.500
  411BOLB   C2C 9858  26.500  17.730   8.650
  411BOLB   C3C 9859  26.090  17.670   8.800
  411BOLB   C4C 9860  25.640  17.590   8.810
  411BOLB   C1D 9861  26.760  18.430   8.390
  411BOLB   C2D 9862  26.490  18.300   8.750
  411BOLB   C3D 9863  26.280  18.090   9.070
  411BOLB   C4D 9864  26.270  18.290   9.350
  412BOLB   NC1 9865  23.730  26.380   9.620
  412BOLB   PO1 9866  23.600  26.520   9.280
  412BOLB   GL1 9867  23.680  26.760   8.790
  412BOLB   GL2 9868  23.600  26.940   8.510
  412BOLB   C1A 9869  24.020  26.850   8.390
  412BOLB   C2A 9870  24.400  26.820   8.420
  412BOLB   C3A 9871  24.650  26.940   8.160
  412BOLB   C4A 9872  25.030  26.960   7.920
  412BOLB   C1B 9873  23.670  27.340   8.330
  412BOLB   C2B 9874  23.830  27.640   8.030
  412BOLB   C3B 9875  23.950  28.070   7.970
  412BOLB   C4B 9876  24.410  28.230   8.010
  412BOLB   NC2 9877  26.310  28.720   6.010
  412BOLB   PO2 9878  26.200  28.700   6.460
  412BOLB   GL3 9879  26.140  28.460   6.780
  412BOLB   GL4 9880  26.120  28.040   6.670
  412BOLB   C1C 9881  25.970  28.140   7.110
  412BOLB   C2C 9882  25.850  27.770   7.280
  412BOLB   C3C 9883  25.680  27.490   7.510
  412BOLB   C4C 9884  25.400  27.110   7.680
  412BOLB   C1D 9885  26.110  27.640   6.800
  412BOLB   C2D 9886  26.170  27.430   7.090
  412BOLB   C3D 9887  25.970  27.160   7.250
  412BOLB   C4D 9888  25.600  26.880   7.180
  413BOLB   NC1 9889  18.940  12.530  12.850
  413BOLB   PO1 9890  19.170  12.770  12.610
  413BOLB   GL1 9891  19.360  12.550  12.280
  413BOLB   GL2 9892  19.240  12.500  11.990
  413BOLB   C1A 9893  19.380  12.060  12.280
  413BOLB   C2A 9894  19.270  11.720  12.260
  413BOLB   C3A 9895  19.270  11.420  11.950
  413BOLB   C4A 9896  19.310  11.060  11.670
  413BOLB   C1B 9897  19.530  12.320  11.700
  413BOLB   C2B 9898  19.690  12.050  11.470
  413BOLB   C3B 9899  19.960  11.890  11.400
  413BOLB   C4B 9900  20.190  11.550  11.310
  413BOLB   NC2 9901  21.180   9.890  10.740
  413BOLB   PO2 9902  21.270   9.980  11.240
  413BOLB   GL3 9903  20.890  10.130  11.130
  413BOLB   GL4 9904  20.620  10.180  11.400
  413BOLB   C1C 9905  20.470  10.140  10.970
  413BOLB   C2C 9906  20.050  10.150  11.180
  413BOLB   C3C 9907  19.730  10.470  11.170
  413BOLB   C4C 9908  19.610  10.750  11.470
  413BOLB   C1D 9909  20.550  10.570  11.180
  413BOLB   C2D 9910  20.810  10.560  10.860
  413BOLB   C3D 9911  21.110  10.520  10.630
  413BOLB   C4D 9912  21.460  10.650  10.550
  414BOLB   NC1 9913  18.040  20.260  20.170
  414BOLB   PO1 9914  18.240  20.060  20.430
  414BOLB   GL1 9915  18.150  20.000  20.890
  414BOLB   GL2 9916  18.010  19.750  20.860
  414BOLB   C1A 9917  18.200  19.990  21.350
  414BOLB   C2A 9918  18.000  20.030  21.750
  414BOLB   C3A 9919  17.670  20.090  21.910
  414BOLB   C4A 9920  17.220  20.300  22.090
  414BOLB   C1B 9921  17.720  19.740  21.170
  414BOLB   C2B 9922  17.600  19.930  21.460
  414BOLB   C3B 9923  17.460  19.680  21.780
  414BOLB   C4B 9924  17.390  19.840  22.310
  414BOLB   NC2 9925  17.090  21.270  24.810
  414BOLB   PO2 9926  16.870  21.070  24.600
  414BOLB   GL3 9927  16.890  20.960  24.160
  414BOLB   GL4 9928  16.920  21.230  23.950
  414BOLB   C1C 9929  17.040  20.760  23.810
  414BOLB   C2C 9930  16.940  20.620  23.360
  414BOLB   C3C 9931  17.010  20.400  22.870
  414BOLB   C4C 9932  17.040  20.260  22.460
  414BOLB   C1D 9933  16.940  21.120  23.500
  414BOLB   C2D 9934  17.010  21.110  23.120
  414BOLB   C3D 9935  17.370  21.150  22.850
  414BOLB   C4D 9936  17.340  21.190  22.290
  415BOLB   NC1 9937  15.070  13.380  16.920
  415BOLB   PO1 9938  14.980  13.020  16.810
  415BOLB   GL1 9939  15.030  12.640  17.150
  415BOLB   GL2 9940  15.260  12.560  16.840
  415BOLB   C1A 9941  15.010  12.300  17.250
  415BOLB   C2A 9942  15.100  11.850  17.250
  415BOLB   C3A 9943  14.970  11.550  17.110
  415BOLB   C4A 9944  14.780  11.170  16.790
  415BOLB   C1B 9945  15.470  12.320  17.130
  415BOLB   C2B 9946  15.730  12.150  17.500
  415BOLB   C3B 9947  16.140  11.940  17.660
  415BOLB   C4B 9948  16.310  11.510  17.790
  415BOLB   NC2 9949  14.160   8.880  17.660
  415BOLB   PO2 9950  13.750   8.850  17.500
  415BOLB   GL3 9951  13.950   9.230  17.200
  415BOLB   GL4 9952  14.330   9.190  17.320
  415BOLB   C1C 9953  14.140   9.690  17.110
  415BOLB   C2C 9954  14.330   9.990  16.860
  415BOLB   C3C 9955  14.470  10.360  16.580
  415BOLB   C4C 9956  14.730  10.760  16.720
  415BOLB   C1D 9957  14.740   9.300  17.340
  415BOLB   C2D 9958  15.110   9.620  17.190
  415BOLB   C3D 9959  15.140   9.990  16.920
  415BOLB   C4D 9960  14.940  10.320  16.740
  416BOLB   NC1 9961  24.610  27.600  15.400
  416BOLB   PO1 9962  24.350  28.040  15.270
  416BOLB   GL1 9963  24.420  28.440  15.420
  416BOLB   GL2 9964  24.740  28.400  15.490
  416BOLB   C1A 9965  24.520  28.890  15.450
  416BOLB   C2A 9966  24.960  29.020  15.630
  416BOLB   C3A 9967  25.300  29.090  15.550
  416BOLB   C4A 9968  25.500  29.380  15.450
  416BOLB   C1B 9969  25.220  28.500  15.600
  416BOLB   C2B 9970  25.630  28.590  15.630
  416BOLB   C3B 9971  25.830  28.270  15.680
  416BOLB   C4B 9972  26.190  28.230  15.810
  416BOLB   NC2 9973  25.910  31.790  15.340
  416BOLB   PO2 9974  25.730  31.960  15.740
  416BOLB   GL3 9975  25.600  31.520  15.750
  416BOLB   GL4 9976  25.450  31.540  15.510
  416BOLB   C1C 9977  25.430  30.990  15.710
  416BOLB   C2C 9978  25.260  30.640  15.560
  416BOLB   C3C 9979  25.220  30.230  15.360
  416BOLB   C4C 9980  25.470  29.760  15.490
  416BOLB   C1D 9981  24.970  31.400  15.480
  416BOLB   C2D 9982  24.790  30.930  15.530
  416BOLB   C3D 9983  24.640  30.450  15.630
  416BOLB   C4D 9984  24.990  30.030  15.730
  417BOLB   NC1 9985  13.320  24.930  17.790
  417BOLB   PO1 9986  13.620  24.630  18.120
  417BOLB   GL1 9987  13.630  24.990  18.220
  417BOLB   GL2 9988  13.590  25.300  18.040
  417BOLB   C1A 9989  13.550  25.310  18.590
  417BOLB   C2A 9990  13.330  25.630  18.920
  417BOLB   C3A 9991  13.250  25.680  19.390
  417BOLB   C4A 9992  12.880  25.800  19.420
  417BOLB   C1B 9993  13.550  25.690  18.290
  417BOLB   C2B 9994  13.410  25.950  18.520
  417BOLB   C3B 9995  13.150  26.280  18.650
  417BOLB   C4B 9996  12.810  26.480  18.770
  417BOLB   NC2 9997  10.780  27.730  19.700
  417BOLB   PO2 9998  11.130  27.460  19.830
  417BOLB   GL3 9999  11.270  27.110  19.590
  417BOLB   GL410000  11.130  27.070  19.200
  417BOLB   C1C10001  11.730  26.870  19.660
  417BOLB   C2C10002  11.930  26.520  19.870
  417BOLB   C3C10003  12.300  26.320  19.830
  417BOLB   C4C10004  12.580  26.220  19.540
  417BOLB   C1D10005  11.520  26.870  19.120
  417BOLB   C2D10006  11.850  26.820  18.850
  417BOLB   C3D10007  12.030  26.710  18.560
  417BOLB   C4D10008  12.020  26.870  18.180
  418BOLB   NC110009  15.310  12.860  16.450
  418BOLB   PO110010  15.760  12.840  16.740
  418BOLB   GL110011  15.990  12.600  17.100
  418BOLB   GL210012  15.880  12.630  17.450
  418BOLB   C1A10013  16.130  12.240  17.200
  418BOLB   C2A10014  16.410  11.840  17.260
  418BOLB   C3A10015  16.570  11.350  17.230
  418BOLB   C4A10016  16.500  10.940  17.070
  418BOLB   C1B10017  15.780  12.400  17.900
  418BOLB   C2B10018  15.640  11.930  17.930
  418BOLB   C3B10019  15.790  11.500  17.870
  418BOLB   C4B10020  15.990  11.190  17.510
  418BOLB   NC210021  16.940   9.020  18.460
  418BOLB   PO210022  16.600   9.050  18.760
  418BOLB   GL310023  16.530   9.330  18.410
  418BOLB   GL410024  16.530   9.640  18.540
  418BOLB   C1C10025  16.480   9.550  18.050
  418BOLB   C2C10026  16.330   9.930  17.750
  418BOLB   C3C10027  16.150  10.300  17.560
  418BOLB   C4C10028  16.340  10.680  17.370
  418BOLB   C1D10029  16.770   9.860  18.290
  418BOLB   C2D10030  16.850  10.030  17.920
  418BOLB   C3D10031  16.630  10.380  17.660
  418BOLB   C4D10032  16.710  10.840  17.640
  419BOLB   NC110033  11.350  15.500  18.730
  419BOLB   PO110034  11.670  15.270  18.590
  419BOLB   GL110035  11.630  15.110  18.900
  419BOLB   GL210036  11.760  14.820  18.900
  419BOLB   C1A10037  11.440  14.910  19.300
  419BOLB   C2A10038  11.340  15.160  19.730
  419BOLB   C3A10039  10.960  15.280  19.970
  419BOLB   C4A10040  11.140  15.350  20.370
  419BOLB   C1B10041  11.830  14.510  19.130
  419BOLB   C2B10042  11.510  14.470  19.510
  419BOLB   C3B10043  11.560  14.260  20.060
  419BOLB   C4B10044  11.660  14.570  20.440
  419BOLB   NC210045  10.480  15.680  22.810
  419BOLB   PO210046  10.580  16.060  22.640
  419BOLB   GL310047  10.580  15.760  22.270
  419BOLB   GL410048  10.460  15.430  22.360
  419BOLB   C1C10049  10.580  15.760  21.770
  419BOLB   C2C10050  10.870  15.730  21.470
  419BOLB   C3C10051  10.930  15.600  21.110
  419BOLB   C4C10052  11.010  15.570  20.660
  419BOLB   C1D10053  10.650  15.370  22.010
  419BOLB   C2D10054  10.760  15.280  21.570
  419BOLB   C3D10055  11.000  15.140  21.260
  419BOLB   C4D10056  11.200  14.760  21.220
  420BOLB   NC110057  16.120  17.080  24.220
  420BOLB   PO110058  16.240  16.860  23.800
  420BOLB   GL110059  16.220  17.170  23.420
  420BOLB   GL210060  16.300  17.520  23.480
  420BOLB   C1A10061  16.040  17.060  23.070
  420BOLB   C2A10062  16.130  17.040  22.610
  420BOLB   C3A10063  16.480  17.020  22.350
  420BOLB   C4A10064  16.540  16.800  22.040
  420BOLB   C1B10065  16.340  17.670  23.090
  420BOLB   C2B10066  16.390  17.460  22.710
  420BOLB   C3B10067  16.190  17.420  22.260
  420BOLB   C4B10068  16.200  17.150  21.940
  420BOLB   NC210069  15.840  17.480  19.960
  420BOLB   PO210070  16.030  17.160  19.700
  420BOLB   GL310071  16.230  17.180  20.180
  420BOLB   GL410072  16.420  17.400  20.250
  420BOLB   C1C10073  16.150  16.890  20.530
  420BOLB   C2C10074  16.180  16.700  20.850
  420BOLB   C3C10075  16.340  16.500  21.260
  420BOLB   C4C10076  16.320  16.540  21.710
  420BOLB   C1D10077  16.330  17.440  20.640
  420BOLB   C2D10078  16.160  17.160  20.990
  420BOLB   C3D10079  16.020  17.180  21.400
  420BOLB   C4D10080  15.930  17.470  21.700
  421BOLB   NC110081  16.590  27.380  17.690
  421BOLB   PO110082  16.450  27.650  18.030
  421BOLB   GL110083  16.430  27.940  18.200
  421BOLB   GL210084  16.610  28.210  18.030
  421BOLB   C1A10085  16.640  28.150  18.530
  421BOLB   C2A10086  16.440  28.410  18.830
  421BOLB   C3A10087  16.490  28.900  18.910
  421BOLB   C4A10088  16.570  29.330  18.820
  421BOLB   C1B10089  16.380  28.510  18.190
  421BOLB   C2B10090  16.140  28.830  18.410
  421BOLB   C3B10091  15.950  28.990  18.760
  421BOLB   C4B10092  16.010  29.190  19.040
  421BOLB   NC210093  16.590  30.350  21.090
  421BOLB   PO210094  16.410  30.050  21.080
  421BOLB   GL310095  16.340  29.920  20.620
  421BOLB   GL410096  16.630  29.660  20.490
  421BOLB   C1C10097  16.380  29.820  20.130
  421BOLB   C2C10098  16.660  29.670  19.830
  421BOLB   C3C10099  16.450  29.670  19.430
  421BOLB   C4C10100  16.340  29.640  19.070
  421BOLB   C1D10101  16.940  29.350  20.650
  421BOLB   C2D10102  17.030  28.990  20.380
  421BOLB   C3D10103  17.050  28.570  20.170
  421BOLB   C4D10104  17.140  28.150  20.100
  422BOLB   NC110105  22.370  19.160  18.730
  422BOLB   PO110106  22.300  19.090  19.150
  422BOLB   GL110107  22.660  19.140  19.380
  422BOLB   GL210108  22.920  19.050  19.220
  422BOLB   C1A10109  22.750  19.060  19.760
  422BOLB   C2A10110  22.910  18.870  20.080
  422BOLB   C3A10111  23.240  18.840  20.280
  422BOLB   C4A10112  23.460  18.550  20.610
  422BOLB   C1B10113  23.190  18.890  19.540
  422BOLB   C2B10114  23.360  18.680  19.800
  422BOLB   C3B10115  23.610  19.030  20.070
  422BOLB   C4B10116  23.620  19.190  20.480
  422BOLB   NC210117  25.690  18.310  22.060
  422BOLB   PO210118  25.260  18.330  21.970
  422BOLB   GL310119  25.000  18.350  21.640
  422BOLB   GL410120  25.250  18.300  21.380
  422BOLB   C1C10121  24.610  18.200  21.510
  422BOLB   C2C10122  24.650  18.170  21.020
  422BOLB   C3C10123  24.210  18.170  20.800
  422BOLB   C4C10124  23.850  18.460  20.800
  422BOLB   C1D10125  25.100  18.270  20.960
  422BOLB   C2D10126  24.860  18.190  20.470
  422BOLB   C3D10127  24.720  18.260  20.070
  422BOLB   C4D10128  24.370  18.470  19.780
  423BOLB   NC110129  24.360  19.520  18.070
  423BOLB   PO110130  24.350  19.880  18.270
  423BOLB   GL110131  24.600  19.710  18.420
  423BOLB   GL210132  24.460  19.880  18.740
  423BOLB   C1A10133  24.990  19.500  18.470
  423BOLB   C2A10134  25.340  19.270  18.440
  423BOLB   C3A10135  25.530  19.050  18.740
  423BOLB   C4A10136  25.440  18.620  19.000
  423BOLB   C1B10137  24.770  19.560  18.920
  423BOLB   C2B10138  24.910  19.480  19.330
  423BOLB   C3B10139  25.090  19.160  19.690
  423BOLB   C4B10140  25.160  19.360  20.000
  423BOLB   NC210141  27.410  16.690  19.850
  423BOLB   PO210142  27.360  17.120  19.870
  423BOLB   GL310143  27.000  17.380  19.850
  423BOLB   GL410144  26.990  17.130  19.470
  423BOLB   C1C10145  26.680  17.680  19.710
  423BOLB   C2C10146  26.420  17.920  19.410
  423BOLB   C3C10147  26.050  18.160  19.280
  423BOLB   C4C10148  25.600  18.380  19.150
  423BOLB   C1D10149  26.650  17.340  19.320
  423BOLB   C2D10150  26.180  17.450  19.290
  423BOLB   C3D10151  25.810  17.720  19.350
  423BOLB   C4D10152  25.410  17.870  19.260
  424BOLB   NC110153  14.480  24.300  18.480
  424BOLB   PO110154  14.070  24.510  18.520
  424BOLB   GL110155  13.830  24.660  18.750
  424BOLB   GL210156  13.610  24.880  18.820
  424BOLB   C1A10157  13.930  24.870  19.220
  424BOLB   C2A10158  13.810  25.130  19.530
  424BOLB   C3A10159  13.570  25.370  19.660
  424BOLB   C4A10160  13.700  25.600  20.040
  424BOLB   C1B10161  13.390  25.120  19.190
  424BOLB   C2B10162  13.330  24.980  19.510
  424BOLB   C3B10163  13.110  24.880  19.920
  424BOLB   C4B10164  12.740  25.060  20.060
  424BOLB   NC210165  12.700  27.270  22.410
  424BOLB   PO210166  12.830  27.180  21.920
  424BOLB   GL310167  13.180  27.000  21.650
  424BOLB   GL410168  13.230  27.150  21.290
  424BOLB   C1C10169  13.430  26.710  21.410
  424BOLB   C2C10170  13.520  26.300  21.150
  424BOLB   C3C10171  13.670  26.120  20.730
  424BOLB   C4C10172  13.720  25.990  20.370
  424BOLB   C1D10173  13.670  27.120  21.070
  424BOLB   C2D10174  13.600  27.190  20.710
  424BOLB   C3D10175  13.620  27.160  20.230
  424BOLB   C4D10176  13.870  26.960  19.890
  425BOLB   NC110177  17.010  29.840  12.690
  425BOLB   PO110178  17.360  29.890  12.830
  425BOLB   GL110179  17.400  30.260  12.560
  425BOLB   GL210180  17.540  30.460  12.770
  425BOLB   C1A10181  17.070  30.570  12.460
  425BOLB   C2A10182  17.090  30.990  12.450
  425BOLB   C3A10183  16.990  31.310  12.780
  425BOLB   C4A10184  17.210  31.820  12.630
  425BOLB   C1B10185  17.320  30.770  12.930
  425BOLB   C2B10186  17.120  31.010  13.150
  425BOLB   C3B10187  16.800  31.340  13.250
  425BOLB   C4B10188  16.830  31.770  13.040
  425BOLB   NC210189  16.680  33.880  12.610
  425BOLB   PO210190  16.980  33.990  13.030
  425BOLB   GL310191  17.080  33.650  12.810
  425BOLB   GL410192  17.400  33.540  12.890
  425BOLB   C1C10193  17.200  33.400  12.500
  425BOLB   C2C10194  17.290  32.990  12.330
  425BOLB   C3C10195  17.380  32.680  12.490
  425BOLB   C4C10196  17.330  32.290  12.590
  425BOLB   C1D10197  17.650  33.340  12.600
  425BOLB   C2D10198  17.760  32.950  12.610
  425BOLB   C3D10199  17.850  32.490  12.390
  425BOLB   C4D10200  18.090  32.110  12.370
  426BOLB   NC110201  10.630  25.210  14.630
  426BOLB   PO110202  10.710  25.490  14.400
  426BOLB   GL110203  10.620  25.930  14.330
  426BOLB   GL210204  10.490  26.020  13.990
  426BOLB   C1A10205  10.510  26.190  14.610
  426BOLB   C2A10206  10.240  26.470  14.830
  426BOLB   C3A10207  10.170  26.840  15.130
  426BOLB   C4A10208  10.310  27.350  15.200
  426BOLB   C1B10209  10.280  26.290  13.790
  426BOLB   C2B10210   9.970  26.550  13.810
  426BOLB   C3B10211   9.650  26.590  13.530
  426BOLB   C4B10212   9.210  26.710  13.400
  426BOLB   NC210213   9.080  29.680  16.230
  426BOLB   PO210214   9.410  29.420  15.880
  426BOLB   GL310215   9.760  29.150  15.700
  426BOLB   GL410216   9.930  29.410  15.460
  426BOLB   C1C10217   9.930  28.920  15.460
  426BOLB   C2C10218   9.960  28.480  15.520
  426BOLB   C3C10219  10.000  28.130  15.220
  426BOLB   C4C10220  10.370  27.840  15.210
  426BOLB   C1D10221  10.340  29.250  15.360
  426BOLB   C2D10222  10.580  29.070  15.050
  426BOLB   C3D10223  10.880  28.720  14.840
  426BOLB   C4D10224  11.120  28.390  14.510
  427BOLB   NC110225  15.410  23.500  19.750
  427BOLB   PO110226  15.440  23.960  19.660
  427BOLB   GL110227  15.100  23.850  19.930
  427BOLB   GL210228  14.820  23.950  19.960
  427BOLB   C1A10229  15.210  23.870  20.350
  427BOLB   C2A10230  15.000  23.880  20.710
  427BOLB   C3A10231  14.670  24.140  20.960
  427BOLB   C4A10232  14.560  24.420  21.360
  427BOLB   C1B10233  14.370  24.030  20.150
  427BOLB   C2B10234  14.110  24.060  20.620
  427BOLB   C3B10235  14.150  24.210  21.090
  427BOLB   C4B10236  14.040  23.950  21.350
  427BOLB   NC210237  14.110  25.440  23.240
  427BOLB   PO210238  13.640  25.370  23.060
  427BOLB   GL310239  13.930  25.340  22.680
  427BOLB   GL410240  13.830  25.480  22.480
  427BOLB   C1C10241  14.330  25.290  22.450
  427BOLB   C2C10242  14.560  25.050  22.340
  427BOLB   C3C10243  14.610  24.910  21.910
  427BOLB   C4C10244  14.480  24.670  21.670
  427BOLB   C1D10245  13.860  25.150  22.190
  427BOLB   C2D10246  14.120  24.810  22.170
  427BOLB   C3D10247  14.440  24.520  22.120
  427BOLB   C4D10248  14.810  24.310  22.270
  428BOLB   NC110249  16.530  26.390  18.900
  428BOLB   PO110250  16.280  26.470  18.620
  428BOLB   GL110251  15.920  26.730  18.700
  428BOLB   GL210252  15.590  26.600  18.780
  428BOLB   C1A10253  15.730  27.060  19.100
  428BOLB   C2A10254  15.560  27.420  19.250
  428BOLB   C3A10255  15.140  27.700  19.400
  428BOLB   C4A10256  14.610  27.610  19.380
  428BOLB   C1B10257  15.280  26.750  19.130
  428BOLB   C2B10258  15.100  27.060  19.330
  428BOLB   C3B10259  14.880  27.290  19.620
  428BOLB   C4B10260  14.990  27.580  20.020
  428BOLB   NC210261  13.080  27.470  21.610
  428BOLB   PO210262  13.070  27.600  21.220
  428BOLB   GL310263  13.310  27.630  20.820
  428BOLB   GL410264  13.570  27.630  21.040
  428BOLB   C1C10265  13.480  27.700  20.440
  428BOLB   C2C10266  13.580  27.620  20.110
  428BOLB   C3C10267  13.900  27.770  19.910
  428BOLB   C4C10268  14.280  27.860  19.550
  428BOLB   C1D10269  13.840  27.740  20.790
  428BOLB   C2D10270  13.990  27.550  20.410
  428BOLB   C3D10271  14.190  27.280  20.060
  428BOLB   C4D10272  14.310  27.060  19.680
  429BOLB   NC110273  19.440  14.780  17.050
  429BOLB   PO110274  19.480  14.360  16.930
  429BOLB   GL110275  19.680  14.060  17.220
  429BOLB   GL210276  19.560  13.740  17.260
  429BOLB   C1A10277  19.670  14.060  17.680
  429BOLB   C2A10278  19.660  13.770  18.060
  429BOLB   C3A10279  19.720  13.350  18.350
  429BOLB   C4A10280  19.780  13.120  18.780
  429BOLB   C1B10281  19.960  13.660  17.600
  429BOLB   C2B10282  19.980  13.420  17.880
  429BOLB   C3B10283  19.930  13.000  17.950
  429BOLB   C4B10284  19.670  12.790  18.280
  429BOLB   NC210285  19.150  12.260  21.360
  429BOLB   PO210286  19.590  12.330  21.220
  429BOLB   GL310287  19.620  12.610  20.830
  429BOLB   GL410288  19.470  12.610  20.520
  429BOLB   C1C10289  19.940  12.740  20.480
  429BOLB   C2C10290  19.920  12.910  20.090
  429BOLB   C3C10291  19.980  12.890  19.630
  429BOLB   C4C10292  19.960  13.100  19.160
  429BOLB   C1D10293  19.360  12.830  20.110
  429BOLB   C2D10294  19.430  13.050  19.770
  429BOLB   C3D10295  19.680  13.410  19.410
  429BOLB   C4D10296  19.790  13.680  19.110
  430BOLB   NC110297  16.910  14.570  18.440
  430BOLB   PO110298  16.730  14.300  18.240
  430BOLB   GL110299  16.750  14.100  18.580
  430BOLB   GL210300  16.950  14.310  18.880
  430BOLB   C1A10301  16.870  13.820  18.920
  430BOLB   C2A10302  16.920  14.020  19.310
  430BOLB   C3A10303  16.970  13.820  19.700
  430BOLB   C4A10304  16.950  13.660  20.200
  430BOLB   C1B10305  16.660  14.370  19.130
  430BOLB   C2B10306  16.580  14.550  19.550
  430BOLB   C3B10307  16.480  14.560  19.870
  430BOLB   C4B10308  16.630  14.640  20.160
  430BOLB   NC210309  16.080  12.300  21.990
  430BOLB   PO210310  15.910  12.610  21.710
  430BOLB   GL310311  16.050  12.910  21.500
  430BOLB   GL410312  16.090  12.740  21.190
  430BOLB   C1C10313  16.420  13.050  21.360
  430BOLB   C2C10314  16.770  13.460  21.370
  430BOLB   C3C10315  16.940  13.670  20.950
  430BOLB   C4C10316  16.910  13.500  20.590
  430BOLB   C1D10317  16.450  12.750  20.850
  430BOLB   C2D10318  16.650  12.910  20.510
  430BOLB   C3D10319  16.920  13.070  20.230
  430BOLB   C4D10320  16.980  13.290  19.900
  431BOLB   NC110321  19.680  26.580  18.820
  431BOLB   PO110322  19.610  26.610  19.290
  431BOLB   GL110323  19.700  26.920  19.470
  431BOLB   GL210324  19.980  26.950  19.480
  431BOLB   C1A10325  19.700  27.170  19.820
  431BOLB   C2A10326  19.810  27.450  20.140
  431BOLB   C3A10327  20.070  27.610  20.490
  431BOLB   C4A10328  20.010  27.520  20.960
  431BOLB   C1B10329  20.210  27.220  19.760
  431BOLB   C2B10330  20.530  27.270  20.030
  431BOLB   C3B10331  20.600  27.550  20.390
  431BOLB   C4B10332  20.920  27.830  20.430
  431BOLB   NC210333  19.520  27.940  23.300
  431BOLB   PO210334  19.900  28.010  23.120
  431BOLB   GL310335  20.190  27.960  22.710
  431BOLB   GL410336  20.300  27.610  22.660
  431BOLB   C1C10337  20.110  28.170  22.410
  431BOLB   C2C10338  19.900  28.250  22.030
  431BOLB   C3C10339  19.980  27.990  21.570
  431BOLB   C4C10340  19.940  27.710  21.360
  431BOLB   C1D10341  20.380  27.500  22.220
  431BOLB   C2D10342  20.040  27.310  21.930
  431BOLB   C3D10343  20.060  27.260  21.520
  431BOLB   C4D10344  20.100  27.080  21.130
  432BOLB   NC110345  23.600  28.370  16.320
  432BOLB   PO110346  23.360  28.280  16.630
  432BOLB   GL110347  23.390  28.360  17.070
  432BOLB   GL210348  23.160  28.570  16.980
  432BOLB   C1A10349  23.450  28.690  17.350
  432BOLB   C2A10350  23.510  29.040  17.530
  432BOLB   C3A10351  23.630  29.460  17.600
  432BOLB   C4A10352  23.740  29.850  17.680
  432BOLB   C1B10353  23.170  29.060  17.030
  432BOLB   C2B10354  23.110  29.490  17.210
  432BOLB   C3B10355  23.230  29.910  17.400
  432BOLB   C4B10356  23.380  30.390  17.380
  432BOLB   NC210357  24.320  31.250  19.680
  432BOLB   PO210358  24.350  31.220  19.290
  432BOLB   GL310359  24.270  31.090  18.870
  432BOLB   GL410360  24.670  31.050  18.620
  432BOLB   C1C10361  23.910  30.980  18.530
  432BOLB   C2C10362  23.690  30.860  18.210
  432BOLB   C3C10363  23.830  30.500  18.170
  432BOLB   C4C10364  23.820  30.210  17.940
  432BOLB   C1D10365  24.840  30.830  18.210
  432BOLB   C2D10366  24.770  30.510  18.000
  432BOLB   C3D10367  24.730  30.090  17.770
  432BOLB   C4D10368  24.700  29.740  18.050
  433BOLB   NC110369  24.160  26.000  17.220
  433BOLB   PO110370  24.630  26.020  17.060
  433BOLB   GL110371  25.050  26.280  17.130
  433BOLB   GL210372  25.300  26.110  17.290
  433BOLB   C1A10373  25.340  26.620  17.110
  433BOLB   C2A10374  25.660  26.840  17.410
  433BOLB   C3A10375  25.980  26.880  17.760
  433BOLB   C4A10376  26.350  26.760  17.980
  433BOLB   C1B10377  25.690  26.360  17.390
  433BOLB   C2B10378  25.890  26.340  17.650
  433BOLB   C3B10379  26.270  26.340  17.690
  433BOLB   C4B10380  26.370  26.030  17.970
  433BOLB   NC210381  29.090  26.750  18.230
  433BOLB   PO210382  28.890  26.450  18.340
  433BOLB   GL310383  28.530  26.350  18.260
  433BOLB   GL410384  28.590  25.980  18.070
  433BOLB   C1C10385  28.110  26.560  18.100
  433BOLB   C2C10386  27.680  26.700  18.020
  433BOLB   C3C10387  27.210  26.710  17.840
  433BOLB   C4C10388  26.770  26.690  17.810
  433BOLB   C1D10389  28.290  26.170  17.850
  433BOLB   C2D10390  27.980  26.360  17.630
  433BOLB   C3D10391  27.510  26.350  17.590
  433BOLB   C4D10392  27.220  26.190  17.870
  434BOLB   NC110393  24.140  24.630  18.750
  434BOLB   PO110394  24.000  24.220  18.840
  434BOLB   GL110395  24.250  24.310  19.150
  434BOLB   GL210396  24.450  24.540  19.130
  434BOLB   C1A10397  24.660  24.330  19.580
  434BOLB   C2A10398  24.930  24.210  19.870
  434BOLB   C3A10399  24.880  24.290  20.420
  434BOLB   C4A10400  24.770  24.250  20.770
  434BOLB   C1B10401  24.900  24.470  19.050
  434BOLB   C2B10402  25.140  24.340  19.440
  434BOLB   C3B10403  25.480  24.230  19.720
  434BOLB   C4B10404  25.700  23.810  19.740
  434BOLB   NC210405  26.270  23.550  22.200
  434BOLB   PO210406  26.040  23.090  22.190
  434BOLB   GL310407  25.890  23.260  21.920
  434BOLB   GL410408  25.590  23.140  21.930
  434BOLB   C1C10409  25.730  23.520  21.560
  434BOLB   C2C10410  25.520  23.930  21.380
  434BOLB   C3C10411  25.240  24.090  21.300
  434BOLB   C4C10412  25.120  24.300  20.980
  434BOLB   C1D10413  25.390  23.120  21.420
  434BOLB   C2D10414  24.990  23.200  21.240
  434BOLB   C3D10415  24.680  23.570  21.410
  434BOLB   C4D10416  24.240  23.750  21.560
  435BOLB   NC110417  25.020  21.660  17.290
  435BOLB   PO110418  24.890  21.710  17.750
  435BOLB   GL110419  25.200  21.980  17.730
  435BOLB   GL210420  25.250  22.140  17.410
  435BOLB   C1A10421  25.680  21.890  17.890
  435BOLB   C2A10422  26.080  21.790  18.040
  435BOLB   C3A10423  26.480  21.940  18.040
  435BOLB   C4A10424  26.920  21.880  17.910
  435BOLB   C1B10425  25.780  22.120  17.480
  435BOLB   C2B10426  26.040  21.870  17.490
  435BOLB   C3B10427  26.540  21.840  17.370
  435BOLB   C4B10428  26.990  21.680  17.370
  435BOLB   NC210429  29.350  22.200  18.490
  435BOLB   PO210430  29.230  21.940  18.880
  435BOLB   GL310431  28.850  21.830  18.750
  435BOLB   GL410432  28.900  21.950  18.470
  435BOLB   C1C10433  28.450  21.710  18.570
  435BOLB   C2C10434  27.980  21.770  18.480
  435BOLB   C3C10435  27.660  21.900  18.250
  435BOLB   C4C10436  27.360  21.670  18.040
  435BOLB   C1D10437  28.690  22.160  18.150
  435BOLB   C2D10438  28.510  22.440  17.860
  435BOLB   C3D10439  28.300  22.370  17.460
  435BOLB   C4D10440  28.170  22.660  17.120
  436BOLB   NC110441  18.510  29.830  15.380
  436BOLB   PO110442  18.960  29.810  15.440
  436BOLB   GL110443  18.940  30.130  15.780
  436BOLB   GL210444  19.220  30.160  15.980
  436BOLB   C1A10445  18.650  30.440  15.920
  436BOLB   C2A10446  18.600  30.890  16.050
  436BOLB   C3A10447  18.700  31.340  16.150
  436BOLB   C4A10448  18.390  31.730  16.080
  436BOLB   C1B10449  19.150  30.610  16.100
  436BOLB   C2B10450  19.120  30.950  16.280
  436BOLB   C3B10451  19.300  31.220  16.320
  436BOLB   C4B10452  19.340  31.660  16.380
  436BOLB   NC210453  16.510  33.330  16.100
  436BOLB   PO210454  16.780  33.400  16.420
  436BOLB   GL310455  17.040  33.090  16.320
  436BOLB   GL410456  16.780  32.870  16.290
  436BOLB   C1C10457  17.240  32.690  16.270
  436BOLB   C2C10458  17.530  32.350  16.140
  436BOLB   C3C10459  17.710  32.000  16.020
  436BOLB   C4C10460  18.050  31.830  15.980
  436BOLB   C1D10461  16.750  32.380  16.270
  436BOLB   C2D10462  16.790  31.980  16.210
  436BOLB   C3D10463  16.700  31.650  15.930
  436BOLB   C4D10464  16.950  31.200  16.020
  437BOLB   NC110465  20.290  17.640  19.380
  437BOLB   PO110466  20.700  17.560  19.080
  437BOLB   GL110467  20.960  17.260  19.310
  437BOLB   GL210468  20.800  17.020  19.530
  437BOLB   C1A10469  21.270  16.980  19.360
  437BOLB   C2A10470  21.640  17.090  19.450
  437BOLB   C3A10471  21.960  16.880  19.680
  437BOLB   C4A10472  22.270  16.950  20.000
  437BOLB   C1B10473  21.180  16.780  19.870
  437BOLB   C2B10474  21.220  16.560  20.210
  437BOLB   C3B10475  21.120  16.280  20.610
  437BOLB   C4B10476  20.820  16.000  20.880
  437BOLB   NC210477  23.850  16.980  22.080
  437BOLB   PO210478  23.730  16.580  21.720
  437BOLB   GL310479  23.430  16.730  21.690
  437BOLB   GL410480  23.210  16.790  21.860
  437BOLB   C1C10481  22.950  16.790  21.440
  437BOLB   C2C10482  22.850  16.850  21.040
  437BOLB   C3C10483  22.550  16.870  20.700
  437BOLB   C4C10484  22.190  16.840  20.420
  437BOLB   C1D10485  22.870  17.100  21.920
  437BOLB   C2D10486  22.830  17.310  21.520
  437BOLB   C3D10487  22.910  17.370  21.150
  437BOLB   C4D10488  22.940  17.810  20.920
  438BOLB   NC110489  24.890  20.230  11.780
  438BOLB   PO110490  25.270  20.390  11.520
  438BOLB   GL110491  25.650  20.200  11.520
  438BOLB   GL210492  25.760  19.890  11.770
  438BOLB   C1A10493  25.970  20.150  11.250
  438BOLB   C2A10494  26.270  20.100  11.000
  438BOLB   C3A10495  26.410  19.760  10.700
  438BOLB   C4A10496  26.670  19.410  10.890
  438BOLB   C1B10497  25.960  19.650  11.450
  438BOLB   C2B10498  26.220  19.510  11.090
  438BOLB   C3B10499  26.340  19.080  11.060
  438BOLB   C4B10500  26.660  18.860  11.330
  438BOLB   NC210501  28.560  18.990   9.290
  438BOLB   PO210502  28.670  19.170   9.670
  438BOLB   GL310503  28.270  19.270   9.740
  438BOLB   GL410504  28.170  19.290   9.490
  438BOLB   C1C10505  27.940  19.400   9.930
  438BOLB   C2C10506  27.790  19.270  10.360
  438BOLB   C3C10507  27.480  19.550  10.630
  438BOLB   C4C10508  27.110  19.350  10.790
  438BOLB   C1D10509  27.820  19.470   9.400
  438BOLB   C2D10510  27.520  19.540   9.690
  438BOLB   C3D10511  27.290  19.880   9.900
  438BOLB   C4D10512  27.070  20.330   9.860
  439BOLB   NC110513  20.320  14.750  16.880
  439BOLB   PO110514  20.290  14.870  17.360
  439BOLB   GL110515  20.580  14.540  17.330
  439BOLB   GL210516  20.980  14.670  17.320
  439BOLB   C1A10517  20.580  14.170  17.500
  439BOLB   C2A10518  20.870  13.820  17.560
  439BOLB   C3A10519  21.260  13.780  17.720
  439BOLB   C4A10520  21.500  13.490  17.960
  439BOLB   C1B10521  21.180  14.250  17.320
  439BOLB   C2B10522  21.480  13.940  17.260
  439BOLB   C3B10523  21.710  13.710  17.590
  439BOLB   C4B10524  22.030  13.650  17.870
  439BOLB   NC210525  22.970  11.970  18.470
  439BOLB   PO210526  22.870  11.630  18.830
  439BOLB   GL310527  22.520  11.930  18.750
  439BOLB   GL410528  22.680  12.290  18.740
  439BOLB   C1C10529  22.210  12.110  18.550
  439BOLB   C2C10530  22.160  12.570  18.470
  439BOLB   C3C10531  22.190  12.970  18.420
  439BOLB   C4C10532  21.840  13.290  18.230
  439BOLB   C1D10533  22.610  12.650  18.650
  439BOLB   C2D10534  22.690  13.020  18.530
  439BOLB   C3D10535  22.400  13.330  18.740
  439BOLB   C4D10536  22.410  13.740  18.730
  440BOLB   NC110537  18.250  27.380  18.690
  440BOLB   PO110538  18.440  27.140  18.910
  440BOLB   GL110539  18.390  27.550  19.180
  440BOLB   GL210540  18.700  27.620  19.360
  440BOLB   C1A10541  18.300  27.940  19.430
  440BOLB   C2A10542  18.180  28.310  19.480
  440BOLB   C3A10543  18.290  28.660  19.610
  440BOLB   C4A10544  18.350  28.950  19.810
  440BOLB   C1B10545  18.550  27.440  19.800
  440BOLB   C2B10546  18.690  27.420  20.250
  440BOLB   C3B10547  18.620  27.410  20.690
  440BOLB   C4B10548  18.680  27.230  21.140
  440BOLB   NC210549  18.260  29.980  21.660
  440BOLB   PO210550  18.020  30.310  21.410
  440BOLB   GL310551  17.930  30.370  21.000
  440BOLB   GL410552  17.670  30.330  20.960
  440BOLB   C1C10553  17.990  30.190  20.610
  440BOLB   C2C10554  17.810  29.750  20.510
  440BOLB   C3C10555  17.930  29.410  20.280
  440BOLB   C4C10556  18.080  29.090  20.140
  440BOLB   C1D10557  17.890  29.870  21.000
  440BOLB   C2D10558  18.180  29.600  20.770
  440BOLB   C3D10559  18.360  29.590  20.330
  440BOLB   C4D10560  18.480  29.490  19.900
  441BOLB   NC110561  10.350  22.680  16.210
  441BOLB   PO110562  10.120  22.550  16.390
  441BOLB   GL110563  10.020  22.720  16.890
  441BOLB   GL210564  10.150  22.510  17.090
  441BOLB   C1A10565   9.890  22.990  17.120
  441BOLB   C2A10566   9.670  23.300  17.340
  441BOLB   C3A10567   9.720  23.420  17.710
  441BOLB   C4A10568   9.600  23.740  18.100
  441BOLB   C1B10569  10.270  22.790  17.460
  441BOLB   C2B10570  10.070  23.040  17.830
  441BOLB   C3B10571  10.190  23.240  18.200
  441BOLB   C4B10572  10.070  23.560  18.460
  441BOLB   NC210573   8.680  25.250  19.230
  441BOLB   PO210574   8.510  24.810  19.450
  441BOLB   GL310575   8.920  24.820  19.390
  441BOLB   GL410576   9.060  24.720  19.640
  441BOLB   C1C10577   9.000  24.710  18.960
  441BOLB   C2C10578   9.230  24.570  18.660
  441BOLB   C3C10579   9.530  24.490  18.470
  441BOLB   C4C10580   9.620  24.140  18.300
  441BOLB   C1D10581   9.300  24.520  19.350
  441BOLB   C2D10582   9.560  24.620  19.050
  441BOLB   C3D10583  10.120  24.530  18.980
  441BOLB   C4D10584  10.540  24.510  18.840
  442BOLB   NC110585  14.570  12.770  16.960
  442BOLB   PO110586  14.270  12.890  17.190
  442BOLB   GL110587  14.580  12.740  17.480
  442BOLB   GL210588  14.430  12.630  17.670
  442BOLB   C1A10589  14.980  12.640  17.740
  442BOLB   C2A10590  15.140  12.340  17.830
  442BOLB   C3A10591  15.000  11.940  17.860
  442BOLB   C4A10592  15.180  11.610  18.050
  442BOLB   C1B10593  14.680  12.250  17.630
  442BOLB   C2B10594  14.700  11.730  17.500
  442BOLB   C3B10595  14.870  11.350  17.630
  442BOLB   C4B10596  15.110  11.130  17.920
  442BOLB   NC210597  15.030  10.020  19.730
  442BOLB   PO210598  15.520  10.110  19.840
  442BOLB   GL310599  15.440  10.320  19.500
  442BOLB   GL410600  15.340  10.110  19.300
  442BOLB   C1C10601  15.330  10.650  19.180
  442BOLB   C2C10602  15.210  10.990  18.910
  442BOLB   C3C10603  15.320  11.260  18.630
  442BOLB   C4C10604  15.410  11.310  18.330
  442BOLB   C1D10605  15.190  10.240  18.910
  442BOLB   C2D10606  15.180  10.530  18.620
  442BOLB   C3D10607  14.950  10.900  18.390
  442BOLB   C4D10608  14.700  11.230  18.140
  443BOLB   NC110609  26.690  23.220  15.580
  443BOLB   PO110610  26.660  22.830  15.270
  443BOLB   GL110611  26.960  22.810  15.000
  443BOLB   GL210612  27.180  23.030  15.040
  443BOLB   C1A10613  27.250  22.490  14.840
  443BOLB   C2A10614  27.610  22.340  14.640
  443BOLB   C3A10615  28.080  22.280  14.650
  443BOLB   C4A10616  28.430  22.060  14.720
  443BOLB   C1B10617  27.450  22.750  15.200
  443BOLB   C2B10618  27.620  22.550  15.580
  443BOLB   C3B10619  27.910  22.680  15.850
  443BOLB   C4B10620  28.090  23.100  16.160
  443BOLB   NC210621  30.300  21.630  16.430
  443BOLB   PO210622  30.320  21.810  16.110
  443BOLB   GL310623  30.020  21.690  15.880
  443BOLB   GL410624  30.040  21.900  15.650
  443BOLB   C1C10625  29.620  21.700  15.610
  443BOLB   C2C10626  29.350  21.540  15.420
  443BOLB   C3C10627  29.030  21.670  15.280
  443BOLB   C4C10628  28.530  21.910  15.210
  443BOLB   C1D10629  29.660  22.140  15.840
  443BOLB   C2D10630  29.470  22.250  16.190
  443BOLB   C3D10631  29.170  22.330  16.490
  443BOLB   C4D10632  29.050  22.080  16.850
  444BOLB   NC110633  24.570  25.150  18.110
  444BOLB   PO110634  24.230  25.140  18.410
  444BOLB   GL110635  24.310  25.190  18.810
  444BOLB   GL210636  24.140  25.460  18.960
  444BOLB   C1A10637  24.520  25.000  19.190
  444BOLB   C2A10638  24.810  24.810  19.360
  444BOLB   C3A10639  25.030  24.740  19.790
  444BOLB   C4A10640  25.450  24.720  19.790
  444BOLB   C1B10641  24.280  25.490  19.370
  444BOLB   C2B10642  24.670  25.360  19.550
  444BOLB   C3B10643  25.080  25.200  19.570
  444BOLB   C4B10644  25.480  25.310  19.550
  444BOLB   NC210645  27.930  24.660  20.400
  444BOLB   PO210646  27.600  25.000  20.520
  444BOLB   GL310647  27.340  25.160  20.200
  444BOLB   GL410648  27.380  25.540  20.270
  444BOLB   C1C10649  26.850  25.280  20.180
  444BOLB   C2C10650  26.490  25.150  20.030
  444BOLB   C3C10651  26.210  24.890  20.090
  444BOLB   C4C10652  25.900  24.730  19.820
  444BOLB   C1D10653  27.240  25.510  19.860
  444BOLB   C2D10654  26.840  25.470  19.680
  444BOLB   C3D10655  26.400  25.580  19.580
  444BOLB   C4D10656  25.870  25.580  19.600
  445BOLB   NC110657  11.170  15.390  17.760
  445BOLB   PO110658  11.120  15.330  18.250
  445BOLB   GL110659  11.100  14.930  18.430
  445BOLB   GL210660  10.930  14.750  18.330
  445BOLB   C1A10661  11.090  14.910  18.900
  445BOLB   C2A10662  11.120  14.590  19.150
  445BOLB   C3A10663  10.870  14.400  19.380
  445BOLB   C4A10664  10.510  14.520  19.700
  445BOLB   C1B10665  10.820  14.560  18.700
  445BOLB   C2B10666  10.510  14.200  19.010
  445BOLB   C3B10667  10.140  14.200  19.320
  445BOLB   C4B10668   9.940  14.370  19.730
  445BOLB   NC210669   8.590  13.250  19.890
  445BOLB   PO210670   8.670  13.030  20.260
  445BOLB   GL310671   9.050  13.310  20.170
  445BOLB   GL410672   9.100  13.380  19.820
  445BOLB   C1C10673   9.150  13.650  20.240
  445BOLB   C2C10674   9.530  13.960  20.200
  445BOLB   C3C10675   9.920  14.020  20.090
  445BOLB   C4C10676  10.230  14.330  20.070
  445BOLB   C1D10677   9.510  13.600  19.850
  445BOLB   C2D10678   9.970  13.600  19.800
  445BOLB   C3D10679  10.300  13.970  19.740
  445BOLB   C4D10680  10.680  13.940  19.480
  446BOLB   NC110681  25.140  27.290  11.510
  446BOLB   PO110682  24.890  27.670  11.490
  446BOLB   GL110683  25.400  27.760  11.460
  446BOLB   GL210684  25.680  27.500  11.680
  446BOLB   C1A10685  25.680  28.050  11.230
  446BOLB   C2A10686  25.730  28.370  11.570
  446BOLB   C3A10687  25.840  28.650  11.940
  446BOLB   C4A10688  26.130  29.020  12.140
  446BOLB   C1B10689  26.090  27.340  11.770
  446BOLB   C2B10690  26.480  27.480  11.550
  446BOLB   C3B10691  26.590  27.870  11.360
  446BOLB   C4B10692  26.740  28.210  11.200
  446BOLB   NC210693  27.760  30.660  13.360
  446BOLB   PO210694  27.280  30.820  13.160
  446BOLB   GL310695  27.010  30.460  13.320
  446BOLB   GL410696  26.770  30.520  13.620
  446BOLB   C1C10697  26.930  30.100  13.020
  446BOLB   C2C10698  26.900  29.860  12.660
  446BOLB   C3C10699  26.650  29.610  12.380
  446BOLB   C4C10700  26.260  29.330  12.300
  446BOLB   C1D10701  26.430  30.260  13.790
  446BOLB   C2D10702  26.000  30.190  13.800
  446BOLB   C3D10703  25.790  29.910  13.610
  446BOLB   C4D10704  25.690  29.570  13.650
  447BOLB   NC110705  24.900  19.500  13.920
  447BOLB   PO110706  25.250  19.300  13.870
  447BOLB   GL110707  25.600  19.230  13.950
  447BOLB   GL210708  25.760  18.920  13.900
  447BOLB   C1A10709  26.060  19.310  14.090
  447BOLB   C2A10710  26.560  19.350  14.180
  447BOLB   C3A10711  26.900  19.240  14.200
  447BOLB   C4A10712  27.370  19.340  14.270
  447BOLB   C1B10713  26.220  18.770  14.040
  447BOLB   C2B10714  26.620  18.930  13.930
  447BOLB   C3B10715  26.990  18.920  13.820
  447BOLB   C4B10716  27.300  18.830  13.990
  447BOLB   NC210717  30.030  18.260  15.240
  447BOLB   PO210718  29.560  18.260  15.340
  447BOLB   GL310719  29.150  18.450  15.550
  447BOLB   GL410720  28.960  18.350  15.800
  447BOLB   C1C10721  28.750  18.610  15.230
  447BOLB   C2C10722  28.480  18.930  14.990
  447BOLB   C3C10723  28.120  19.030  14.720
  447BOLB   C4C10724  27.710  19.140  14.440
  447BOLB   C1D10725  28.710  18.670  15.730
  447BOLB   C2D10726  28.600  19.090  15.840
  447BOLB   C3D10727  28.400  19.450  15.590
  447BOLB   C4D10728  28.010  19.630  15.570
  448BOLB   NC110729  17.710  14.200  17.230
  448BOLB   PO110730  17.840  13.840  17.150
  448BOLB   GL110731  18.080  13.520  17.410
  448BOLB   GL210732  18.370  13.670  17.600
  448BOLB   C1A10733  17.910  13.270  17.750
  448BOLB   C2A10734  17.840  12.940  17.920
  448BOLB   C3A10735  17.810  12.470  18.140
  448BOLB   C4A10736  17.900  12.330  18.520
  448BOLB   C1B10737  18.480  13.250  17.690
  448BOLB   C2B10738  18.320  12.920  17.670
  448BOLB   C3B10739  17.970  12.760  17.440
  448BOLB   C4B10740  17.580  12.980  17.380
  448BOLB   NC210741  19.050  10.860  19.920
  448BOLB   PO210742  18.590  10.710  20.120
  448BOLB   GL310743  18.510  10.990  19.870
  448BOLB   GL410744  18.260  11.130  20.000
  448BOLB   C1C10745  18.530  11.440  19.680
  448BOLB   C2C10746  18.620  11.650  19.330
  448BOLB   C3C10747  18.520  11.890  19.000
  448BOLB   C4C10748  18.280  12.070  18.700
  448BOLB   C1D10749  18.030  11.450  19.950
  448BOLB   C2D10750  18.000  11.760  19.690
  448BOLB   C3D10751  17.670  11.980  19.410
  448BOLB   C4D10752  17.720  12.160  18.990
  449BOLB   NC110753  10.600  25.500  13.550
  449BOLB   PO110754  10.360  25.420  13.210
  449BOLB   GL110755  10.010  25.460  13.480
  449BOLB   GL210756  10.150  25.790  13.550
  449BOLB   C1A10757   9.610  25.440  13.580
  449BOLB   C2A10758   9.260  25.720  13.650
  449BOLB   C3A10759   9.390  26.150  13.700
  449BOLB   C4A10760   9.070  26.530  13.900
  449BOLB   C1B10761   9.950  25.900  13.890
  449BOLB   C2B10762   9.660  26.220  14.110
  449BOLB   C3B10763   9.450  26.600  14.150
  449BOLB   C4B10764   9.150  27.000  14.140
  449BOLB   NC210765   8.440  28.720  13.930
  449BOLB   PO210766   8.180  28.660  13.580
  449BOLB   GL310767   8.430  28.270  13.590
  449BOLB   GL410768   8.650  28.290  13.830
  449BOLB   C1C10769   8.460  27.840  13.780
  449BOLB   C2C10770   8.820  27.560  13.860
  449BOLB   C3C10771   8.670  27.160  13.910
  449BOLB   C4C10772   8.800  26.840  13.810
  449BOLB   C1D10773   8.860  27.990  13.550
  449BOLB   C2D10774   9.110  27.570  13.460
  449BOLB   C3D10775   9.180  27.220  13.680
  449BOLB   C4D10776   9.520  26.990  13.840
  450BOLB   NC110777  16.460  28.950  11.790
  450BOLB   PO110778  16.230  29.200  11.400
  450BOLB   GL110779  15.950  29.480  11.420
  450BOLB   GL210780  16.080  29.820  11.420
  450BOLB   C1A10781  15.640  29.660  11.180
  450BOLB   C2A10782  15.480  30.010  11.010
  450BOLB   C3A10783  15.490  30.420  10.910
  450BOLB   C4A10784  15.520  30.810  10.870
  450BOLB   C1B10785  15.860  30.180  11.290
  450BOLB   C2B10786  15.540  30.380  11.420
  450BOLB   C3B10787  15.230  30.600  11.530
  450BOLB   C4B10788  14.780  30.670  11.630
  450BOLB   NC210789  14.040  32.490  10.850
  450BOLB   PO210790  14.130  32.570  11.160
  450BOLB   GL310791  14.520  32.350  10.950
  450BOLB   GL410792  14.400  32.190  10.600
  450BOLB   C1C10793  14.960  32.340  10.710
  450BOLB   C2C10794  15.230  32.010  10.600
  450BOLB   C3C10795  15.480  31.650  10.560
  450BOLB   C4C10796  15.660  31.300  10.640
  450BOLB   C1D10797  14.800  31.870  10.810
  450BOLB   C2D10798  14.980  31.530  10.710
  450BOLB   C3D10799  15.110  31.020  10.720
  450BOLB   C4D10800  15.120  30.660  11.020
  451BOLB   NC110801  15.740  12.500  15.720
  451BOLB   PO110802  16.040  12.800  15.830
  451BOLB   GL110803  16.150  12.430  16.040
  451BOLB   GL210804  16.240  12.220  15.780
  451BOLB   C1A10805  16.020  12.010  16.200
  451BOLB   C2A10806  15.780  11.720  16.470
  451BOLB   C3A10807  15.630  11.370  16.770
  451BOLB   C4A10808  15.330  11.250  17.020
  451BOLB   C1B10809  16.450  11.850  16.000
  451BOLB   C2B10810  16.580  11.700  16.430
  451BOLB   C3B10811  16.820  11.480  16.700
  451BOLB   C4B10812  16.840  11.030  16.700
  451BOLB   NC210813  14.470   9.440  18.320
  451BOLB   PO210814  14.250   9.190  18.010
  451BOLB   GL310815  14.190   9.550  17.710
  451BOLB   GL410816  13.890   9.460  17.690
  451BOLB   C1C10817  14.310  10.000  17.490
  451BOLB   C2C10818  14.520  10.300  17.150
  451BOLB   C3C10819  14.820  10.660  17.200
  451BOLB   C4C10820  15.000  11.030  17.260
  451BOLB   C1D10821  13.740   9.850  17.520
  451BOLB   C2D10822  13.530  10.140  17.350
  451BOLB   C3D10823  13.450  10.620  17.350
  451BOLB   C4D10824  13.360  10.920  17.180
  452BOLB   NC110825  13.020  24.150  17.520
  452BOLB   PO110826  13.060  24.470  17.800
  452BOLB   GL110827  13.130  24.640  18.290
  452BOLB   GL210828  13.320  24.490  18.570
  452BOLB   C1A10829  13.140  25.010  18.550
  452BOLB   C2A10830  13.000  25.270  18.880
  452BOLB   C3A10831  12.900  25.190  19.360
  452BOLB   C4A10832  12.960  25.370  19.740
  452BOLB   C1B10833  13.060  24.690  18.990
  452BOLB   C2B10834  12.830  24.700  19.400
  452BOLB   C3B10835  12.490  24.720  19.680
  452BOLB   C4B10836  12.280  24.900  19.990
  452BOLB   NC210837  12.240  27.380  21.460
  452BOLB   PO210838  12.070  26.970  21.250
  452BOLB   GL310839  12.450  26.620  21.110
  452BOLB   GL410840  12.500  26.350  21.400
  452BOLB   C1C10841  12.700  26.600  20.780
  452BOLB   C2C10842  12.990  26.450  20.370
  452BOLB   C3C10843  13.200  26.070  20.260
  452BOLB   C4C10844  13.170  25.640  20.050
  452BOLB   C1D10845  12.850  26.240  21.210
  452BOLB   C2D10846  13.140  26.300  20.850
  452BOLB   C3D10847  13.430  26.510  20.510
  452BOLB   C4D10848  13.740  26.500  20.190
  453BOLB   NC110849  19.140  28.600  17.230
  453BOLB   PO110850  19.520  28.740  17.290
  453BOLB   GL110851  19.770  29.090  17.430
  453BOLB   GL210852  19.520  29.270  17.470
  453BOLB   C1A10853  19.950  29.290  17.740
  453BOLB   C2A10854  20.060  29.660  17.970
  453BOLB   C3A10855  20.430  29.960  18.170
  453BOLB   C4A10856  20.530  30.390  18.270
  453BOLB   C1B10857  19.330  29.550  17.740
  453BOLB   C2B10858  19.070  29.450  18.000
  453BOLB   C3B10859  18.770  29.680  18.000
  453BOLB   C4B10860  18.470  29.960  17.890
  453BOLB   NC210861  21.430  31.610  20.520
  453BOLB   PO210862  21.350  31.240  20.270
  453BOLB   GL310863  21.330  31.170  19.850
  453BOLB   GL410864  21.070  31.290  19.730
  453BOLB   C1C10865  21.310  30.890  19.550
  453BOLB   C2C10866  21.230  30.730  19.190
  453BOLB   C3C10867  21.040  30.800  18.860
  453BOLB   C4C10868  20.770  30.540  18.610
  453BOLB   C1D10869  20.920  30.820  19.740
  453BOLB   C2D10870  20.860  30.490  19.370
  453BOLB   C3D10871  20.640  30.320  19.000
  453BOLB   C4D10872  20.440  30.080  18.670
  454BOLB   NC110873  17.700  20.510  19.820
  454BOLB   PO110874  17.540  20.350  20.230
  454BOLB   GL110875  17.340  20.220  20.610
  454BOLB   GL210876  17.230  20.470  20.810
  454BOLB   C1A10877  16.990  19.870  20.850
  454BOLB   C2A10878  16.850  20.030  21.330
  454BOLB   C3A10879  16.590  19.880  21.680
  454BOLB   C4A10880  16.350  19.700  21.830
  454BOLB   C1B10881  17.280  20.230  21.180
  454BOLB   C2B10882  17.170  20.100  21.680
  454BOLB   C3B10883  16.910  19.930  22.130
  454BOLB   C4B10884  16.660  19.960  22.410
  454BOLB   NC210885  16.250  20.490  24.440
  454BOLB   PO210886  16.550  20.610  24.160
  454BOLB   GL310887  16.550  20.540  23.750
  454BOLB   GL410888  16.370  20.750  23.670
  454BOLB   C1C10889  16.490  20.400  23.260
  454BOLB   C2C10890  16.240  20.210  22.890
  454BOLB   C3C10891  16.150  20.150  22.530
  454BOLB   C4C10892  16.300  19.980  22.100
  454BOLB   C1D10893  16.460  20.910  23.300
  454BOLB   C2D10894  16.650  20.890  22.920
  454BOLB   C3D10895  16.950  20.910  22.670
  454BOLB   C4D10896  17.400  20.740  22.560
  455BOLB   NC110897  18.770  14.810  18.580
  455BOLB   PO110898  19.000  14.760  18.280
  455BOLB   GL110899  19.130  14.550  18.740
  455BOLB   GL210900  19.240  14.910  18.880
  455BOLB   C1A10901  19.480  14.370  18.880
  455BOLB   C2A10902  19.830  14.170  18.990
  455BOLB   C3A10903  19.990  14.240  19.420
  455BOLB   C4A10904  20.090  14.180  19.870
  455BOLB   C1B10905  18.980  14.650  19.240
  455BOLB   C2B10906  18.950  14.210  19.280
  455BOLB   C3B10907  18.680  13.890  19.140
  455BOLB   C4B10908  18.690  13.660  19.330
  455BOLB   NC210909  21.070  13.900  22.230
  455BOLB   PO210910  21.330  13.610  21.920
  455BOLB   GL310911  21.010  13.860  21.700
  455BOLB   GL410912  20.690  13.880  21.810
  455BOLB   C1C10913  21.000  14.130  21.240
  455BOLB   C2C10914  20.800  14.080  20.890
  455BOLB   C3C10915  20.540  14.060  20.510
  455BOLB   C4C10916  20.390  14.350  20.180
  455BOLB   C1D10917  20.720  14.330  21.680
  455BOLB   C2D10918  20.730  14.550  21.310
  455BOLB   C3D10919  20.560  14.600  20.960
  455BOLB   C4D10920  20.330  14.470  20.710
  456BOLB   NC110921  15.650  28.810  14.370
  456BOLB   PO110922  15.940  29.110  14.450
  456BOLB   GL110923  15.730  29.370  14.340
  456BOLB   GL210924  15.530  29.280  14.270
  456BOLB   C1A10925  15.570  29.740  14.480
  456BOLB   C2A10926  15.400  29.770  14.850
  456BOLB   C3A10927  15.380  29.960  15.240
  456BOLB   C4A10928  15.270  30.330  15.490
  456BOLB   C1B10929  15.290  29.560  14.080
  456BOLB   C2B10930  15.300  29.840  13.850
  456BOLB   C3B10931  15.420  30.390  13.700
  456BOLB   C4B10932  15.460  30.740  13.700
  456BOLB   NC210933  13.460  32.060  15.910
  456BOLB   PO210934  13.100  32.040  15.570
  456BOLB   GL310935  13.620  31.960  15.450
  456BOLB   GL410936  13.670  31.950  15.070
  456BOLB   C1C10937  13.930  31.620  15.570
  456BOLB   C2C10938  14.220  31.320  15.570
  456BOLB   C3C10939  14.650  30.970  15.590
  456BOLB   C4C10940  14.960  30.660  15.630
  456BOLB   C1D10941  13.660  31.650  14.740
  456BOLB   C2D10942  13.990  31.360  14.580
  456BOLB   C3D10943  14.050  30.950  14.340
  456BOLB   C4D10944  13.860  30.770  14.020
  457BOLB   NC110945  24.320  25.840  18.410
  457BOLB   PO110946  23.950  25.980  18.220
  457BOLB   GL110947  24.030  26.150  18.680
  457BOLB   GL210948  24.000  25.890  18.820
  457BOLB   C1A10949  24.200  26.490  18.920
  457BOLB   C2A10950  24.540  26.440  19.170
  457BOLB   C3A10951  24.800  26.420  19.430
  457BOLB   C4A10952  25.220  26.230  19.630
  457BOLB   C1B10953  24.090  25.940  19.160
  457BOLB   C2B10954  24.080  25.940  19.620
  457BOLB   C3B10955  24.320  25.950  20.030
  457BOLB   C4B10956  24.670  25.940  20.280
  457BOLB   NC210957  27.330  24.840  20.970
  457BOLB   PO210958  26.850  24.990  21.000
  457BOLB   GL310959  26.590  25.300  20.760
  457BOLB   GL410960  26.360  25.460  20.950
  457BOLB   C1C10961  26.380  25.600  20.480
  457BOLB   C2C10962  26.270  25.660  20.050
  457BOLB   C3C10963  25.890  25.960  19.920
  457BOLB   C4C10964  25.640  26.020  19.660
  457BOLB   C1D10965  25.880  25.480  20.960
  457BOLB   C2D10966  25.480  25.630  20.720
  457BOLB   C3D10967  25.290  25.310  20.530
  457BOLB   C4D10968  24.880  25.250  20.380
  458BOLB   NC110969   8.650  23.780  12.860
  458BOLB   PO110970   8.750  23.820  12.440
  458BOLB   GL110971   8.380  24.100  12.520
  458BOLB   GL210972   8.590  24.470  12.440
  458BOLB   C1A10973   7.930  24.150  12.520
  458BOLB   C2A10974   7.610  24.220  12.170
  458BOLB   C3A10975   7.210  24.130  12.200
  458BOLB   C4A10976   6.820  24.120  12.230
  458BOLB   C1B10977   8.130  24.590  12.650
  458BOLB   C2B10978   7.750  24.680  12.320
  458BOLB   C3B10979   7.340  24.610  12.120
  458BOLB   C4B10980   6.970  24.600  12.310
  458BOLB   NC210981   5.170  25.160  11.620
  458BOLB   PO210982   5.050  24.750  11.480
  458BOLB   GL310983   5.210  24.460  11.740
  458BOLB   GL410984   5.480  24.510  11.690
  458BOLB   C1C10985   5.380  24.010  11.840
  458BOLB   C2C10986   5.610  23.740  12.050
  458BOLB   C3C10987   6.080  23.770  12.090
  458BOLB   C4C10988   6.470  23.910  12.290
  458BOLB   C1D10989   5.870  24.630  11.500
  458BOLB   C2D10990   6.360  24.510  11.430
  458BOLB   C3D10991   6.800  24.230  11.460
  458BOLB   C4D10992   7.090  23.950  11.330
  459BOLB   NC110993  17.070  29.600  15.290
  459BOLB   PO110994  17.200  29.430  15.740
  459BOLB   GL110995  16.970  29.810  15.870
  459BOLB   GL210996  16.950  29.990  15.580
  459BOLB   C1A10997  16.800  30.070  16.160
  459BOLB   C2A10998  16.780  30.480  16.430
  459BOLB   C3A10999  16.540  30.770  16.690
  459BOLB   C4A11000  16.220  30.780  17.000
  459BOLB   C1B11001  16.720  30.280  15.510
  459BOLB   C2B11002  16.810  30.710  15.480
  459BOLB   C3B11003  16.690  31.070  15.310
  459BOLB   C4B11004  16.770  31.430  15.490
  459BOLB   NC211005  14.850  32.390  18.460
  459BOLB   PO211006  14.890  32.060  18.470
  459BOLB   GL311007  15.040  31.730  18.280
  459BOLB   GL411008  15.010  31.410  18.250
  459BOLB   C1C11009  15.370  31.620  18.030
  459BOLB   C2C11010  15.540  31.320  18.120
  459BOLB   C3C11011  15.800  31.060  17.730
  459BOLB   C4C11012  16.030  30.900  17.380
  459BOLB   C1D11013  15.180  31.030  18.270
  459BOLB   C2D11014  15.500  30.850  18.260
  459BOLB   C3D11015  15.730  30.610  17.920
  459BOLB   C4D11016  15.960  30.210  17.900
  460BOLB   NC111017  26.440  24.410  14.900
  460BOLB   PO111018  26.610  24.600  15.210
  460BOLB   GL111019  26.940  24.580  15.520
  460BOLB   GL211020  26.850  24.430  15.850
  460BOLB   C1A11021  27.230  24.800  15.730
  460BOLB   C2A11022  27.700  24.650  15.860
  460BOLB   C3A11023  27.950  24.640  16.280
  460BOLB   C4A11024  28.200  24.400  16.620
  460BOLB   C1B11025  27.220  24.390  16.100
  460BOLB   C2B11026  27.520  24.470  16.320
  460BOLB   C3B11027  27.720  24.260  16.740
  460BOLB   C4B11028  27.700  24.450  17.120
  460BOLB   NC211029  29.080  25.990  18.580
  460BOLB   PO211030  29.070  25.520  18.310
  460BOLB   GL311031  28.730  25.460  18.070
  460BOLB   GL411032  28.820  25.600  17.800
  460BOLB   C1C11033  28.680  25.050  17.940
  460BOLB   C2C11034  28.450  24.840  17.670
  460BOLB   C3C11035  28.150  24.620  17.450
  460BOLB   C4C11036  28.150  24.540  16.980
  460BOLB   C1D11037  28.350  25.630  17.740
  460BOLB   C2D11038  28.140  25.240  17.580
  460BOLB   C3D11039  27.910  25.030  17.250
  460BOLB   C4D11040  28.030  24.970  16.740
  461BOLB   NC111041  22.760  24.420  19.060
  461BOLB   PO111042  22.690  24.050  19.330
  461BOLB   GL111043  22.760  24.070  19.780
  461BOLB   GL211044  22.840  24.320  19.840
  461BOLB   C1A11045  22.570  24.050  20.190
  461BOLB   C2A11046  22.570  24.310  20.530
  461BOLB   C3A11047  22.510  24.500  20.980
  461BOLB   C4A11048  22.320  24.540  21.420
  461BOLB   C1B11049  23.160  24.150  20.170
  461BOLB   C2B11050  23.380  24.350  20.460
  461BOLB   C3B11051  23.600  24.500  20.860
  461BOLB   C4B11052  23.610  24.420  21.270
  461BOLB   NC211053  22.400  24.610  24.130
  461BOLB   PO211054  21.990  24.830  23.950
  461BOLB   GL311055  22.110  24.540  23.570
  461BOLB   GL411056  22.470  24.500  23.470
  461BOLB   C1C11057  22.210  24.760  23.110
  461BOLB   C2C11058  22.180  24.480  22.720
  461BOLB   C3C11059  22.180  24.620  22.230
  461BOLB   C4C11060  22.330  24.490  21.840
  461BOLB   C1D11061  22.640  24.330  23.070
  461BOLB   C2D11062  22.590  24.230  22.610
  461BOLB   C3D11063  22.440  24.150  22.270
  461BOLB   C4D11064  22.490  24.040  21.830
  462BOLB   NC111065  11.890  17.500  12.450
  462BOLB   PO111066  11.700  17.210  12.820
  462BOLB   GL111067  11.590  17.210  13.290
  462BOLB   GL211068  11.760  17.360  13.400
  462BOLB   C1A11069  11.190  17.200  13.570
  462BOLB   C2A11070  10.970  16.790  13.870
  462BOLB   C3A11071  11.130  16.380  13.660
  462BOLB   C4A11072  11.040  15.960  13.830
  462BOLB   C1B11073  11.560  17.370  13.920
  462BOLB   C2B11074  11.150  17.480  14.080
  462BOLB   C3B11075  10.770  17.240  14.140
  462BOLB   C4B11076  10.540  16.850  14.210
  462BOLB   NC211077   8.900  13.850  13.300
  462BOLB   PO211078   9.260  14.160  13.350
  462BOLB   GL311079   9.630  14.420  13.500
  462BOLB   GL411080   9.740  14.350  13.840
  462BOLB   C1C11081  10.030  14.610  13.390
  462BOLB   C2C11082  10.290  14.880  13.680
  462BOLB   C3C11083  10.560  15.140  13.850
  462BOLB   C4C11084  10.780  15.550  13.900
  462BOLB   C1D11085  10.070  14.560  13.990
  462BOLB   C2D11086  10.480  14.690  14.200
  462BOLB   C3D11087  10.890  14.760  14.120
  462BOLB   C4D11088  11.270  14.630  13.920
  463BOLB   NC111089  12.210  20.640  18.450
  463BOLB   PO111090  12.500  20.830  18.810
  463BOLB   GL111091  12.370  20.950  19.300
  463BOLB   GL211092  12.250  20.720  19.380
  463BOLB   C1A11093  12.530  21.160  19.640
  463BOLB   C2A11094  12.670  21.300  20.070
  463BOLB   C3A11095  12.710  21.470  20.400
  463BOLB   C4A11096  12.510  21.580  20.830
  463BOLB   C1B11097  11.910  20.450  19.670
  463BOLB   C2B11098  11.770  20.420  20.110
  463BOLB   C3B11099  11.710  20.500  20.580
  463BOLB   C4B11100  11.620  20.350  21.050
  463BOLB   NC211101  11.380  22.550  23.130
  463BOLB   PO211102  11.160  22.540  22.680
  463BOLB   GL311103  11.290  22.300  22.320
  463BOLB   GL411104  11.480  22.560  22.200
  463BOLB   C1C11105  11.430  22.120  21.960
  463BOLB   C2C11106  11.780  22.140  21.790
  463BOLB   C3C11107  12.050  21.980  21.460
  463BOLB   C4C11108  12.250  21.750  21.220
  463BOLB   C1D11109  11.550  22.580  21.840
  463BOLB   C2D11110  11.740  22.700  21.540
  463BOLB   C3D11111  12.170  22.820  21.270
  463BOLB   C4D11112  12.270  22.910  20.890
  464BOLB   NC111113  20.610  20.540  19.870
  464BOLB   PO111114  20.540  20.550  20.400
  464BOLB   GL111115  20.580  20.510  20.800
  464BOLB   GL211116  20.470  20.650  21.060
  464BOLB   C1A11117  20.710  20.240  21.260
  464BOLB   C2A11118  21.080  19.990  21.340
  464BOLB   C3A11119  21.310  20.020  21.620
  464BOLB   C4A11120  21.340  20.050  22.170
  464BOLB   C1B11121  20.450  20.720  21.470
  464BOLB   C2B11122  20.510  20.810  21.880
  464BOLB   C3B11123  20.440  20.970  22.200
  464BOLB   C4B11124  20.600  20.920  22.560
  464BOLB   NC211125  22.510  19.990  24.040
  464BOLB   PO211126  22.100  20.140  24.300
  464BOLB   GL311127  21.930  19.960  23.890
  464BOLB   GL411128  21.800  19.710  23.900
  464BOLB   C1C11129  22.050  19.970  23.420
  464BOLB   C2C11130  21.820  19.980  23.070
  464BOLB   C3C11131  21.830  20.240  22.670
  464BOLB   C4C11132  21.530  20.310  22.420
  464BOLB   C1D11133  21.950  19.360  23.660
  464BOLB   C2D11134  22.240  19.460  23.320
  464BOLB   C3D11135  22.060  19.600  22.890
  464BOLB   C4D11136  21.800  19.800  22.560
  465BOLB   NC111137  17.160  12.030  14.460
  465BOLB   PO111138  16.850  12.100  14.850
  465BOLB   GL111139  16.950  11.650  14.750
  465BOLB   GL211140  17.310  11.560  14.410
  465BOLB   C1A11141  17.100  11.210  14.820
  465BOLB   C2A11142  17.430  11.010  14.680
  465BOLB   C3A11143  17.480  10.610  14.540
  465BOLB   C4A11144  17.320  10.210  14.640
  465BOLB   C1B11145  17.540  11.500  14.870
  465BOLB   C2B11146  17.780  11.190  15.110
  465BOLB   C3B11147  17.820  10.920  15.310
  465BOLB   C4B11148  18.190  10.830  15.440
  465BOLB   NC211149  16.230   8.180  15.070
  465BOLB   PO211150  16.640   8.010  15.160
  465BOLB   GL311151  16.930   8.300  15.040
  465BOLB   GL411152  17.100   8.270  14.820
  465BOLB   C1C11153  16.930   8.760  14.860
  465BOLB   C2C11154  17.120   9.080  14.780
  465BOLB   C3C11155  17.430   9.390  14.610
  465BOLB   C4C11156  17.480   9.800  14.680
  465BOLB   C1D11157  17.340   8.510  14.600
  465BOLB   C2D11158  17.370   8.980  14.330
  465BOLB   C3D11159  17.280   9.200  13.920
  465BOLB   C4D11160  17.010   9.030  13.630
  466BOLB   NC111161   7.080  13.010  17.530
  466BOLB   PO111162   7.550  12.980  17.250
  466BOLB   GL111163   7.800  13.110  17.460
  466BOLB   GL211164   7.950  13.010  17.650
  466BOLB   C1A11165   8.130  13.370  17.360
  466BOLB   C2A11166   8.150  13.820  17.580
  466BOLB   C3A11167   8.330  14.170  17.900
  466BOLB   C4A11168   8.660  14.400  17.900
  466BOLB   C1B11169   8.400  13.020  17.720
  466BOLB   C2B11170   8.790  13.050  17.710
  466BOLB   C3B11171   9.110  12.850  17.590
  466BOLB   C4B11172   9.230  13.140  17.290
  466BOLB   NC211173   7.420  14.570  19.100
  466BOLB   PO211174   7.260  14.740  19.550
  466BOLB   GL311175   7.730  14.880  19.540
  466BOLB   GL411176   7.910  15.070  19.660
  466BOLB   C1C11177   8.050  14.880  19.220
  466BOLB   C2C11178   8.350  15.000  18.980
  466BOLB   C3C11179   8.620  14.820  18.650
  466BOLB   C4C11180   8.760  14.480  18.310
  466BOLB   C1D11181   7.840  15.410  19.400
  466BOLB   C2D11182   8.250  15.650  19.170
  466BOLB   C3D11183   8.510  15.870  18.970
  466BOLB   C4D11184   8.760  15.900  18.660
  467BOLB   NC111185  22.270  25.210  18.840
  467BOLB   PO111186  22.250  25.280  19.300
  467BOLB   GL111187  22.460  25.540  19.630
  467BOLB   GL211188  22.640  25.620  19.410
  467BOLB   C1A11189  22.410  25.520  20.090
  467BOLB   C2A11190  22.580  25.490  20.480
  467BOLB   C3A11191  22.870  25.530  20.890
  467BOLB   C4A11192  23.100  25.820  21.120
  467BOLB   C1B11193  22.880  25.580  19.860
  467BOLB   C2B11194  22.990  25.510  20.240
  467BOLB   C3B11195  23.370  25.680  20.380
  467BOLB   C4B11196  23.540  25.850  20.690
  467BOLB   NC211197  24.160  25.050  23.800
  467BOLB   PO211198  23.770  25.190  23.620
  467BOLB   GL311199  23.570  24.990  23.190
  467BOLB   GL411200  23.280  25.130  23.140
  467BOLB   C1C11201  23.590  25.130  22.750
  467BOLB   C2C11202  23.510  25.410  22.350
  467BOLB   C3C11203  23.270  25.570  22.020
  467BOLB   C4C11204  23.140  25.790  21.560
  467BOLB   C1D11205  22.960  24.840  23.050
  467BOLB   C2D11206  22.690  24.850  22.850
  467BOLB   C3D11207  22.320  24.950  22.600
  467BOLB   C4D11208  21.860  24.840  22.500
  468BOLB   NC111209  21.720  25.600  19.470
  468BOLB   PO111210  21.820  26.040  19.400
  468BOLB   GL111211  21.680  26.420  19.740
  468BOLB   GL211212  21.450  26.380  20.030
  468BOLB   C1A11213  21.920  26.640  20.010
  468BOLB   C2A11214  22.130  26.880  20.330
  468BOLB   C3A11215  22.330  26.850  20.730
  468BOLB   C4A11216  22.480  27.010  21.090
  468BOLB   C1B11217  21.270  26.230  20.440
  468BOLB   C2B11218  21.160  26.150  20.830
  468BOLB   C3B11219  20.800  26.070  20.980
  468BOLB   C4B11220  20.620  26.030  21.290
  468BOLB   NC211221  23.990  27.640  22.690
  468BOLB   PO211222  24.340  28.010  22.600
  468BOLB   GL311223  23.930  28.030  22.390
  468BOLB   GL411224  23.870  28.270  22.190
  468BOLB   C1C11225  23.580  27.800  22.110
  468BOLB   C2C11226  23.230  27.650  21.930
  468BOLB   C3C11227  22.920  27.510  21.610
  468BOLB   C4C11228  22.700  27.210  21.440
  468BOLB   C1D11229  23.760  28.210  21.760
  468BOLB   C2D11230  23.560  28.280  21.390
  468BOLB   C3D11231  23.460  28.150  21.030
  468BOLB   C4D11232  23.510  27.940  20.710
  469BOLB   NC111233  21.400  29.610  11.090
  469BOLB   PO111234  21.090  29.650  11.470
  469BOLB   GL111235  21.230  30.030  11.340
  469BOLB   GL211236  21.310  30.220  11.640
  469BOLB   C1A11237  21.570  30.230  11.210
  469BOLB   C2A11238  21.830  30.640  11.090
  469BOLB   C3A11239  21.980  31.050  10.870
  469BOLB   C4A11240  22.380  31.240  10.610
  469BOLB   C1B11241  21.450  30.680  11.630
  469BOLB   C2B11242  21.620  30.970  11.370
  469BOLB   C3B11243  21.680  31.380  11.130
  469BOLB   C4B11244  21.870  31.600  10.860
  469BOLB   NC211245  22.740  32.820   9.270
  469BOLB   PO211246  23.110  32.910   9.480
  469BOLB   GL311247  23.160  32.700   9.900
  469BOLB   GL411248  23.370  32.500   9.850
  469BOLB   C1C11249  22.990  32.360  10.160
  469BOLB   C2C11250  22.970  31.960  10.450
  469BOLB   C3C11251  22.910  31.620  10.580
  469BOLB   C4C11252  22.730  31.380  10.780
  469BOLB   C1D11253  23.300  31.980  10.040
  469BOLB   C2D11254  23.270  31.620  10.260
  469BOLB   C3D11255  23.010  31.210  10.220
  469BOLB   C4D11256  22.850  30.770  10.110
  470BOLB   NC111257  26.540  22.700  14.620
  470BOLB   PO111258  26.510  22.370  14.950
  470BOLB   GL111259  26.680  22.130  15.130
  470BOLB   GL211260  26.840  22.340  15.340
  470BOLB   C1A11261  26.910  21.810  15.210
  470BOLB   C2A11262  27.330  21.670  15.230
  470BOLB   C3A11263  27.730  21.410  15.280
  470BOLB   C4A11264  27.980  21.030  15.130
  470BOLB   C1B11265  27.190  22.220  15.250
  470BOLB   C2B11266  27.650  22.240  15.100
  470BOLB   C3B11267  27.990  22.010  15.100
  470BOLB   C4B11268  28.180  21.630  15.040
  470BOLB   NC211269  30.090  19.110  14.790
  470BOLB   PO211270  29.770  19.550  14.610
  470BOLB   GL311271  29.450  19.620  14.980
  470BOLB   GL411272  29.190  19.380  15.030
  470BOLB   C1C11273  28.910  19.850  15.230
  470BOLB   C2C11274  28.530  19.920  15.270
  470BOLB   C3C11275  28.440  20.300  15.370
  470BOLB   C4C11276  28.030  20.580  15.130
  470BOLB   C1D11277  28.940  19.710  14.770
  470BOLB   C2D11278  28.570  19.900  14.690
  470BOLB   C3D11279  28.090  20.040  14.830
  470BOLB   C4D11280  27.940  20.030  15.170
  471BOLB   NC111281  25.880  21.760  16.040
  471BOLB   PO111282  26.070  22.240  15.870
  471BOLB   GL111283  26.310  21.920  15.750
  471BOLB   GL211284  26.450  21.840  16.060
  471BOLB   C1A11285  26.760  21.870  15.660
  471BOLB   C2A11286  27.260  21.950  15.660
  471BOLB   C3A11287  27.650  22.000  15.620
  471BOLB   C4A11288  28.040  21.730  15.550
  471BOLB   C1B11289  26.700  21.660  16.340
  471BOLB   C2B11290  27.080  21.570  16.440
  471BOLB   C3B11291  27.470  21.470  16.620
  471BOLB   C4B11292  27.390  21.430  17.090
  471BOLB   NC211293  30.160  21.120  15.930
  471BOLB   PO211294  29.870  21.270  16.280
  471BOLB   GL311295  29.640  21.280  16.020
  471BOLB   GL411296  29.500  21.560  16.060
  471BOLB   C1C11297  29.340  21.000  15.880
  471BOLB   C2C11298  29.140  21.090  15.430
  471BOLB   C3C11299  28.780  21.230  15.320
  471BOLB   C4C11300  28.350  21.340  15.390
  471BOLB   C1D11301  29.110  21.440  15.800
  471BOLB   C2D11302  28.730  21.620  15.630
  471BOLB   C3D11303  28.420  21.930  15.810
  471BOLB   C4D11304  28.010  21.940  16.060
  472BOLB   NC111305  26.970  23.530  14.780
  472BOLB   PO111306  26.980  23.490  15.250
  472BOLB   GL111307  27.240  23.300  15.470
  472BOLB   GL211308  27.140  23.010  15.550
  472BOLB   C1A11309  27.700  23.130  15.500
  472BOLB   C2A11310  28.070  23.150  15.630
  472BOLB   C3A11311  28.350  23.420  15.770
  472BOLB   C4A11312  28.350  23.720  16.160
  472BOLB   C1B11313  27.430  22.890  15.920
  472BOLB   C2B11314  27.670  22.800  16.290
  472BOLB   C3B11315  27.690  22.680  16.690
  472BOLB   C4B11316  27.630  22.820  17.230
  472BOLB   NC211317  30.310  23.570  17.010
  472BOLB   PO211318  30.350  23.440  17.370
  472BOLB   GL311319  29.930  23.420  17.290
  472BOLB   GL411320  29.940  23.050  17.240
  472BOLB   C1C11321  29.590  23.430  16.930
  472BOLB   C2C11322  29.120  23.490  16.850
  472BOLB   C3C11323  28.800  23.620  16.760
  472BOLB   C4C11324  28.460  23.720  16.550
  472BOLB   C1D11325  29.550  23.070  17.330
  472BOLB   C2D11326  29.240  23.050  17.650
  472BOLB   C3D11327  28.930  23.010  17.850
  472BOLB   C4D11328  28.500  22.930  17.960
  473BOLB   NC111329  10.230  20.750  17.240
  473BOLB   PO111330  10.210  21.040  17.590
  473BOLB   GL111331  10.210  21.000  18.000
  473BOLB   GL211332   9.880  21.240  18.010
  473BOLB   C1A11333  10.380  21.220  18.440
  473BOLB   C2A11334  10.060  21.230  18.770
  473BOLB   C3A11335   9.810  21.200  18.990
  473BOLB   C4A11336   9.520  21.410  18.930
  473BOLB   C1B11337   9.990  21.620  18.340
  473BOLB   C2B11338  10.150  21.710  18.770
  473BOLB   C3B11339   9.980  21.960  19.180
  473BOLB   C4B11340   9.940  22.280  19.460
  473BOLB   NC211341   8.340  23.410  19.820
  473BOLB   PO211342   8.060  23.240  19.590
  473BOLB   GL311343   8.290  22.980  19.350
  473BOLB   GL411344   8.170  22.750  19.150
  473BOLB   C1C11345   8.680  22.770  19.310
  473BOLB   C2C11346   8.840  22.320  19.340
  473BOLB   C3C11347   9.110  22.110  19.270
  473BOLB   C4C11348   9.490  21.790  19.130
  473BOLB   C1D11349   8.520  22.940  18.810
  473BOLB   C2D11350   8.860  22.960  18.560
  473BOLB   C3D11351   9.330  22.950  18.330
  473BOLB   C4D11352   9.640  23.030  18.070
  474BOLB   NC111353  20.230   8.710  13.690
  474BOLB   PO111354  19.980   8.790  13.330
  474BOLB   GL111355  19.770   9.010  13.410
  474BOLB   GL211356  19.940   9.290  13.370
  474BOLB   C1A11357  19.450   9.190  13.240
  474BOLB   C2A11358  19.250   9.520  13.290
  474BOLB   C3A11359  18.940   9.820  13.360
  474BOLB   C4A11360  18.740  10.210  13.020
  474BOLB   C1B11361  20.140   9.700  13.350
  474BOLB   C2B11362  20.160  10.060  13.290
  474BOLB   C3B11363  20.320  10.390  13.550
  474BOLB   C4B11364  20.450  10.850  13.610
  474BOLB   NC211365  16.910  12.320  12.590
  474BOLB   PO211366  17.250  12.110  12.780
  474BOLB   GL311367  17.400  11.690  12.830
  474BOLB   GL411368  17.150  11.640  12.990
  474BOLB   C1C11369  17.770  11.700  12.570
  474BOLB   C2C11370  18.010  11.210  12.620
  474BOLB   C3C11371  18.340  10.880  12.650
  474BOLB   C4C11372  18.490  10.590  12.880
  474BOLB   C1D11373  17.180  11.210  12.910
  474BOLB   C2D11374  17.170  10.760  12.780
  474BOLB   C3D11375  17.350  10.380  12.840
  474BOLB   C4D11376  17.660  10.130  12.720
  475BOLB   NC111377  16.250  13.220   9.260
  475BOLB   PO111378  16.400  12.850   8.990
  475BOLB   GL111379  16.300  12.500   8.740
  475BOLB   GL211380  16.400  12.200   8.900
  475BOLB   C1A11381  16.620  12.300   8.510
  475BOLB   C2A11382  16.790  12.000   8.150
  475BOLB   C3A11383  16.810  11.770   7.700
  475BOLB   C4A11384  16.990  11.520   7.410
  475BOLB   C1B11385  16.350  11.730   8.770
  475BOLB   C2B11386  16.250  11.340   8.630
  475BOLB   C3B11387  16.380  11.130   8.370
  475BOLB   C4B11388  16.720  11.010   8.020
  475BOLB   NC211389  16.780  10.540   5.300
  475BOLB   PO211390  16.990  10.230   5.170
  475BOLB   GL311391  17.160  10.470   5.580
  475BOLB   GL411392  17.140  10.770   5.680
  475BOLB   C1C11393  17.110  10.450   6.110
  475BOLB   C2C11394  17.030  10.500   6.570
  475BOLB   C3C11395  16.990  10.820   6.970
  475BOLB   C4C11396  17.010  11.140   7.130
  475BOLB   C1D11397  17.230  11.130   5.910
  475BOLB   C2D11398  17.220  11.510   6.120
  475BOLB   C3D11399  17.260  11.840   6.460
  475BOLB   C4D11400  17.040  12.120   6.610
  476BOLB   NC111401  21.410  16.290  17.880
  476BOLB   PO111402  21.340  15.880  17.800
  476BOLB   GL111403  21.490  15.880  18.180
  476BOLB   GL211404  21.730  16.150  18.310
  476BOLB   C1A11405  21.820  15.660  18.350
  476BOLB   C2A11406  22.120  15.400  18.320
  476BOLB   C3A11407  22.290  15.080  18.540
  476BOLB   C4A11408  22.250  14.780  18.820
  476BOLB   C1B11409  21.820  16.080  18.710
  476BOLB   C2B11410  22.010  15.600  18.810
  476BOLB   C3B11411  22.400  15.460  18.950
  476BOLB   C4B11412  22.690  15.120  19.140
  476BOLB   NC211413  23.840  13.890  20.240
  476BOLB   PO211414  24.070  13.920  19.910
  476BOLB   GL311415  23.750  14.240  19.820
  476BOLB   GL411416  23.790  14.620  19.860
  476BOLB   C1C11417  23.420  14.460  19.620
  476BOLB   C2C11418  23.250  14.560  19.250
  476BOLB   C3C11419  22.930  14.360  19.030
  476BOLB   C4C11420  22.550  14.490  19.060
  476BOLB   C1D11421  23.810  14.980  19.530
  476BOLB   C2D11422  23.640  15.390  19.410
  476BOLB   C3D11423  23.400  15.650  19.090
  476BOLB   C4D11424  23.520  16.020  18.870
  477BOLB   NC111425  15.630  28.760  13.600
  477BOLB   PO111426  15.670  29.160  13.240
  477BOLB   GL111427  15.630  29.590  13.300
  477BOLB   GL211428  15.300  29.690  13.310
  477BOLB   C1A11429  15.660  30.040  13.350
  477BOLB   C2A11430  15.830  30.370  13.360
  477BOLB   C3A11431  15.880  30.770  13.410
  477BOLB   C4A11432  15.860  31.170  13.180
  477BOLB   C1B11433  15.150  30.070  13.360
  477BOLB   C2B11434  15.030  30.500  13.480
  477BOLB   C3B11435  15.030  30.960  13.660
  477BOLB   C4B11436  15.320  31.220  14.020
  477BOLB   NC211437  15.780  34.010  12.940
  477BOLB   PO211438  15.760  33.630  12.720
  477BOLB   GL311439  15.530  33.210  12.580
  477BOLB   GL411440  15.790  33.060  12.390
  477BOLB   C1C11441  15.420  32.750  12.470
  477BOLB   C2C11442  15.460  32.310  12.720
  477BOLB   C3C11443  15.800  32.030  12.870
  477BOLB   C4C11444  15.880  31.610  13.070
  477BOLB   C1D11445  15.920  32.590  12.530
  477BOLB   C2D11446  16.010  32.150  12.410
  477BOLB   C3D11447  16.230  31.790  12.690
  477BOLB   C4D11448  16.590  31.550  12.730
  478BOLB   NC111449  23.370  22.360  19.380
  478BOLB   PO111450  23.190  22.010  19.300
  478BOLB   GL111451  23.710  22.030  19.410
  478BOLB   GL211452  24.000  22.200  19.340
  478BOLB   C1A11453  24.080  21.770  19.530
  478BOLB   C2A11454  24.320  21.770  19.800
  478BOLB   C3A11455  24.620  22.030  19.910
  478BOLB   C4A11456  24.810  22.260  20.230
  478BOLB   C1B11457  24.490  22.080  19.410
  478BOLB   C2B11458  24.810  21.890  19.400
  478BOLB   C3B11459  25.000  21.800  19.790
  478BOLB   C4B11460  25.390  21.610  19.960
  478BOLB   NC211461  26.320  21.570  21.830
  478BOLB   PO211462  26.080  21.220  22.010
  478BOLB   GL311463  25.800  21.460  21.890
  478BOLB   GL411464  25.520  21.240  21.750
  478BOLB   C1C11465  25.750  21.650  21.530
  478BOLB   C2C11466  25.500  21.820  21.170
  478BOLB   C3C11467  25.100  21.840  20.930
  478BOLB   C4C11468  25.040  22.080  20.580
  478BOLB   C1D11469  25.070  21.260  21.590
  478BOLB   C2D11470  24.820  21.370  21.210
  478BOLB   C3D11471  24.980  21.140  20.810
  478BOLB   C4D11472  24.890  21.110  20.360
  479BOLB   NC111473  22.770  28.060  17.740
  479BOLB   PO111474  22.710  27.720  18.060
  479BOLB   GL111475  22.810  28.070  18.250
  479BOLB   GL211476  23.190  28.150  18.160
  479BOLB   C1A11477  22.810  28.170  18.690
  479BOLB   C2A11478  22.990  28.360  18.970
  479BOLB   C3A11479  23.280  28.120  19.210
  479BOLB   C4A11480  23.430  28.270  19.590
  479BOLB   C1B11481  23.690  28.290  18.140
  479BOLB   C2B11482  24.170  28.410  18.280
  479BOLB   C3B11483  24.560  28.170  18.570
  479BOLB   C4B11484  24.830  27.890  18.510
  479BOLB   NC211485  24.670  29.320  20.820
  479BOLB   PO211486  24.700  29.780  20.630
  479BOLB   GL311487  24.470  29.500  20.340
  479BOLB   GL411488  24.580  29.470  20.080
  479BOLB   C1C11489  24.080  29.320  20.540
  479BOLB   C2C11490  23.690  29.080  20.490
  479BOLB   C3C11491  23.640  28.810  20.240
  479BOLB   C4C11492  23.640  28.600  19.880
  479BOLB   C1D11493  24.300  29.460  19.600
  479BOLB   C2D11494  24.010  29.210  19.350
  479BOLB   C3D11495  23.860  29.050  18.950
  479BOLB   C4D11496  23.880  28.910  18.460
  480BOLB   NC111497  17.090  12.300  15.460
  480BOLB   PO111498  16.900  12.510  15.710
  480BOLB   GL111499  16.810  12.180  15.950
  480BOLB   GL211500  16.530  12.270  16.280
  480BOLB   C1A11501  16.980  11.900  16.050
  480BOLB   C2A11502  17.000  11.500  16.250
  480BOLB   C3A11503  16.620  11.190  16.280
  480BOLB   C4A11504  16.350  11.080  16.640
  480BOLB   C1B11505  16.620  12.200  16.650
  480BOLB   C2B11506  16.650  11.930  16.900
  480BOLB   C3B11507  17.020  11.820  17.100
  480BOLB   C4B11508  17.160  11.410  17.290
  480BOLB   NC211509  16.970   8.880  17.000
  480BOLB   PO211510  16.870   8.860  16.590
  480BOLB   GL311511  16.810   9.260  16.300
  480BOLB   GL411512  17.130   9.330  16.220
  480BOLB   C1C11513  16.470   9.560  16.210
  480BOLB   C2C11514  16.340   9.950  16.360
  480BOLB   C3C11515  16.220  10.360  16.550
  480BOLB   C4C11516  16.190  10.710  16.760
  480BOLB   C1D11517  17.030   9.740  16.310
  480BOLB   C2D11518  16.930  10.060  15.990
  480BOLB   C3D11519  17.210  10.190  15.720
  480BOLB   C4D11520  17.100  10.420  15.350
  481BOLB   NC111521  16.530  17.790  19.330
  481BOLB   PO111522  16.770  17.790  19.680
  481BOLB   GL111523  16.740  17.800  20.160
  481BOLB   GL211524  16.950  17.630  20.160
  481BOLB   C1A11525  16.780  17.700  20.610
  481BOLB   C2A11526  16.610  17.850  20.940
  481BOLB   C3A11527  16.290  18.050  21.240
  481BOLB   C4A11528  16.150  18.140  21.660
  481BOLB   C1B11529  17.260  17.320  20.220
  481BOLB   C2B11530  17.110  17.250  20.560
  481BOLB   C3B11531  17.010  17.290  20.930
  481BOLB   C4B11532  16.590  17.400  21.110
  481BOLB   NC211533  16.390  17.890  23.870
  481BOLB   PO211534  16.010  17.470  23.980
  481BOLB   GL311535  15.780  17.450  23.620
  481BOLB   GL411536  15.430  17.540  23.610
  481BOLB   C1C11537  15.860  17.550  23.230
  481BOLB   C2C11538  15.870  17.790  22.910
  481BOLB   C3C11539  16.020  17.890  22.490
  481BOLB   C4C11540  16.040  17.880  22.090
  481BOLB   C1D11541  15.270  17.640  23.250
  481BOLB   C2D11542  15.280  17.750  22.840
  481BOLB   C3D11543  15.500  18.080  22.520
  481BOLB   C4D11544  15.700  18.240  22.250
  482BOLB   NC111545  19.790  16.690  19.420
  482BOLB   PO111546  19.440  16.600  19.070
  482BOLB   GL111547  19.340  16.460  19.450
  482BOLB   GL211548  19.180  16.090  19.520
  482BOLB   C1A11549  19.360  16.440  19.910
  482BOLB   C2A11550  19.610  16.280  20.230
  482BOLB   C3A11551  19.810  16.170  20.640
  482BOLB   C4A11552  19.490  16.030  20.910
  482BOLB   C1B11553  19.300  15.970  19.890
  482BOLB   C2B11554  19.410  15.630  20.070
  482BOLB   C3B11555  19.540  15.260  20.130
  482BOLB   C4B11556  19.690  15.080  20.480
  482BOLB   NC211557  20.400  14.700  22.810
  482BOLB   PO211558  20.040  14.520  22.730
  482BOLB   GL311559  20.090  14.900  22.490
  482BOLB   GL411560  20.040  15.150  22.650
  482BOLB   C1C11561  19.710  15.170  22.160
  482BOLB   C2C11562  19.400  15.110  21.780
  482BOLB   C3C11563  19.270  15.410  21.440
  482BOLB   C4C11564  19.190  15.720  21.230
  482BOLB   C1D11565  19.860  15.520  22.460
  482BOLB   C2D11566  19.930  15.690  22.210
  482BOLB   C3D11567  19.900  15.890  21.920
  482BOLB   C4D11568  19.970  15.830  21.510
  483BOLB   NC111569  24.200  25.590  17.990
  483BOLB   PO111570  24.580  25.530  17.800
  483BOLB   GL111571  24.740  25.590  18.190
  483BOLB   GL211572  24.670  25.430  18.540
  483BOLB   C1A11573  24.890  25.830  18.620
  483BOLB   C2A11574  24.640  25.960  19.030
  483BOLB   C3A11575  24.550  25.910  19.440
  483BOLB   C4A11576  24.870  25.770  19.780
  483BOLB   C1B11577  24.760  25.450  19.050
  483BOLB   C2B11578  25.090  25.600  19.310
  483BOLB   C3B11579  25.460  25.760  19.320
  483BOLB   C4B11580  25.710  25.910  19.080
  483BOLB   NC211581  26.900  25.520  21.640
  483BOLB   PO211582  26.700  25.860  21.590
  483BOLB   GL311583  26.360  25.840  21.240
  483BOLB   GL411584  26.030  25.730  21.330
  483BOLB   C1C11585  26.120  25.900  20.800
  483BOLB   C2C11586  25.900  25.750  20.410
  483BOLB   C3C11587  25.580  25.600  20.030
  483BOLB   C4C11588  25.290  25.740  19.800
  483BOLB   C1D11589  25.760  25.960  21.150
  483BOLB   C2D11590  25.670  26.100  20.730
  483BOLB   C3D11591  25.450  25.960  20.350
  483BOLB   C4D11592  25.180  25.730  20.280
  484BOLB   NC111593  24.610  25.940  17.500
  484BOLB   PO111594  24.480  26.110  18.000
  484BOLB   GL111595  24.720  26.260  18.340
  484BOLB   GL211596  24.540  26.200  18.610
  484BOLB   C1A11597  24.980  26.360  18.730
  484BOLB   C2A11598  24.990  26.690  19.050
  484BOLB   C3A11599  24.890  26.950  19.320
  484BOLB   C4A11600  24.680  27.210  19.550
  484BOLB   C1B11601  24.640  26.720  18.610
  484BOLB   C2B11602  24.430  27.010  18.960
  484BOLB   C3B11603  24.280  27.270  19.180
  484BOLB   C4B11604  23.910  27.460  19.310
  484BOLB   NC211605  25.610  27.100  21.910
  484BOLB   PO211606  25.770  26.840  21.670
  484BOLB   GL311607  25.430  26.660  21.400
  484BOLB   GL411608  25.460  26.400  21.140
  484BOLB   C1C11609  25.340  26.910  21.000
  484BOLB   C2C11610  25.230  26.980  20.590
  484BOLB   C3C11611  24.890  27.150  20.270
  484BOLB   C4C11612  24.680  27.340  20.020
  484BOLB   C1D11613  25.050  26.450  21.140
  484BOLB   C2D11614  24.820  26.680  20.860
  484BOLB   C3D11615  24.840  26.630  20.410
  484BOLB   C4D11616  24.570  26.830  20.100
  485BOLB   NC111617  14.730  18.810  19.960
  485BOLB   PO111618  14.970  18.440  20.070
  485BOLB   GL111619  14.900  18.680  20.400
  485BOLB   GL211620  14.740  18.520  20.660
  485BOLB   C1A11621  15.090  18.910  20.640
  485BOLB   C2A11622  15.200  19.270  20.850
  485BOLB   C3A11623  15.120  19.230  21.290
  485BOLB   C4A11624  15.160  19.050  21.750
  485BOLB   C1B11625  14.790  18.500  21.140
  485BOLB   C2B11626  14.470  18.480  21.500
  485BOLB   C3B11627  14.330  18.550  21.870
  485BOLB   C4B11628  14.270  18.600  22.310
  485BOLB   NC211629  14.820  18.660  24.370
  485BOLB   PO211630  14.780  18.380  24.070
  485BOLB   GL311631  15.240  18.520  23.850
  485BOLB   GL411632  15.530  18.230  23.650
  485BOLB   C1C11633  15.370  18.610  23.340
  485BOLB   C2C11634  15.300  18.840  23.030
  485BOLB   C3C11635  15.360  19.030  22.540
  485BOLB   C4C11636  15.230  19.170  22.140
  485BOLB   C1D11637  15.550  18.070  23.240
  485BOLB   C2D11638  15.490  18.370  22.900
  485BOLB   C3D11639  15.160  18.560  22.580
  485BOLB   C4D11640  14.980  18.730  22.150
  486BOLB   NC111641  14.040  16.800  19.460
  486BOLB   PO111642  14.270  16.900  19.850
  486BOLB   GL111643  13.990  17.070  20.160
  486BOLB   GL211644  14.060  16.790  20.330
  486BOLB   C1A11645  13.830  17.210  20.560
  486BOLB   C2A11646  13.820  17.230  20.970
  486BOLB   C3A11647  14.060  17.380  21.280
  486BOLB   C4A11648  13.890  17.560  21.630
  486BOLB   C1B11649  14.300  16.550  20.540
  486BOLB   C2B11650  14.360  16.560  20.960
  486BOLB   C3B11651  14.610  16.920  21.220
  486BOLB   C4B11652  14.960  17.090  21.090
  486BOLB   NC211653  11.730  18.050  23.070
  486BOLB   PO211654  12.030  17.910  23.340
  486BOLB   GL311655  12.280  17.990  23.050
  486BOLB   GL411656  12.080  18.110  22.780
  486BOLB   C1C11657  12.560  18.060  22.770
  486BOLB   C2C11658  12.900  17.910  22.360
  486BOLB   C3C11659  13.340  18.060  22.230
  486BOLB   C4C11660  13.690  17.850  22.000
  486BOLB   C1D11661  12.050  18.390  22.400
  486BOLB   C2D11662  12.480  18.390  22.340
  486BOLB   C3D11663  12.950  18.440  22.100
  486BOLB   C4D11664  13.450  18.460  21.970
  487BOLB   NC111665  12.080  24.070  17.480
  487BOLB   PO111666  11.950  24.200  17.070
  487BOLB   GL111667  11.750  24.560  17.030
  487BOLB   GL211668  11.880  24.840  17.190
  487BOLB   C1A11669  11.430  24.760  17.320
  487BOLB   C2A11670  11.050  24.880  17.550
  487BOLB   C3A11671  10.870  25.220  17.230
  487BOLB   C4A11672  10.740  25.580  17.390
  487BOLB   C1B11673  11.650  25.210  17.240
  487BOLB   C2B11674  11.270  25.400  17.390
  487BOLB   C3B11675  11.090  25.760  17.750
  487BOLB   C4B11676  11.000  26.000  18.130
  487BOLB   NC211677   8.770  26.740  18.470
  487BOLB   PO211678   8.950  26.440  18.870
  487BOLB   GL311679   9.140  26.270  18.490
  487BOLB   GL411680   9.250  26.500  18.250
  487BOLB   C1C11681   9.410  25.890  18.210
  487BOLB   C2C11682   9.810  25.680  18.000
  487BOLB   C3C11683  10.060  25.560  17.580
  487BOLB   C4C11684  10.380  25.620  17.570
  487BOLB   C1D11685   9.250  26.270  17.940
  487BOLB   C2D11686   9.420  26.010  17.650
  487BOLB   C3D11687   9.560  25.700  17.500
  487BOLB   C4D11688   9.460  25.290  17.370
  488BOLB   NC111689  20.880  29.920  13.650
  488BOLB   PO111690  20.730  29.990  14.060
  488BOLB   GL111691  20.630  30.380  13.810
  488BOLB   GL211692  20.960  30.450  13.550
  488BOLB   C1A11693  20.460  30.750  13.860
  488BOLB   C2A11694  20.400  31.260  13.630
  488BOLB   C3A11695  20.600  31.500  13.390
  488BOLB   C4A11696  20.760  31.910  13.240
  488BOLB   C1B11697  21.010  30.870  13.700
  488BOLB   C2B11698  21.310  31.190  13.780
  488BOLB   C3B11699  21.410  31.680  13.800
  488BOLB   C4B11700  21.220  32.060  13.980
  488BOLB   NC211701  21.650  34.040  12.170
  488BOLB   PO211702  21.810  33.680  12.110
  488BOLB   GL311703  21.760  33.300  12.190
  488BOLB   GL411704  21.950  33.200  12.350
  488BOLB   C1C11705  21.500  32.890  12.280
  488BOLB   C2C11706  21.440  32.530  12.640
  488BOLB   C3C11707  21.070  32.450  12.800
  488BOLB   C4C11708  20.880  32.330  13.050
  488BOLB   C1D11709  21.710  33.050  12.700
  488BOLB   C2D11710  21.380  33.000  12.990
  488BOLB   C3D11711  21.250  32.870  13.460
  488BOLB   C4D11712  21.080  32.850  13.840
  489BOLB   NC111713  14.030  25.700  16.830
  489BOLB   PO111714  13.690  25.980  17.000
  489BOLB   GL111715  13.460  25.920  17.380
  489BOLB   GL211716  13.170  25.830  17.320
  489BOLB   C1A11717  13.430  26.030  17.850
  489BOLB   C2A11718  13.060  26.020  18.160
  489BOLB   C3A11719  12.750  26.200  18.370
  489BOLB   C4A11720  12.370  26.200  18.570
  489BOLB   C1B11721  12.900  26.160  17.620
  489BOLB   C2B11722  12.820  26.440  17.910
  489BOLB   C3B11723  12.890  26.940  18.080
  489BOLB   C4B11724  12.610  27.280  18.080
  489BOLB   NC211725  10.110  26.430  19.950
  489BOLB   PO211726  10.320  26.700  19.670
  489BOLB   GL311727  10.640  26.720  19.310
  489BOLB   GL411728  10.350  26.620  19.140
  489BOLB   C1C11729  11.050  26.580  19.360
  489BOLB   C2C11730  11.550  26.460  19.330
  489BOLB   C3C11731  11.940  26.560  19.340
  489BOLB   C4C11732  12.270  26.520  18.950
  489BOLB   C1D11733  10.370  26.670  18.670
  489BOLB   C2D11734  10.730  26.640  18.330
  489BOLB   C3D11735  11.080  26.560  18.340
  489BOLB   C4D11736  11.230  26.410  17.980
  490BOLB   NC111737  26.270  22.140  14.020
  490BOLB   PO111738  26.330  22.270  14.420
  490BOLB   GL111739  26.690  22.150  14.490
  490BOLB   GL211740  26.910  22.110  14.720
  490BOLB   C1A11741  27.000  21.770  14.370
  490BOLB   C2A11742  27.360  21.520  14.210
  490BOLB   C3A11743  27.690  21.320  14.200
  490BOLB   C4A11744  28.090  21.150  14.030
  490BOLB   C1B11745  27.330  21.960  14.790
  490BOLB   C2B11746  27.700  21.850  14.770
  490BOLB   C3B11747  28.050  21.780  14.540
  490BOLB   C4B11748  28.150  21.700  14.130
  490BOLB   NC211749  29.900  20.640  12.960
  490BOLB   PO211750  30.150  20.490  13.310
  490BOLB   GL311751  29.900  20.800  13.450
  490BOLB   GL411752  29.870  20.870  13.770
  490BOLB   C1C11753  29.650  21.170  13.430
  490BOLB   C2C11754  29.230  21.090  13.430
  490BOLB   C3C11755  28.900  21.130  13.700
  490BOLB   C4C11756  28.490  21.270  13.890
  490BOLB   C1D11757  29.470  20.650  13.560
  490BOLB   C2D11758  29.020  20.640  13.580
  490BOLB   C3D11759  28.710  20.720  13.990
  490BOLB   C4D11760  28.460  20.840  14.230
  491BOLB   NC111761  27.060  23.170   5.240
  491BOLB   PO111762  26.870  23.230   4.890
  491BOLB   GL111763  26.540  23.220   5.180
  491BOLB   GL211764  26.480  23.540   5.330
  491BOLB   C1A11765  26.340  23.120   5.630
  491BOLB   C2A11766  26.060  23.130   5.910
  491BOLB   C3A11767  26.090  23.060   6.440
  491BOLB   C4A11768  26.080  23.270   6.830
  491BOLB   C1B11769  26.150  23.820   5.440
  491BOLB   C2B11770  25.790  23.980   5.400
  491BOLB   C3B11771  25.660  24.370   5.530
  491BOLB   C4B11772  25.230  24.570   5.610
  491BOLB   NC211773  28.240  22.980   6.610
  491BOLB   PO211774  27.920  22.810   6.340
  491BOLB   GL311775  27.820  22.710   6.750
  491BOLB   GL411776  27.770  22.430   6.920
  491BOLB   C1C11777  27.480  22.890   7.030
  491BOLB   C2C11778  27.020  22.820   7.100
  491BOLB   C3C11779  26.660  23.030   7.280
  491BOLB   C4C11780  26.350  23.310   7.180
  491BOLB   C1D11781  27.480  22.420   7.180
  491BOLB   C2D11782  27.120  22.510   7.520
  491BOLB   C3D11783  26.740  22.180   7.580
  491BOLB   C4D11784  26.640  22.560   7.780
  492BOLB   NC111785  19.630  22.760  20.800
  492BOLB   PO111786  19.800  23.220  20.780
  492BOLB   GL111787  19.940  23.090  21.070
  492BOLB   GL211788  20.260  23.290  21.100
  492BOLB   C1A11789  19.850  23.130  21.530
  492BOLB   C2A11790  19.830  23.200  21.970
  492BOLB   C3A11791  19.770  23.220  22.270
  492BOLB   C4A11792  19.640  23.260  22.720
  492BOLB   C1B11793  20.490  23.390  21.480
  492BOLB   C2B11794  20.520  23.040  21.800
  492BOLB   C3B11795  20.450  23.080  22.210
  492BOLB   C4B11796  20.690  23.290  22.570
  492BOLB   NC211797  21.090  23.310  24.750
  492BOLB   PO211798  20.760  23.430  24.540
  492BOLB   GL311799  20.460  23.480  24.210
  492BOLB   GL411800  20.330  23.620  23.970
  492BOLB   C1C11801  19.960  23.340  24.130
  492BOLB   C2C11802  19.610  23.510  23.900
  492BOLB   C3C11803  19.550  23.500  23.430
  492BOLB   C4C11804  19.430  23.400  23.040
  492BOLB   C1D11805  20.600  23.510  23.640
  492BOLB   C2D11806  20.740  23.220  23.410
  492BOLB   C3D11807  20.490  22.860  23.130
  492BOLB   C4D11808  20.370  22.680  22.780
  493BOLB   NC111809  15.090  21.350  20.150
  493BOLB   PO111810  14.630  21.500  20.050
  493BOLB   GL111811  14.350  21.660  20.360
  493BOLB   GL211812  14.050  21.680  20.350
  493BOLB   C1A11813  14.330  21.920  20.670
  493BOLB   C2A11814  14.300  22.000  21.160
  493BOLB   C3A11815  14.250  22.090  21.520
  493BOLB   C4A11816  14.600  22.260  21.900
  493BOLB   C1B11817  13.660  21.530  20.500
  493BOLB   C2B11818  13.500  21.270  20.800
  493BOLB   C3B11819  13.520  21.220  21.190
  493BOLB   C4B11820  13.490  20.840  21.510
  493BOLB   NC211821  13.490  23.110  24.070
  493BOLB   PO211822  13.380  22.610  23.890
  493BOLB   GL311823  13.630  22.800  23.560
  493BOLB   GL411824  13.440  22.580  23.400
  493BOLB   C1C11825  13.910  22.590  23.230
  493BOLB   C2C11826  14.310  22.390  23.180
  493BOLB   C3C11827  14.490  22.350  22.750
  493BOLB   C4C11828  14.600  22.280  22.340
  493BOLB   C1D11829  13.510  22.420  22.930
  493BOLB   C2D11830  13.170  22.140  22.790
  493BOLB   C3D11831  13.090  21.870  22.450
  493BOLB   C4D11832  12.920  21.440  22.380
  494BOLB   NC111833  23.600  28.730  15.810
  494BOLB   PO111834  23.910  28.440  15.950
  494BOLB   GL111835  24.070  28.840  16.110
  494BOLB   GL211836  23.810  28.920  16.240
  494BOLB   C1A11837  24.170  29.210  16.220
  494BOLB   C2A11838  24.310  29.500  16.560
  494BOLB   C3A11839  24.560  29.560  16.250
  494BOLB   C4A11840  24.960  29.780  16.240
  494BOLB   C1B11841  23.950  29.200  16.650
  494BOLB   C2B11842  24.230  29.260  16.980
  494BOLB   C3B11843  24.120  29.510  17.340
  494BOLB   C4B11844  24.230  29.980  17.640
  494BOLB   NC211845  26.830  30.770  17.040
  494BOLB   PO211846  27.020  30.400  16.890
  494BOLB   GL311847  26.730  30.250  16.570
  494BOLB   GL411848  26.960  29.980  16.290
  494BOLB   C1C11849  26.250  30.230  16.500
  494BOLB   C2C11850  25.860  30.550  16.520
  494BOLB   C3C11851  25.450  30.430  16.450
  494BOLB   C4C11852  25.230  30.040  16.320
  494BOLB   C1D11853  26.600  29.750  16.290
  494BOLB   C2D11854  26.370  29.310  16.270
  494BOLB   C3D11855  26.080  28.960  16.510
  494BOLB   C4D11856  26.010  28.520  16.500
  495BOLB   NC111857  12.960  26.430  16.260
  495BOLB   PO111858  12.850  26.320  16.670
  495BOLB   GL111859  12.380  26.460  16.760
  495BOLB   GL211860  12.160  26.260  17.010
  495BOLB   C1A11861  12.000  26.380  16.540
  495BOLB   C2A11862  11.600  26.610  16.580
  495BOLB   C3A11863  11.260  26.840  16.680
  495BOLB   C4A11864  11.030  27.020  17.150
  495BOLB   C1B11865  11.870  26.150  17.390
  495BOLB   C2B11866  11.600  26.050  17.840
  495BOLB   C3B11867  11.530  25.790  18.060
  495BOLB   C4B11868  11.320  25.720  18.530
  495BOLB   NC211869   9.890  28.490  18.350
  495BOLB   PO211870   9.930  28.910  18.360
  495BOLB   GL311871  10.250  28.650  18.020
  495BOLB   GL411872  10.540  28.790  17.660
  495BOLB   C1C11873  10.490  28.280  17.990
  495BOLB   C2C11874  10.670  27.910  17.800
  495BOLB   C3C11875  10.650  27.590  17.600
  495BOLB   C4C11876  10.870  27.340  17.340
  495BOLB   C1D11877  10.850  28.400  17.560
  495BOLB   C2D11878  10.810  28.030  17.290
  495BOLB   C3D11879  11.090  27.800  17.040
  495BOLB   C4D11880  11.390  27.430  17.190
  496BOLB   NC111881  16.360  12.310  14.920
  496BOLB   PO111882  15.930  12.040  14.890
  496BOLB   GL111883  15.990  11.640  15.020
  496BOLB   GL211884  15.800  11.340  14.960
  496BOLB   C1A11885  16.320  11.370  15.250
  496BOLB   C2A11886  16.380  10.910  15.400
  496BOLB   C3A11887  16.510  10.390  15.460
  496BOLB   C4A11888  16.700  10.030  15.470
  496BOLB   C1B11889  15.670  11.000  15.220
  496BOLB   C2B11890  15.690  10.590  15.300
  496BOLB   C3B11891  15.750  10.160  15.400
  496BOLB   C4B11892  16.120   9.950  15.410
  496BOLB   NC211893  18.300   8.510  15.240
  496BOLB   PO211894  17.960   8.390  15.460
  496BOLB   GL311895  17.840   8.690  15.230
  496BOLB   GL411896  17.690   8.780  14.880
  496BOLB   C1C11897  17.760   9.120  15.360
  496BOLB   C2C11898  17.550   9.360  15.100
  496BOLB   C3C11899  17.240   9.560  15.100
  496BOLB   C4C11900  17.020   9.890  15.270
  496BOLB   C1D11901  17.340   8.770  15.140
  496BOLB   C2D11902  17.160   9.070  15.310
  496BOLB   C3D11903  16.870   9.440  15.410
  496BOLB   C4D11904  16.850   9.610  15.860
  497BOLB   NC111905  20.850  18.890  19.570
  497BOLB   PO111906  21.140  19.190  19.480
  497BOLB   GL111907  21.100  19.280  19.910
  497BOLB   GL211908  20.840  19.050  20.010
  497BOLB   C1A11909  21.320  19.450  20.270
  497BOLB   C2A11910  21.710  19.270  20.580
  497BOLB   C3A11911  21.900  19.350  21.000
  497BOLB   C4A11912  22.230  19.310  21.300
  497BOLB   C1B11913  21.220  18.930  20.240
  497BOLB   C2B11914  21.270  19.070  20.740
  497BOLB   C3B11915  21.120  18.890  21.100
  497BOLB   C4B11916  21.010  18.600  21.340
  497BOLB   NC211917  23.430  19.580  23.420
  497BOLB   PO211918  22.900  19.560  23.620
  497BOLB   GL311919  22.960  19.650  23.230
  497BOLB   GL411920  22.780  19.880  23.130
  497BOLB   C1C11921  23.070  19.810  22.730
  497BOLB   C2C11922  22.790  19.720  22.300
  497BOLB   C3C11923  22.670  19.580  21.970
  497BOLB   C4C11924  22.510  19.410  21.570
  497BOLB   C1D11925  22.580  19.670  22.820
  497BOLB   C2D11926  22.250  19.470  22.440
  497BOLB   C3D11927  22.190  19.720  22.130
  497BOLB   C4D11928  21.960  20.110  22.220
  498BOLB   NC111929  22.410  22.330  19.740
  498BOLB   PO111930  22.440  21.930  19.850
  498BOLB   GL111931  22.800  22.160  20.020
  498BOLB   GL211932  22.920  21.950  20.160
  498BOLB   C1A11933  23.180  22.320  20.280
  498BOLB   C2A11934  23.420  22.530  20.670
  498BOLB   C3A11935  23.680  22.500  21.050
  498BOLB   C4A11936  23.680  22.610  21.440
  498BOLB   C1B11937  23.240  21.880  20.500
  498BOLB   C2B11938  23.380  21.930  20.920
  498BOLB   C3B11939  23.500  22.140  21.350
  498BOLB   C4B11940  23.430  22.220  21.770
  498BOLB   NC211941  24.430  22.400  23.610
  498BOLB   PO211942  24.470  22.900  23.620
  498BOLB   GL311943  24.320  22.760  23.280
  498BOLB   GL411944  24.240  22.320  23.150
  498BOLB   C1C11945  24.130  22.730  22.900
  498BOLB   C2C11946  23.970  22.790  22.530
  498BOLB   C3C11947  23.950  22.880  22.070
  498BOLB   C4C11948  23.720  22.830  21.690
  498BOLB   C1D11949  24.130  22.270  22.720
  498BOLB   C2D11950  24.420  22.550  22.500
  498BOLB   C3D11951  24.650  22.860  22.280
  498BOLB   C4D11952  24.750  23.330  22.310
  499BOLB   NC111953  22.180  19.970  19.630
  499BOLB   PO111954  22.570  19.930  19.350
  499BOLB   GL111955  22.930  19.570  19.530
  499BOLB   GL211956  23.260  19.570  19.480
  499BOLB   C1A11957  23.130  19.340  19.880
  499BOLB   C2A11958  23.200  19.380  20.340
  499BOLB   C3A11959  23.520  19.640  20.720
  499BOLB   C4A11960  23.750  19.800  21.120
  499BOLB   C1B11961  23.460  19.710  19.800
  499BOLB   C2B11962  23.680  19.560  20.200
  499BOLB   C3B11963  24.060  19.450  20.360
  499BOLB   C4B11964  24.350  19.250  20.560
  499BOLB   NC211965  23.690  18.720  23.220
  499BOLB   PO211966  23.930  18.800  22.820
  499BOLB   GL311967  23.710  19.100  22.540
  499BOLB   GL411968  23.500  19.040  22.440
  499BOLB   C1C11969  23.970  19.110  22.120
  499BOLB   C2C11970  24.010  19.570  21.890
  499BOLB   C3C11971  24.210  19.920  21.770
  499BOLB   C4C11972  23.980  19.980  21.430
  499BOLB   C1D11973  23.610  19.470  22.220
  499BOLB   C2D11974  23.520  19.630  21.830
  499BOLB   C3D11975  23.490  19.870  21.500
  499BOLB   C4D11976  23.190  19.910  21.220
  500BOLB   NC111977  22.840  18.540  18.620
  500BOLB   PO111978  22.650  18.790  18.880
  500BOLB   GL111979  22.500  18.690  19.250
  500BOLB   GL211980  22.360  18.420  19.410
  500BOLB   C1A11981  22.790  18.600  19.580
  500BOLB   C2A11982  22.900  18.440  19.890
  500BOLB   C3A11983  22.680  18.240  20.260
  500BOLB   C4A11984  22.750  17.820  20.500
  500BOLB   C1B11985  22.360  18.450  19.840
  500BOLB   C2B11986  22.190  18.650  20.280
  500BOLB   C3B11987  22.360  18.690  20.560
  500BOLB   C4B11988  22.360  19.100  20.780
  500BOLB   NC211989  22.870  17.500  22.870
  500BOLB   PO211990  23.190  17.830  22.760
  500BOLB   GL311991  23.150  18.040  22.330
  500BOLB   GL411992  23.420  18.250  22.170
  500BOLB   C1C11993  22.780  17.910  22.000
  500BOLB   C2C11994  22.520  17.660  21.700
  500BOLB   C3C11995  22.390  17.450  21.230
  500BOLB   C4C11996  22.470  17.570  20.820
  500BOLB   C1D11997  23.210  18.220  21.880
  500BOLB   C2D11998  23.230  18.270  21.490
  500BOLB   C3D11999  22.920  18.480  21.130
  500BOLB   C4D12000  22.890  18.610  20.650
  501BOLB   NC112001  18.450  12.500  14.920
  501BOLB   PO112002  18.540  12.530  15.460
  501BOLB   GL112003  18.680  12.180  15.630
  501BOLB   GL212004  18.950  12.350  15.660
  501BOLB   C1A12005  18.830  12.040  16.090
  501BOLB   C2A12006  18.690  11.700  16.330
  501BOLB   C3A12007  18.540  11.140  16.320
  501BOLB   C4A12008  18.070  11.060  16.310
  501BOLB   C1B12009  19.270  12.230  15.840
  501BOLB   C2B12010  19.500  11.920  15.940
  501BOLB   C3B12011  19.710  11.770  16.340
  501BOLB   C4B12012  19.710  11.660  16.780
  501BOLB   NC212013  18.140   9.130  17.660
  501BOLB   PO212014  18.510   9.100  17.430
  501BOLB   GL312015  18.360   9.480  17.320
  501BOLB   GL412016  18.040   9.480  17.310
  501BOLB   C1C12017  18.220   9.850  17.130
  501BOLB   C2C12018  18.070  10.120  16.770
  501BOLB   C3C12019  17.710  10.350  16.600
  501BOLB   C4C12020  17.660  10.850  16.410
  501BOLB   C1D12021  17.710   9.850  17.110
  501BOLB   C2D12022  17.470  10.180  17.110
  501BOLB   C3D12023  17.520  10.650  17.180
  501BOLB   C4D12024  17.610  11.090  17.220
  502BOLB   NC112025  15.000  16.590  19.480
  502BOLB   PO112026  14.540  16.650  19.520
  502BOLB   GL112027  14.680  16.510  19.920
  502BOLB   GL212028  14.870  16.320  19.880
  502BOLB   C1A12029  14.620  16.180  20.300
  502BOLB   C2A12030  14.410  16.060  20.690
  502BOLB   C3A12031  14.270  15.860  21.050
  502BOLB   C4A12032  14.340  15.480  21.090
  502BOLB   C1B12033  15.010  15.990  20.220
  502BOLB   C2B12034  14.800  15.750  20.600
  502BOLB   C3B12035  14.820  15.540  21.010
  502BOLB   C4B12036  15.050  15.420  21.290
  502BOLB   NC212037  14.680  14.480  22.940
  502BOLB   PO212038  14.830  14.040  22.710
  502BOLB   GL312039  14.430  14.240  22.570
  502BOLB   GL412040  14.180  14.110  22.290
  502BOLB   C1C12041  14.550  14.410  22.170
  502BOLB   C2C12042  14.490  14.620  21.680
  502BOLB   C3C12043  14.410  14.700  21.170
  502BOLB   C4C12044  14.510  15.100  20.990
  502BOLB   C1D12045  14.360  14.120  21.800
  502BOLB   C2D12046  14.350  14.190  21.370
  502BOLB   C3D12047  14.380  14.230  20.870
  502BOLB   C4D12048  14.670  14.320  20.520
  503BOLB   NC112049  15.520  14.090  17.340
  503BOLB   PO112050  15.450  14.130  17.840
  503BOLB   GL112051  15.610  13.920  18.170
  503BOLB   GL212052  15.900  13.900  18.310
  503BOLB   C1A12053  15.620  13.440  18.190
  503BOLB   C2A12054  15.620  13.020  18.430
  503BOLB   C3A12055  15.720  12.680  18.700
  503BOLB   C4A12056  15.780  12.280  18.830
  503BOLB   C1B12057  15.940  13.660  18.560
  503BOLB   C2B12058  15.810  13.320  18.740
  503BOLB   C3B12059  15.850  13.020  19.090
  503BOLB   C4B12060  15.980  12.670  19.240
  503BOLB   NC212061  16.930  10.500  20.200
  503BOLB   PO212062  16.600  10.550  20.010
  503BOLB   GL312063  16.820  10.960  19.910
  503BOLB   GL412064  17.120  11.100  19.730
  503BOLB   C1C12065  16.620  11.290  19.640
  503BOLB   C2C12066  16.560  11.720  19.650
  503BOLB   C3C12067  16.230  12.000  19.530
  503BOLB   C4C12068  16.070  12.190  19.160
  503BOLB   C1D12069  16.980  11.050  19.400
  503BOLB   C2D12070  16.740  11.320  19.120
  503BOLB   C3D12071  16.490  11.720  18.840
  503BOLB   C4D12072  16.140  11.900  18.780
  504BOLB   NC112073  18.140  28.690  16.540
  504BOLB   PO112074  17.970  29.070  16.600
  504BOLB   GL112075  17.650  29.380  16.620
  504BOLB   GL212076  17.720  29.590  16.430
  504BOLB   C1A12077  17.600  29.740  16.920
  504BOLB   C2A12078  17.350  29.850  17.240
  504BOLB   C3A12079  17.310  30.090  17.610
  504BOLB   C4A12080  17.150  30.470  17.920
  504BOLB   C1B12081  17.640  30.060  16.500
  504BOLB   C2B12082  17.620  30.410  16.610
  504BOLB   C3B12083  17.460  30.750  16.800
  504BOLB   C4B12084  17.370  31.220  16.450
  504BOLB   NC212085  16.860  33.040  18.060
  504BOLB   PO212086  17.140  32.650  18.230
  504BOLB   GL312087  17.350  32.350  18.060
  504BOLB   GL412088  17.100  32.110  18.060
  504BOLB   C1C12089  17.630  32.020  17.830
  504BOLB   C2C12090  17.610  31.640  17.710
  504BOLB   C3C12091  17.530  31.290  17.790
  504BOLB   C4C12092  17.350  30.860  17.930
  504BOLB   C1D12093  17.130  31.790  17.700
  504BOLB   C2D12094  17.240  31.430  17.440
  504BOLB   C3D12095  17.450  31.070  17.320
  504BOLB   C4D12096  17.840  30.870  17.150
  505BOLB   NC112097  15.060  28.840  12.240
  505BOLB   PO112098  14.540  28.820  12.280
  505BOLB   GL112099  14.730  29.230  12.160
  505BOLB   GL212100  15.100  29.340  12.300
  505BOLB   C1A12101  14.560  29.500  12.000
  505BOLB   C2A12102  14.380  29.910  12.250
  505BOLB   C3A12103  14.420  30.350  12.160
  505BOLB   C4A12104  14.380  30.740  11.940
  505BOLB   C1B12105  14.840  29.790  12.410
  505BOLB   C2B12106  14.750  30.170  12.500
  505BOLB   C3B12107  14.500  30.490  12.690
  505BOLB   C4B12108  14.130  30.730  12.880
  505BOLB   NC212109  13.810  33.210  11.970
  505BOLB   PO212110  14.150  33.050  12.030
  505BOLB   GL312111  14.320  32.720  11.880
  505BOLB   GL412112  14.630  32.680  12.090
  505BOLB   C1C12113  14.350  32.280  11.710
  505BOLB   C2C12114  14.200  31.850  11.450
  505BOLB   C3C12115  14.360  31.450  11.450
  505BOLB   C4C12116  14.530  31.050  11.570
  505BOLB   C1D12117  14.800  32.290  11.860
  505BOLB   C2D12118  14.960  31.800  11.990
  505BOLB   C3D12119  15.290  31.420  11.980
  505BOLB   C4D12120  15.520  31.150  11.700
  506BOLB   NC112121  22.200  27.930   9.210
  506BOLB   PO112122  22.420  28.180   8.950
  506BOLB   GL112123  22.700  28.500   8.790
  506BOLB   GL212124  23.000  28.370   8.880
  506BOLB   C1A12125  22.920  28.910   8.620
  506BOLB   C2A12126  23.300  29.090   8.560
  506BOLB   C3A12127  23.700  29.000   8.550
  506BOLB   C4A12128  24.020  29.120   8.810
  506BOLB   C1B12129  23.300  28.660   8.820
  506BOLB   C2B12130  23.780  28.750   8.970
  506BOLB   C3B12131  24.220  28.840   9.160
  506BOLB   C4B12132  24.460  28.530   9.410
  506BOLB   NC212133  25.240  30.700   7.650
  506BOLB   PO212134  25.360  30.260   7.370
  506BOLB   GL312135  25.110  30.080   7.660
  506BOLB   GL412136  24.800  30.120   7.560
  506BOLB   C1C12137  24.900  29.920   7.970
  506BOLB   C2C12138  24.980  29.710   8.380
  506BOLB   C3C12139  24.640  29.450   8.590
  506BOLB   C4C12140  24.310  29.230   8.820
  506BOLB   C1D12141  24.350  29.960   7.740
  506BOLB   C2D12142  24.060  29.680   8.020
  506BOLB   C3D12143  24.120  29.530   8.450
  506BOLB   C4D12144  24.070  29.660   8.890
  507BOLB   NC112145  18.300  29.230  10.750
  507BOLB   PO112146  17.930  29.500  10.660
  507BOLB   GL112147  17.900  29.970  10.450
  507BOLB   GL212148  17.910  29.910  10.010
  507BOLB   C1A12149  18.200  30.250  10.400
  507BOLB   C2A12150  18.040  30.690  10.230
  507BOLB   C3A12151  17.980  31.020  10.470
  507BOLB   C4A12152  18.060  31.460  10.340
  507BOLB   C1B12153  17.740  30.310  10.110
  507BOLB   C2B12154  17.660  30.590   9.720
  507BOLB   C3B12155  17.480  31.030   9.630
  507BOLB   C4B12156  17.350  31.390   9.600
  507BOLB   NC212157  17.540  34.050  10.460
  507BOLB   PO212158  17.720  33.710  10.220
  507BOLB   GL312159  17.830  33.380  10.330
  507BOLB   GL412160  18.240  33.350  10.400
  507BOLB   C1C12161  17.730  33.050  10.170
  507BOLB   C2C12162  17.550  32.670  10.120
  507BOLB   C3C12163  17.730  32.340  10.330
  507BOLB   C4C12164  17.970  31.950  10.370
  507BOLB   C1D12165  18.460  32.910  10.420
  507BOLB   C2D12166  18.610  32.550  10.630
  507BOLB   C3D12167  18.840  32.190  10.700
  507BOLB   C4D12168  18.770  31.770  10.700
  508BOLB   NC112169  25.270  18.800  13.930
  508BOLB   PO112170  25.010  18.570  14.230
  508BOLB   GL112171  25.430  18.370  14.150
  508BOLB   GL212172  25.470  18.350  13.760
  508BOLB   C1A12173  25.660  18.070  14.270
  508BOLB   C2A12174  25.730  17.750  14.420
  508BOLB   C3A12175  26.060  17.470  14.330
  508BOLB   C4A12176  26.380  17.120  14.460
  508BOLB   C1B12177  25.870  18.390  13.890
  508BOLB   C2B12178  26.200  18.210  13.860
  508BOLB   C3B12179  26.680  18.030  14.130
  508BOLB   C4B12180  27.020  17.890  14.460
  508BOLB   NC212181  28.620  15.680  14.710
  508BOLB   PO212182  28.110  15.450  14.820
  508BOLB   GL312183  27.670  15.610  14.720
  508BOLB   GL412184  27.540  15.700  14.490
  508BOLB   C1C12185  27.340  15.810  15.020
  508BOLB   C2C12186  27.200  16.160  15.020
  508BOLB   C3C12187  26.880  16.570  14.910
  508BOLB   C4C12188  26.720  16.890  14.620
  508BOLB   C1D12189  27.220  15.640  14.350
  508BOLB   C2D12190  26.900  15.920  14.340
  508BOLB   C3D12191  26.410  15.810  14.400
  508BOLB   C4D12192  25.990  16.080  14.480
  509BOLB   NC112193  14.350  27.900  15.580
  509BOLB   PO112194  14.810  28.040  15.900
  509BOLB   GL112195  14.300  28.060  16.090
  509BOLB   GL212196  14.170  27.980  16.320
  509BOLB   C1A12197  14.000  28.450  16.120
  509BOLB   C2A12198  13.770  28.950  16.000
  509BOLB   C3A12199  13.860  29.410  16.090
  509BOLB   C4A12200  13.590  29.680  16.430
  509BOLB   C1B12201  13.960  28.370  16.700
  509BOLB   C2B12202  14.100  28.690  16.960
  509BOLB   C3B12203  14.200  28.780  17.310
  509BOLB   C4B12204  14.130  28.600  17.660
  509BOLB   NC212205  12.340  32.020  17.510
  509BOLB   PO212206  12.440  31.740  17.120
  509BOLB   GL312207  12.780  31.460  16.920
  509BOLB   GL412208  13.060  31.540  16.800
  509BOLB   C1C12209  12.770  31.030  16.930
  509BOLB   C2C12210  12.890  30.680  16.810
  509BOLB   C3C12211  13.130  30.290  16.820
  509BOLB   C4C12212  13.410  29.960  16.600
  509BOLB   C1D12213  13.280  31.090  16.820
  509BOLB   C2D12214  13.590  30.690  16.850
  509BOLB   C3D12215  13.760  30.330  16.610
  509BOLB   C4D12216  14.010  29.930  16.450
  510BOLB   NC112217  26.270  23.020  13.390
  510BOLB   PO112218  26.510  23.240  13.180
  510BOLB   GL112219  26.880  23.190  13.230
  510BOLB   GL212220  27.080  22.970  13.100
  510BOLB   C1A12221  27.220  23.470  13.260
  510BOLB   C2A12222  27.790  23.540  13.300
  510BOLB   C3A12223  28.180  23.600  13.280
  510BOLB   C4A12224  28.580  23.810  13.480
  510BOLB   C1B12225  27.500  23.020  13.330
  510BOLB   C2B12226  27.910  22.980  13.390
  510BOLB   C3B12227  28.280  23.030  13.120
  510BOLB   C4B12228  28.570  23.190  13.180
  510BOLB   NC212229  30.770  25.970  14.240
  510BOLB   PO212230  30.470  25.760  14.340
  510BOLB   GL312231  30.080  25.550  14.360
  510BOLB   GL412232  29.870  25.540  14.700
  510BOLB   C1C12233  29.720  25.330  14.080
  510BOLB   C2C12234  29.410  24.920  13.950
  510BOLB   C3C12235  29.140  24.560  13.770
  510BOLB   C4C12236  28.870  24.060  13.850
  510BOLB   C1D12237  29.620  25.380  15.120
  510BOLB   C2D12238  29.370  25.520  15.470
  510BOLB   C3D12239  29.150  25.610  15.840
  510BOLB   C4D12240  28.960  25.580  16.220
  511BOLB   NC112241  21.680  15.540  17.100
  511BOLB   PO112242  21.990  15.530  16.810
  511BOLB   GL112243  22.170  15.240  17.160
  511BOLB   GL212244  21.900  15.140  17.270
  511BOLB   C1A12245  22.440  15.110  17.450
  511BOLB   C2A12246  22.730  14.890  17.630
  511BOLB   C3A12247  22.880  14.590  17.830
  511BOLB   C4A12248  23.130  14.280  17.670
  511BOLB   C1B12249  22.090  14.770  17.260
  511BOLB   C2B12250  22.530  14.650  17.220
  511BOLB   C3B12251  22.930  14.400  17.240
  511BOLB   C4B12252  23.340  14.520  17.100
  511BOLB   NC212253  23.800  11.900  18.150
  511BOLB   PO212254  23.950  12.320  18.030
  511BOLB   GL312255  23.730  12.680  17.730
  511BOLB   GL412256  23.570  12.540  17.460
  511BOLB   C1C12257  23.270  12.790  17.740
  511BOLB   C2C12258  23.040  13.050  18.060
  511BOLB   C3C12259  22.860  13.450  18.060
  511BOLB   C4C12260  23.000  13.870  17.900
  511BOLB   C1D12261  23.440  12.670  17.030
  511BOLB   C2D12262  23.250  12.880  16.690
  511BOLB   C3D12263  22.900  12.960  16.250
  511BOLB   C4D12264  22.610  13.170  15.900
  512BOLB   NC112265  24.040  20.330  10.470
  512BOLB   PO112266  24.400  20.450  10.140
  512BOLB   GL112267  24.660  20.200  10.010
  512BOLB   GL212268  24.990  20.380   9.860
  512BOLB   C1A12269  24.900  19.790   9.910
  512BOLB   C2A12270  25.300  19.530   9.950
  512BOLB   C3A12271  25.570  19.120   9.910
  512BOLB   C4A12272  25.890  18.890   9.690
  512BOLB   C1B12273  25.330  20.160   9.620
  512BOLB   C2B12274  25.480  19.850   9.540
  512BOLB   C3B12275  25.800  19.510   9.700
  512BOLB   C4B12276  26.200  19.330   9.430
  512BOLB   NC212277  28.330  17.950   8.470
  512BOLB   PO212278  28.170  18.390   8.420
  512BOLB   GL312279  27.780  18.380   8.520
  512BOLB   GL412280  27.750  18.060   8.480
  512BOLB   C1C12281  27.360  18.510   8.690
  512BOLB   C2C12282  26.980  18.490   8.850
  512BOLB   C3C12283  26.620  18.630   9.080
  512BOLB   C4C12284  26.260  18.770   9.390
  512BOLB   C1D12285  27.400  18.020   8.700
  512BOLB   C2D12286  27.180  18.050   9.040
  512BOLB   C3D12287  27.270  18.040   9.540
  512BOLB   C4D12288  27.410  18.180   9.830
  513BOLB   NC112289  22.500  23.020  19.820
  513BOLB   PO112290  22.110  22.740  19.740
  513BOLB   GL112291  22.390  22.750  20.180
  513BOLB   GL212292  22.230  22.810  20.460
  513BOLB   C1A12293  22.660  23.060  20.400
  513BOLB   C2A12294  22.820  23.230  20.750
  513BOLB   C3A12295  22.840  23.100  21.130
  513BOLB   C4A12296  22.670  22.800  21.450
  513BOLB   C1B12297  22.480  22.830  20.890
  513BOLB   C2B12298  22.680  22.440  21.060
  513BOLB   C3B12299  22.790  22.060  21.180
  513BOLB   C4B12300  23.060  21.790  21.310
  513BOLB   NC212301  23.980  22.050  23.480
  513BOLB   PO212302  23.800  22.440  23.400
  513BOLB   GL312303  23.580  22.360  23.090
  513BOLB   GL412304  23.700  22.070  23.000
  513BOLB   C1C12305  23.260  22.240  22.730
  513BOLB   C2C12306  23.220  22.270  22.290
  513BOLB   C3C12307  22.900  22.290  21.990
  513BOLB   C4C12308  22.750  22.410  21.650
  513BOLB   C1D12309  23.600  21.910  22.600
  513BOLB   C2D12310  23.290  21.750  22.330
  513BOLB   C3D12311  23.130  21.840  21.950
  513BOLB   C4D12312  22.750  21.830  21.720
  514BOLB   NC112313  14.720  21.980  19.550
  514BOLB   PO112314  14.510  22.180  19.890
  514BOLB   GL112315  14.450  22.240  20.240
  514BOLB   GL212316  14.630  22.260  20.460
  514BOLB   C1A12317  14.220  22.610  20.470
  514BOLB   C2A12318  14.140  22.830  20.910
  514BOLB   C3A12319  13.890  22.810  21.320
  514BOLB   C4A12320  13.980  22.720  21.710
  514BOLB   C1B12321  14.510  22.380  20.900
  514BOLB   C2B12322  14.440  22.530  21.290
  514BOLB   C3B12323  14.500  22.700  21.640
  514BOLB   C4B12324  14.560  22.750  22.070
  514BOLB   NC212325  13.360  23.500  23.560
  514BOLB   PO212326  13.250  23.120  23.620
  514BOLB   GL312327  13.270  23.120  23.210
  514BOLB   GL412328  12.920  23.060  23.100
  514BOLB   C1C12329  13.620  22.910  22.970
  514BOLB   C2C12330  14.120  22.820  22.750
  514BOLB   C3C12331  14.230  22.620  22.440
  514BOLB   C4C12332  14.050  22.440  22.090
  514BOLB   C1D12333  12.760  23.000  22.760
  514BOLB   C2D12334  12.690  22.800  22.520
  514BOLB   C3D12335  12.280  22.900  22.230
  514BOLB   C4D12336  12.270  22.930  21.760
  515BOLB   NC112337  19.240  13.640  15.000
  515BOLB   PO112338  19.490  13.350  15.260
  515BOLB   GL112339  19.730  13.030  15.460
  515BOLB   GL212340  19.880  13.120  15.590
  515BOLB   C1A12341  20.000  12.620  15.470
  515BOLB   C2A12342  20.130  12.170  15.550
  515BOLB   C3A12343  20.090  11.820  15.800
  515BOLB   C4A12344  20.280  11.680  16.170
  515BOLB   C1B12345  20.350  12.900  15.690
  515BOLB   C2B12346  20.630  12.580  15.600
  515BOLB   C3B12347  20.960  12.370  15.820
  515BOLB   C4B12348  21.270  12.090  16.040
  515BOLB   NC212349  20.840   9.870  18.240
  515BOLB   PO212350  20.780  10.160  17.860
  515BOLB   GL312351  20.840  10.500  17.590
  515BOLB   GL412352  20.840  10.440  17.210
  515BOLB   C1C12353  20.670  10.930  17.520
  515BOLB   C2C12354  20.490  11.220  17.230
  515BOLB   C3C12355  20.250  11.410  16.860
  515BOLB   C4C12356  20.170  11.610  16.530
  515BOLB   C1D12357  20.460  10.750  17.150
  515BOLB   C2D12358  20.020  10.900  17.140
  515BOLB   C3D12359  19.650  10.640  17.230
  515BOLB   C4D12360  19.490  10.070  17.260
  516BOLB   NC112361  22.910  28.470  16.420
  516BOLB   PO112362  23.270  28.720  16.260
  516BOLB   GL112363  23.240  29.020  16.420
  516BOLB   GL212364  23.010  29.020  16.590
  516BOLB   C1A12365  23.450  29.390  16.610
  516BOLB   C2A12366  23.290  29.790  16.910
  516BOLB   C3A12367  23.070  30.200  16.970
  516BOLB   C4A12368  22.930  30.560  16.860
  516BOLB   C1B12369  22.840  29.430  16.670
  516BOLB   C2B12370  22.670  29.880  16.650
  516BOLB   C3B12371  22.590  30.270  16.740
  516BOLB   C4B12372  22.400  30.700  17.010
  516BOLB   NC212373  22.800  32.540  17.760
  516BOLB   PO212374  23.100  32.630  17.420
  516BOLB   GL312375  23.110  32.370  16.970
  516BOLB   GL412376  22.900  32.390  16.870
  516BOLB   C1C12377  23.270  32.010  16.950
  516BOLB   C2C12378  23.270  31.640  16.890
  516BOLB   C3C12379  23.070  31.200  16.830
  516BOLB   C4C12380  22.870  30.880  16.820
  516BOLB   C1D12381  22.830  31.970  16.790
  516BOLB   C2D12382  22.740  31.520  16.700
  516BOLB   C3D12383  22.850  31.280  16.430
  516BOLB   C4D12384  22.660  31.110  16.130
  517BOLB   NC112385  19.330  13.150  15.700
  517BOLB   PO112386  19.010  12.830  15.570
  517BOLB   GL112387  19.390  12.630  15.510
  517BOLB   GL212388  19.470  12.340  15.390
  517BOLB   C1A12389  19.750  12.450  15.810
  517BOLB   C2A12390  19.920  12.170  16.050
  517BOLB   C3A12391  20.240  12.130  16.400
  517BOLB   C4A12392  20.540  12.110  16.720
  517BOLB   C1B12393  19.690  11.960  15.480
  517BOLB   C2B12394  19.930  11.630  15.320
  517BOLB   C3B12395  20.340  11.730  15.300
  517BOLB   C4B12396  20.720  11.610  15.330
  517BOLB   NC212397  21.440  10.850  18.340
  517BOLB   PO212398  21.830  11.060  18.370
  517BOLB   GL312399  21.600  11.370  18.280
  517BOLB   GL412400  21.420  11.570  18.420
  517BOLB   C1C12401  21.240  11.410  18.020
  517BOLB   C2C12402  21.040  11.260  17.660
  517BOLB   C3C12403  20.930  11.450  17.190
  517BOLB   C4C12404  20.850  11.940  17.080
  517BOLB   C1D12405  21.700  11.920  18.340
  517BOLB   C2D12406  21.870  12.290  18.130
  517BOLB   C3D12407  22.020  12.760  17.970
  517BOLB   C4D12408  21.840  13.160  17.750
  518BOLB   NC112409  17.090  28.570  16.250
  518BOLB   PO112410  16.720  28.480  16.110
  518BOLB   GL112411  16.440  28.910  16.250
  518BOLB   GL212412  16.050  28.750  16.310
  518BOLB   C1A12413  16.300  29.330  16.240
  518BOLB   C2A12414  16.030  29.550  16.590
  518BOLB   C3A12415  15.660  29.720  16.660
  518BOLB   C4A12416  15.330  30.020  16.810
  518BOLB   C1B12417  15.830  29.060  16.550
  518BOLB   C2B12418  15.530  29.250  16.800
  518BOLB   C3B12419  15.320  29.560  17.030
  518BOLB   C4B12420  15.210  29.860  17.270
  518BOLB   NC212421  13.560  31.750  17.460
  518BOLB   PO212422  13.230  31.490  17.250
  518BOLB   GL312423  13.610  31.250  17.300
  518BOLB   GL412424  13.830  31.240  17.580
  518BOLB   C1C12425  13.920  31.070  16.950
  518BOLB   C2C12426  14.330  30.940  16.870
  518BOLB   C3C12427  14.640  30.590  16.850
  518BOLB   C4C12428  15.040  30.300  16.660
  518BOLB   C1D12429  13.930  30.800  17.360
  518BOLB   C2D12430  14.100  30.530  16.990
  518BOLB   C3D12431  14.230  30.370  16.580
  518BOLB   C4D12432  14.620  30.440  16.270
  519BOLB   NC112433  17.900  24.290  20.040
  519BOLB   PO112434  17.620  24.430  20.390
  519BOLB   GL112435  17.750  24.640  20.730
  519BOLB   GL212436  17.640  24.370  20.980
  519BOLB   C1A12437  17.640  25.010  20.980
  519BOLB   C2A12438  17.650  25.060  21.380
  519BOLB   C3A12439  17.590  25.350  21.740
  519BOLB   C4A12440  17.870  25.670  21.890
  519BOLB   C1B12441  17.420  24.300  21.430
  519BOLB   C2B12442  17.410  24.290  21.870
  519BOLB   C3B12443  16.970  24.190  22.030
  519BOLB   C4B12444  16.640  24.510  22.320
  519BOLB   NC212445  18.880  27.280  23.370
  519BOLB   PO212446  18.520  27.130  23.580
  519BOLB   GL312447  18.520  27.000  23.130
  519BOLB   GL412448  18.360  27.140  22.980
  519BOLB   C1C12449  18.620  26.650  22.960
  519BOLB   C2C12450  18.360  26.360  22.700
  519BOLB   C3C12451  18.400  26.100  22.420
  519BOLB   C4C12452  17.990  25.800  22.220
  519BOLB   C1D12453  18.510  27.030  22.610
  519BOLB   C2D12454  18.630  26.690  22.390
  519BOLB   C3D12455  18.410  26.510  22.080
  519BOLB   C4D12456  18.030  26.260  22.110
  520BOLB   NC112457  13.700  15.770  19.120
  520BOLB   PO112458  13.690  15.380  18.790
  520BOLB   GL112459  14.010  15.070  18.970
  520BOLB   GL212460  14.210  15.300  19.130
  520BOLB   C1A12461  14.030  14.840  19.280
  520BOLB   C2A12462  13.820  14.450  19.450
  520BOLB   C3A12463  13.910  14.070  19.620
  520BOLB   C4A12464  14.200  13.860  19.960
  520BOLB   C1B12465  14.460  15.080  19.420
  520BOLB   C2B12466  14.640  14.950  19.830
  520BOLB   C3B12467  14.560  14.770  20.280
  520BOLB   C4B12468  14.350  14.700  20.630
  520BOLB   NC212469  14.670  11.880  20.960
  520BOLB   PO212470  14.280  11.840  21.040
  520BOLB   GL312471  14.140  12.140  20.670
  520BOLB   GL412472  14.170  12.040  20.380
  520BOLB   C1C12473  14.120  12.490  20.570
  520BOLB   C2C12474  14.340  12.940  20.550
  520BOLB   C3C12475  14.460  13.340  20.440
  520BOLB   C4C12476  14.440  13.510  20.080
  520BOLB   C1D12477  14.360  12.020  19.930
  520BOLB   C2D12478  14.200  11.890  19.490
  520BOLB   C3D12479  13.990  11.910  19.050
  520BOLB   C4D12480  13.720  12.060  18.740
  521BOLB   NC112481  24.720  26.440  16.750
  521BOLB   PO112482  24.280  26.450  17.000
  521BOLB   GL112483  24.630  26.490  17.260
  521BOLB   GL212484  24.820  26.420  17.630
  521BOLB   C1A12485  24.970  26.870  17.450
  521BOLB   C2A12486  25.280  26.900  17.740
  521BOLB   C3A12487  25.530  27.170  18.020
  521BOLB   C4A12488  25.960  27.300  18.130
  521BOLB   C1B12489  25.210  26.410  17.640
  521BOLB   C2B12490  25.600  26.610  17.970
  521BOLB   C3B12491  25.820  26.880  18.330
  521BOLB   C4B12492  26.270  27.100  18.470
  521BOLB   NC212493  27.370  29.150  18.620
  521BOLB   PO212494  27.460  29.260  19.010
  521BOLB   GL312495  27.070  28.980  18.950
  521BOLB   GL412496  26.870  29.080  18.730
  521BOLB   C1C12497  26.900  28.640  18.600
  521BOLB   C2C12498  26.570  28.380  18.540
  521BOLB   C3C12499  26.410  28.010  18.380
  521BOLB   C4C12500  26.080  27.670  18.450
  521BOLB   C1D12501  26.540  28.900  18.340
  521BOLB   C2D12502  26.340  28.780  18.100
  521BOLB   C3D12503  25.870  28.640  17.910
  521BOLB   C4D12504  25.440  28.580  17.660
  522BOLB   NC112505  11.690  25.090  15.970
  522BOLB   PO112506  11.780  25.520  15.920
  522BOLB   GL112507  11.540  25.770  16.080
  522BOLB   GL212508  11.230  25.840  16.010
  522BOLB   C1A12509  11.530  26.100  16.360
  522BOLB   C2A12510  11.210  26.140  16.680
  522BOLB   C3A12511  11.080  26.340  17.020
  522BOLB   C4A12512  10.810  26.620  17.350
  522BOLB   C1B12513  11.030  26.120  16.160
  522BOLB   C2B12514  10.920  26.460  16.500
  522BOLB   C3B12515  10.750  26.730  16.830
  522BOLB   C4B12516  10.530  27.030  17.040
  522BOLB   NC212517   9.120  27.880  17.940
  522BOLB   PO212518   8.920  28.010  17.650
  522BOLB   GL312519   9.150  27.860  17.350
  522BOLB   GL412520   9.160  27.730  17.040
  522BOLB   C1C12521   9.480  27.450  17.340
  522BOLB   C2C12522   9.850  27.450  17.210
  522BOLB   C3C12523  10.260  27.290  17.350
  522BOLB   C4C12524  10.620  26.990  17.520
  522BOLB   C1D12525   9.450  27.480  16.840
  522BOLB   C2D12526   9.810  27.180  16.800
  522BOLB   C3D12527   9.930  26.880  17.130
  522BOLB   C4D12528  10.210  26.490  17.180
  523BOLB   NC112529  23.820  18.160  10.830
  523BOLB   PO112530  24.270  18.080  10.780
  523BOLB   GL112531  24.560  17.870  10.370
  523BOLB   GL212532  24.740  18.040  10.070
  523BOLB   C1A12533  24.900  17.500  10.370
  523BOLB   C2A12534  25.400  17.490  10.310
  523BOLB   C3A12535  25.820  17.310  10.570
  523BOLB   C4A12536  26.180  17.310  10.730
  523BOLB   C1B12537  25.120  17.750   9.940
  523BOLB   C2B12538  25.380  17.540   9.640
  523BOLB   C3B12539  25.540  17.220   9.320
  523BOLB   C4B12540  25.390  17.170   8.820
  523BOLB   NC212541  27.920  16.120  11.200
  523BOLB   PO212542  27.880  15.880  10.730
  523BOLB   GL312543  27.510  15.970  10.760
  523BOLB   GL412544  27.340  15.660  10.900
  523BOLB   C1C12545  27.420  16.450  10.850
  523BOLB   C2C12546  27.050  16.670  10.750
  523BOLB   C3C12547  26.740  16.880  10.790
  523BOLB   C4C12548  26.510  17.220  11.010
  523BOLB   C1D12549  27.160  16.090  11.110
  523BOLB   C2D12550  26.960  16.450  11.190
  523BOLB   C3D12551  26.990  16.870  11.260
  523BOLB   C4D12552  27.060  17.340  11.310
  524BOLB   NC112553  21.490  29.810  14.290
  524BOLB   PO112554  21.320  29.850  13.910
  524BOLB   GL112555  21.610  30.230  13.990
  524BOLB   GL212556  21.720  30.340  14.350
  524BOLB   C1A12557  21.920  30.520  13.940
  524BOLB   C2A12558  22.230  30.800  14.130
  524BOLB   C3A12559  22.560  30.950  14.210
  524BOLB   C4A12560  22.910  31.170  14.330
  524BOLB   C1B12561  21.730  30.770  14.540
  524BOLB   C2B12562  21.680  31.160  14.630
  524BOLB   C3B12563  21.780  31.530  14.940
  524BOLB   C4B12564  21.850  31.820  15.210
  524BOLB   NC212565  23.900  33.490  13.840
  524BOLB   PO212566  24.140  33.220  14.070
  524BOLB   GL312567  23.900  32.920  14.310
  524BOLB   GL412568  23.780  32.950  14.600
  524BOLB   C1C12569  23.630  32.440  14.390
  524BOLB   C2C12570  23.320  32.230  14.670
  524BOLB   C3C12571  23.180  31.890  14.530
  524BOLB   C4C12572  23.020  31.510  14.340
  524BOLB   C1D12573  24.050  32.630  14.690
  524BOLB   C2D12574  24.320  32.340  14.450
  524BOLB   C3D12575  24.360  31.910  14.240
  524BOLB   C4D12576  24.050  31.560  14.220
  525BOLB   NC112577  25.170  23.910   9.490
  525BOLB   PO112578  25.360  24.290   9.540
  525BOLB   GL112579  25.630  24.690   9.610
  525BOLB   GL212580  25.730  24.550   9.370
  525BOLB   C1A12581  25.820  25.050   9.430
  525BOLB   C2A12582  25.930  25.220   9.070
  525BOLB   C3A12583  26.120  25.040   8.760
  525BOLB   C4A12584  26.090  24.880   8.310
  525BOLB   C1B12585  26.180  24.710   9.260
  525BOLB   C2B12586  26.510  24.970   9.260
  525BOLB   C3B12587  26.700  25.130   8.930
  525BOLB   C4B12588  26.970  25.340   8.650
  525BOLB   NC212589  28.330  24.420   7.230
  525BOLB   PO212590  28.470  24.760   7.440
  525BOLB   GL312591  28.100  24.890   7.630
  525BOLB   GL412592  28.010  25.040   7.930
  525BOLB   C1C12593  27.660  24.700   7.790
  525BOLB   C2C12594  27.290  24.620   7.810
  525BOLB   C3C12595  26.920  24.790   8.090
  525BOLB   C4C12596  26.540  24.850   8.030
  525BOLB   C1D12597  27.700  25.030   8.240
  525BOLB   C2D12598  27.240  25.010   8.340
  525BOLB   C3D12599  27.140  24.890   8.790
  525BOLB   C4D12600  26.920  24.710   9.190
  526BOLB   NC112601  24.300  26.700  16.590
  526BOLB   PO112602  24.550  26.930  16.920
  526BOLB   GL112603  24.650  27.280  17.230
  526BOLB   GL212604  24.600  27.470  16.930
  526BOLB   C1A12605  24.920  27.480  17.320
  526BOLB   C2A12606  25.230  27.450  17.700
  526BOLB   C3A12607  25.460  27.640  17.970
  526BOLB   C4A12608  25.560  27.860  18.380
  526BOLB   C1B12609  25.000  27.490  16.860
  526BOLB   C2B12610  25.390  27.750  16.970
  526BOLB   C3B12611  25.750  27.880  17.300
  526BOLB   C4B12612  25.830  28.210  17.560
  526BOLB   NC212613  25.450  29.670  19.860
  526BOLB   PO212614  25.760  29.420  20.010
  526BOLB   GL312615  25.540  29.200  19.750
  526BOLB   GL412616  25.520  29.400  19.460
  526BOLB   C1C12617  25.200  28.930  19.640
  526BOLB   C2C12618  25.040  28.610  19.360
  526BOLB   C3C12619  25.190  28.440  19.010
  526BOLB   C4C12620  25.410  28.150  18.700
  526BOLB   C1D12621  25.490  29.610  19.050
  526BOLB   C2D12622  25.440  29.330  18.740
  526BOLB   C3D12623  25.570  28.890  18.550
  526BOLB   C4D12624  25.640  28.400  18.370
  527BOLB   NC112625  24.860  27.150  16.090
  527BOLB   PO112626  24.500  27.230  16.490
  527BOLB   GL112627  24.850  27.540  16.350
  527BOLB   GL212628  24.780  27.820  16.230
  527BOLB   C1A12629  25.260  27.720  16.450
  527BOLB   C2A12630  25.670  27.970  16.590
  527BOLB   C3A12631  26.040  28.020  16.860
  527BOLB   C4A12632  26.260  28.200  17.260
  527BOLB   C1B12633  24.660  28.220  16.290
  527BOLB   C2B12634  24.970  28.580  16.260
  527BOLB   C3B12635  25.260  28.770  16.020
  527BOLB   C4B12636  25.680  29.030  15.850
  527BOLB   NC212637  28.030  29.500  18.380
  527BOLB   PO212638  27.830  29.140  18.600
  527BOLB   GL312639  27.520  28.730  18.400
  527BOLB   GL412640  27.360  28.390  18.540
  527BOLB   C1C12641  27.440  28.570  18.050
  527BOLB   C2C12642  27.310  28.280  17.800
  527BOLB   C3C12643  27.060  28.390  17.420
  527BOLB   C4C12644  26.660  28.400  17.260
  527BOLB   C1D12645  27.260  28.100  18.240
  527BOLB   C2D12646  27.270  27.820  17.900
  527BOLB   C3D12647  27.240  27.450  17.700
  527BOLB   C4D12648  27.030  27.130  17.530
  528BOLB   NC112649  24.720  24.660   9.030
  528BOLB   PO112650  25.100  24.530   9.190
  528BOLB   GL112651  25.280  24.630   8.910
  528BOLB   GL212652  25.650  24.830   8.960
  528BOLB   C1A12653  25.260  24.610   8.480
  528BOLB   C2A12654  25.440  24.800   8.050
  528BOLB   C3A12655  25.810  25.140   8.030
  528BOLB   C4A12656  26.200  25.250   7.930
  528BOLB   C1B12657  25.640  25.020   8.510
  528BOLB   C2B12658  25.380  25.270   8.230
  528BOLB   C3B12659  25.430  25.580   7.950
  528BOLB   C4B12660  25.580  25.830   7.780
  528BOLB   NC212661  27.510  25.090   6.360
  528BOLB   PO212662  27.380  25.500   6.190
  528BOLB   GL312663  27.280  25.470   6.590
  528BOLB   GL412664  27.090  25.210   6.560
  528BOLB   C1C12665  27.040  25.500   7.020
  528BOLB   C2C12666  27.200  25.290   7.500
  528BOLB   C3C12667  26.910  25.120   7.710
  528BOLB   C4C12668  26.500  25.290   7.730
  528BOLB   C1D12669  26.710  25.090   6.830
  528BOLB   C2D12670  26.300  25.070   7.030
  528BOLB   C3D12671  26.130  25.190   7.370
  528BOLB   C4D12672  26.100  25.570   7.560
  529BOLB   NC112673  21.150  24.920  19.340
  529BOLB   PO112674  21.320  25.340  19.660
  529BOLB   GL112675  21.640  25.450  19.910
  529BOLB   GL212676  21.970  25.750  19.880
  529BOLB   C1A12677  21.700  25.430  20.370
  529BOLB   C2A12678  22.140  25.350  20.570
  529BOLB   C3A12679  22.270  25.330  20.890
  529BOLB   C4A12680  22.570  25.360  21.240
  529BOLB   C1B12681  22.300  26.020  20.150
  529BOLB   C2B12682  22.450  25.940  20.570
  529BOLB   C3B12683  22.370  25.870  21.080
  529BOLB   C4B12684  22.110  25.630  21.330
  529BOLB   NC212685  22.240  27.190  23.230
  529BOLB   PO212686  22.460  26.770  23.230
  529BOLB   GL312687  22.520  26.730  22.840
  529BOLB   GL412688  22.280  26.550  22.810
  529BOLB   C1C12689  22.590  26.270  22.560
  529BOLB   C2C12690  22.390  26.200  22.050
  529BOLB   C3C12691  22.610  25.870  21.810
  529BOLB   C4C12692  22.670  25.560  21.580
  529BOLB   C1D12693  22.340  26.640  22.330
  529BOLB   C2D12694  22.170  26.710  21.990
  529BOLB   C3D12695  22.110  26.490  21.560
  529BOLB   C4D12696  22.300  26.490  21.150
  530BOLB   NC112697  13.130  18.700  19.210
  530BOLB   PO112698  12.800  18.430  19.330
  530BOLB   GL112699  12.480  18.320  19.610
  530BOLB   GL212700  12.580  18.270  19.840
  530BOLB   C1A12701  12.190  18.610  19.900
  530BOLB   C2A12702  12.150  18.580  20.260
  530BOLB   C3A12703  12.190  18.460  20.630
  530BOLB   C4A12704  12.080  18.540  21.020
  530BOLB   C1B12705  12.330  18.130  20.270
  530BOLB   C2B12706  12.030  17.960  20.610
  530BOLB   C3B12707  11.570  17.790  20.730
  530BOLB   C4B12708  11.250  18.040  21.100
  530BOLB   NC212709  12.000  18.440  23.190
  530BOLB   PO212710  11.610  18.640  23.280
  530BOLB   GL312711  11.680  18.750  22.930
  530BOLB   GL412712  11.700  18.480  22.800
  530BOLB   C1C12713  11.800  18.890  22.490
  530BOLB   C2C12714  11.960  18.730  22.090
  530BOLB   C3C12715  12.160  18.650  21.730
  530BOLB   C4C12716  12.070  18.490  21.420
  530BOLB   C1D12717  11.550  18.370  22.400
  530BOLB   C2D12718  11.500  18.610  22.050
  530BOLB   C3D12719  11.600  18.670  21.570
  530BOLB   C4D12720  11.490  18.470  21.160
  531BOLB   NC112721  23.990  21.580  18.260
  531BOLB   PO112722  24.380  21.200  18.410
  531BOLB   GL112723  24.400  21.170  18.880
  531BOLB   GL212724  24.560  20.920  19.070
  531BOLB   C1A12725  24.530  21.500  19.250
  531BOLB   C2A12726  24.700  21.300  19.490
  531BOLB   C3A12727  25.030  21.300  19.780
  531BOLB   C4A12728  25.470  21.130  19.830
  531BOLB   C1B12729  24.960  20.950  19.110
  531BOLB   C2B12730  25.220  20.860  19.440
  531BOLB   C3B12731  25.530  20.630  19.720
  531BOLB   C4B12732  25.870  20.310  19.800
  531BOLB   NC212733  26.790  18.980  21.200
  531BOLB   PO212734  26.860  19.430  21.180
  531BOLB   GL312735  26.470  19.640  20.980
  531BOLB   GL412736  26.210  19.540  20.950
  531BOLB   C1C12737  26.180  19.760  20.510
  531BOLB   C2C12738  26.150  20.120  20.160
  531BOLB   C3C12739  26.060  20.610  20.110
  531BOLB   C4C12740  25.760  20.810  20.100
  531BOLB   C1D12741  25.680  19.560  20.820
  531BOLB   C2D12742  25.270  19.550  20.800
  531BOLB   C3D12743  24.870  19.500  20.630
  531BOLB   C4D12744  24.430  19.700  20.510
  532BOLB   NC112745  26.180  23.420  16.700
  532BOLB   PO112746  25.880  23.180  16.820
  532BOLB   GL112747  26.140  23.190  17.250
  532BOLB   GL212748  26.240  23.240  17.490
  532BOLB   C1A12749  26.480  22.870  17.280
  532BOLB   C2A12750  26.850  22.750  17.190
  532BOLB   C3A12751  27.190  22.760  17.420
  532BOLB   C4A12752  27.400  22.770  17.790
  532BOLB   C1B12753  26.620  23.510  17.510
  532BOLB   C2B12754  26.900  23.570  17.680
  532BOLB   C3B12755  27.310  23.800  17.790
  532BOLB   C4B12756  27.390  24.260  17.720
  532BOLB   NC212757  29.850  22.850  17.920
  532BOLB   PO212758  29.750  22.510  18.210
  532BOLB   GL312759  29.290  22.480  18.070
  532BOLB   GL412760  29.190  22.150  17.890
  532BOLB   C1C12761  28.870  22.600  18.220
  532BOLB   C2C12762  28.460  22.740  18.470
  532BOLB   C3C12763  28.170  22.740  18.270
  532BOLB   C4C12764  27.780  22.860  17.940
  532BOLB   C1D12765  28.760  21.910  17.700
  532BOLB   C2D12766  28.430  21.910  17.510
  532BOLB   C3D12767  28.210  21.870  17.170
  532BOLB   C4D12768  27.810  21.760  16.970
  533BOLB   NC112769  24.790  27.390  11.910
  533BOLB   PO112770  25.220  27.480  11.960
  533BOLB   GL112771  25.450  27.760  12.130
  533BOLB   GL212772  25.750  27.570  12.190
  533BOLB   C1A12773  25.710  28.050  12.000
  533BOLB   C2A12774  26.170  28.280  11.900
  533BOLB   C3A12775  26.530  28.180  11.750
  533BOLB   C4A12776  26.940  28.220  11.670
  533BOLB   C1B12777  25.840  27.790  12.550
  533BOLB   C2B12778  26.230  27.980  12.590
  533BOLB   C3B12779  26.580  28.100  12.370
  533BOLB   C4B12780  26.960  27.950  12.260
  533BOLB   NC212781  29.060  28.910  10.440
  533BOLB   PO212782  29.090  28.560  10.810
  533BOLB   GL312783  28.700  28.400  10.950
  533BOLB   GL412784  28.660  28.590  11.230
  533BOLB   C1C12785  28.350  28.220  11.140
  533BOLB   C2C12786  28.070  28.060  11.330
  533BOLB   C3C12787  27.790  27.950  11.680
  533BOLB   C4C12788  27.310  28.000  11.700
  533BOLB   C1D12789  28.320  28.740  11.490
  533BOLB   C2D12790  27.950  28.930  11.650
  533BOLB   C3D12791  27.520  29.050  11.780
  533BOLB   C4D12792  27.170  28.790  11.600
  534BOLB   NC112793  10.470  18.090  18.460
  534BOLB   PO112794  10.750  17.650  18.440
  534BOLB   GL112795  10.300  17.590  18.520
  534BOLB   GL212796   9.990  17.750  18.520
  534BOLB   C1A12797   9.900  17.480  18.900
  534BOLB   C2A12798   9.480  17.470  19.030
  534BOLB   C3A12799   9.120  17.390  19.270
  534BOLB   C4A12800   8.840  17.100  19.580
  534BOLB   C1B12801   9.700  17.970  18.810
  534BOLB   C2B12802   9.360  17.910  19.120
  534BOLB   C3B12803   8.880  17.820  19.090
  534BOLB   C4B12804   8.560  17.970  19.370
  534BOLB   NC212805   7.180  16.830  21.040
  534BOLB   PO212806   7.260  17.100  20.630
  534BOLB   GL312807   7.550  17.190  20.250
  534BOLB   GL412808   7.380  17.380  20.020
  534BOLB   C1C12809   7.940  17.330  20.050
  534BOLB   C2C12810   8.290  17.650  19.960
  534BOLB   C3C12811   8.750  17.670  20.100
  534BOLB   C4C12812   8.950  17.250  20.000
  534BOLB   C1D12813   7.720  17.710  19.880
  534BOLB   C2D12814   7.970  17.760  19.570
  534BOLB   C3D12815   8.150  17.670  19.130
  534BOLB   C4D12816   8.370  17.910  18.850
  535BOLB   NC112817  14.210  28.280  15.210
  535BOLB   PO112818  14.590  28.250  15.010
  535BOLB   GL112819  14.430  28.720  15.190
  535BOLB   GL212820  14.030  28.780  15.260
  535BOLB   C1A12821  14.240  29.230  15.220
  535BOLB   C2A12822  14.490  29.560  15.410
  535BOLB   C3A12823  14.480  29.860  15.540
  535BOLB   C4A12824  14.170  30.230  15.510
  535BOLB   C1B12825  13.740  29.100  15.180
  535BOLB   C2B12826  13.590  29.510  15.140
  535BOLB   C3B12827  13.530  29.930  15.400
  535BOLB   C4B12828  13.400  30.170  15.670
  535BOLB   NC212829  12.210  31.850  15.300
  535BOLB   PO212830  12.610  31.970  15.530
  535BOLB   GL312831  12.680  31.580  15.390
  535BOLB   GL412832  12.480  31.400  15.280
  535BOLB   C1C12833  13.130  31.340  15.410
  535BOLB   C2C12834  13.300  30.880  15.460
  535BOLB   C3C12835  13.560  30.640  15.570
  535BOLB   C4C12836  13.870  30.400  15.540
  535BOLB   C1D12837  12.720  31.090  15.600
  535BOLB   C2D12838  13.060  31.080  15.900
  535BOLB   C3D12839  13.450  30.930  16.020
  535BOLB   C4D12840  13.910  30.820  15.830
  536BOLB   NC112841  21.400  19.110  19.020
  536BOLB   PO112842  21.260  18.720  19.320
  536BOLB   GL112843  21.590  18.470  19.540
  536BOLB   GL212844  21.780  18.470  19.880
  536BOLB   C1A12845  21.430  18.100  19.950
  536BOLB   C2A12846  21.270  17.720  20.130
  536BOLB   C3A12847  21.080  17.600  20.540
  536BOLB   C4A12848  21.000  17.370  20.900
  536BOLB   C1B12849  21.840  18.250  20.370
  536BOLB   C2B12850  21.960  18.310  20.770
  536BOLB   C3B12851  22.110  18.520  21.010
  536BOLB   C4B12852  22.480  18.640  21.070
  536BOLB   NC212853  22.420  15.790  22.660
  536BOLB   PO212854  22.620  16.210  22.360
  536BOLB   GL312855  22.380  16.470  21.990
  536BOLB   GL412856  22.670  16.680  21.910
  536BOLB   C1C12857  22.020  16.750  21.820
  536BOLB   C2C12858  21.840  16.760  21.360
  536BOLB   C3C12859  21.500  16.710  21.140
  536BOLB   C4C12860  21.130  17.030  21.090
  536BOLB   C1D12861  22.510  16.640  21.570
  536BOLB   C2D12862  22.380  16.910  21.270
  536BOLB   C3D12863  22.140  17.070  20.890
  536BOLB   C4D12864  22.100  17.430  20.560
  537BOLB   NC112865  23.890  20.120  17.530
  537BOLB   PO112866  24.370  19.960  17.790
  537BOLB   GL112867  24.810  19.900  18.000
  537BOLB   GL212868  24.840  20.190  18.270
  537BOLB   C1A12869  25.110  19.560  17.960
  537BOLB   C2A12870  25.370  19.280  17.950
  537BOLB   C3A12871  25.720  19.070  18.030
  537BOLB   C4A12872  25.860  18.800  18.310
  537BOLB   C1B12873  24.910  20.030  18.720
  537BOLB   C2B12874  25.250  19.830  19.020
  537BOLB   C3B12875  25.270  19.350  19.030
  537BOLB   C4B12876  25.170  18.940  19.200
  537BOLB   NC212877  27.100  18.560  20.540
  537BOLB   PO212878  26.890  18.720  20.760
  537BOLB   GL312879  26.570  18.720  20.410
  537BOLB   GL412880  26.380  18.470  20.470
  537BOLB   C1C12881  26.540  18.920  19.910
  537BOLB   C2C12882  26.500  18.910  19.530
  537BOLB   C3C12883  26.220  18.850  19.110
  537BOLB   C4C12884  25.900  18.660  18.740
  537BOLB   C1D12885  26.060  18.790  20.280
  537BOLB   C2D12886  26.040  19.100  19.930
  537BOLB   C3D12887  26.090  19.230  19.560
  537BOLB   C4D12888  25.750  19.490  19.350
  538BOLB   NC112889  19.200  18.280  19.980
  538BOLB   PO112890  19.430  18.630  19.960
  538BOLB   GL112891  19.640  18.370  20.310
  538BOLB   GL212892  19.450  18.200  20.410
  538BOLB   C1A12893  19.990  18.400  20.630
  538BOLB   C2A12894  20.030  18.440  21.050
  538BOLB   C3A12895  19.900  18.590  21.420
  538BOLB   C4A12896  19.810  18.380  21.760
  538BOLB   C1B12897  19.660  18.110  20.850
  538BOLB   C2B12898  19.790  18.080  21.260
  538BOLB   C3B12899  19.610  17.940  21.600
  538BOLB   C4B12900  19.490  17.780  22.000
  538BOLB   NC212901  19.150  16.570  24.250
  538BOLB   PO212902  19.160  16.930  23.930
  538BOLB   GL312903  19.320  17.240  23.510
  538BOLB   GL412904  18.990  17.250  23.240
  538BOLB   C1C12905  19.400  17.360  23.070
  538BOLB   C2C12906  19.580  17.550  22.700
  538BOLB   C3C12907  19.600  17.980  22.500
  538BOLB   C4C12908  19.630  18.190  22.160
  538BOLB   C1D12909  19.040  17.620  22.870
  538BOLB   C2D12910  19.150  18.060  22.810
  538BOLB   C3D12911  19.330  18.440  22.710
  538BOLB   C4D12912  19.210  18.780  22.320
  539BOLB   NC112913  21.670  22.910  19.860
  539BOLB   PO112914  21.640  23.000  20.350
  539BOLB   GL112915  21.740  23.280  20.690
  539BOLB   GL212916  21.800  23.650  20.620
  539BOLB   C1A12917  21.620  23.440  21.080
  539BOLB   C2A12918  21.600  23.680  21.310
  539BOLB   C3A12919  21.600  23.610  21.710
  539BOLB   C4A12920  21.370  23.480  22.160
  539BOLB   C1B12921  22.020  23.720  21.070
  539BOLB   C2B12922  22.070  23.770  21.520
  539BOLB   C3B12923  22.050  23.670  21.910
  539BOLB   C4B12924  22.070  23.300  22.170
  539BOLB   NC212925  20.930  23.010  24.260
  539BOLB   PO212926  21.170  23.400  24.290
  539BOLB   GL312927  21.260  23.180  23.870
  539BOLB   GL412928  21.250  23.500  23.780
  539BOLB   C1C12929  21.100  22.910  23.550
  539BOLB   C2C12930  21.440  22.780  23.210
  539BOLB   C3C12931  21.460  22.800  22.760
  539BOLB   C4C12932  21.220  23.080  22.460
  539BOLB   C1D12933  21.410  23.280  23.430
  539BOLB   C2D12934  21.370  23.280  23.050
  539BOLB   C3D12935  20.980  23.130  22.910
  539BOLB   C4D12936  20.900  22.700  22.790
  540BOLB   NC112937  18.610  14.180  17.090
  540BOLB   PO112938  18.710  14.280  17.480
  540BOLB   GL112939  18.890  14.030  17.660
  540BOLB   GL212940  19.170  13.880  17.750
  540BOLB   C1A12941  18.820  13.650  17.940
  540BOLB   C2A12942  18.740  13.290  18.160
  540BOLB   C3A12943  19.040  12.920  18.340
  540BOLB   C4A12944  19.360  12.830  18.680
  540BOLB   C1B12945  19.390  13.500  17.640
  540BOLB   C2B12946  19.620  13.130  17.520
  540BOLB   C3B12947  19.660  12.730  17.570
  540BOLB   C4B12948  19.580  12.330  17.650
  540BOLB   NC212949  20.590  10.570  19.330
  540BOLB   PO212950  20.740  10.910  19.610
  540BOLB   GL312951  20.590  11.250  19.430
  540BOLB   GL412952  20.690  11.600  19.570
  540BOLB   C1C12953  20.320  11.430  19.070
  540BOLB   C2C12954  20.240  11.860  19.030
  540BOLB   C3C12955  19.890  12.210  18.930
  540BOLB   C4C12956  19.640  12.480  18.760
  540BOLB   C1D12957  20.520  12.060  19.420
  540BOLB   C2D12958  20.330  12.360  19.090
  540BOLB   C3D12959  20.170  12.670  18.830
  540BOLB   C4D12960  20.110  12.950  18.430
  541BOLB   NC112961  17.780  16.780  18.710
  541BOLB   PO112962  17.930  16.710  19.140
  541BOLB   GL112963  17.840  16.610  19.500
  541BOLB   GL212964  17.950  16.450  19.810
  541BOLB   C1A12965  17.480  16.560  19.880
  541BOLB   C2A12966  17.560  16.420  20.160
  541BOLB   C3A12967  17.560  16.230  20.540
  541BOLB   C4A12968  17.650  16.100  21.050
  541BOLB   C1B12969  18.050  16.150  20.110
  541BOLB   C2B12970  18.060  16.000  20.530
  541BOLB   C3B12971  18.250  15.630  20.730
  541BOLB   C4B12972  18.250  15.280  21.000
  541BOLB   NC212973  17.650  14.570  23.250
  541BOLB   PO212974  17.770  14.950  23.230
  541BOLB   GL312975  17.640  15.040  22.830
  541BOLB   GL412976  17.430  14.810  22.630
  541BOLB   C1C12977  17.760  15.340  22.560
  541BOLB   C2C12978  17.500  15.470  22.190
  541BOLB   C3C12979  17.320  15.680  21.820
  541BOLB   C4C12980  17.420  15.820  21.350
  541BOLB   C1D12981  17.190  14.680  22.250
  541BOLB   C2D12982  17.210  14.810  21.770
  541BOLB   C3D12983  17.130  14.840  21.380
  541BOLB   C4D12984  17.450  14.780  21.130
  542BOLB   NC112985  11.220  24.030  16.030
  542BOLB   PO112986  11.440  23.870  16.490
  542BOLB   GL112987  11.030  23.990  16.570
  542BOLB   GL212988  10.710  24.190  16.320
  542BOLB   C1A12989  10.580  24.190  16.800
  542BOLB   C2A12990  10.310  24.340  17.030
  542BOLB   C3A12991  10.050  24.240  17.160
  542BOLB   C4A12992   9.610  24.220  17.340
  542BOLB   C1B12993  10.310  24.460  16.420
  542BOLB   C2B12994  10.150  24.780  16.650
  542BOLB   C3B12995  10.120  25.180  16.810
  542BOLB   C4B12996  10.370  25.390  17.150
  542BOLB   NC212997   7.820  24.830  18.910
  542BOLB   PO212998   7.980  24.970  18.570
  542BOLB   GL312999   8.270  24.620  18.600
  542BOLB   GL413000   8.260  24.260  18.390
  542BOLB   C1C13001   8.670  24.450  18.670
  542BOLB   C2C13002   8.970  24.510  18.270
  542BOLB   C3C13003   9.240  24.480  17.980
  542BOLB   C4C13004   9.280  24.350  17.640
  542BOLB   C1D13005   8.460  24.290  17.950
  542BOLB   C2D13006   8.780  24.200  17.780
  542BOLB   C3D13007   9.020  24.090  17.360
  542BOLB   C4D13008   9.010  24.070  17.000
  543BOLB   NC113009  25.860  23.880  16.760
  543BOLB   PO113010  25.890  23.600  17.070
  543BOLB   GL113011  26.310  23.740  17.170
  543BOLB   GL213012  26.560  23.400  17.020
  543BOLB   C1A13013  26.460  23.930  17.540
  543BOLB   C2A13014  26.810  24.090  17.790
  543BOLB   C3A13015  27.060  24.120  18.140
  543BOLB   C4A13016  27.280  24.390  18.310
  543BOLB   C1B13017  26.980  23.250  17.020
  543BOLB   C2B13018  27.320  23.040  16.890
  543BOLB   C3B13019  27.780  23.090  16.870
  543BOLB   C4B13020  28.020  23.150  17.270
  543BOLB   NC213021  29.330  24.560  19.470
  543BOLB   PO213022  29.320  24.190  19.280
  543BOLB   GL313023  29.120  24.230  18.730
  543BOLB   GL413024  29.220  24.520  18.590
  543BOLB   C1C13025  28.630  24.240  18.640
  543BOLB   C2C13026  28.220  24.200  18.420
  543BOLB   C3C13027  27.940  24.550  18.270
  543BOLB   C4C13028  27.610  24.660  18.280
  543BOLB   C1D13029  28.890  24.450  18.200
  543BOLB   C2D13030  29.030  24.610  17.780
  543BOLB   C3D13031  28.930  24.960  17.510
  543BOLB   C4D13032  28.750  25.430  17.330
  544BOLB   NC113033  13.370  21.690  19.130
  544BOLB   PO113034  12.970  21.700  19.030
  544BOLB   GL113035  12.690  21.590  19.250
  544BOLB   GL213036  12.320  21.540  19.260
  544BOLB   C1A13037  12.650  21.640  19.690
  544BOLB   C2A13038  12.560  21.840  20.090
  544BOLB   C3A13039  12.540  22.000  20.530
  544BOLB   C4A13040  12.430  22.160  20.960
  544BOLB   C1B13041  11.950  21.710  19.630
  544BOLB   C2B13042  11.680  21.680  19.970
  544BOLB   C3B13043  11.610  21.850  20.390
  544BOLB   C4B13044  11.300  21.790  20.580
  544BOLB   NC213045  11.910  23.250  23.030
  544BOLB   PO213046  11.930  22.810  23.280
  544BOLB   GL313047  11.820  22.620  22.890
  544BOLB   GL413048  11.630  22.860  22.720
  544BOLB   C1C13049  11.930  22.640  22.430
  544BOLB   C2C13050  12.030  22.530  21.990
  544BOLB   C3C13051  12.250  22.410  21.600
  544BOLB   C4C13052  12.520  22.220  21.430
  544BOLB   C1D13053  11.670  23.100  22.430
  544BOLB   C2D13054  11.770  22.960  22.050
  544BOLB   C3D13055  11.780  23.190  21.600
  544BOLB   C4D13056  11.720  23.350  21.260
  545BOLB   NC113057  22.480  15.560  13.650
  545BOLB   PO113058  22.640  15.190  13.670
  545BOLB   GL113059  22.900  14.870  13.920
  545BOLB   GL213060  23.160  14.940  14.100
  545BOLB   C1A13061  23.120  14.440  13.980
  545BOLB   C2A13062  23.340  14.100  13.880
  545BOLB   C3A13063  23.810  13.870  13.810
  545BOLB   C4A13064  24.190  13.870  13.630
  545BOLB   C1B13065  23.330  14.840  13.690
  545BOLB   C2B13066  23.600  14.550  13.630
  545BOLB   C3B13067  24.010  14.380  13.530
  545BOLB   C4B13068  24.330  14.680  13.350
  545BOLB   NC213069  26.330  13.740  11.920
  545BOLB   PO213070  26.040  13.470  12.040
  545BOLB   GL313071  25.530  13.540  12.120
  545BOLB   GL413072  25.520  13.840  12.070
  545BOLB   C1C13073  25.030  13.660  12.250
  545BOLB   C2C13074  24.920  13.800  12.640
  545BOLB   C3C13075  24.760  14.020  13.010
  545BOLB   C4C13076  24.390  14.080  13.290
  545BOLB   C1D13077  25.490  14.240  11.950
  545BOLB   C2D13078  25.190  14.460  11.820
  545BOLB   C3D13079  25.080  14.730  11.630
  545BOLB   C4D13080  24.730  14.910  11.510
  546BOLB   NC113081  19.240  13.590  16.410
  546BOLB   PO113082  19.710  13.630  16.450
  546BOLB   GL113083  19.980  13.300  16.500
  546BOLB   GL213084  19.830  13.000  16.520
  546BOLB   C1A13085  20.470  13.310  16.700
  546BOLB   C2A13086  20.500  13.130  17.060
  546BOLB   C3A13087  20.580  12.760  17.210
  546BOLB   C4A13088  20.660  12.610  17.580
  546BOLB   C1B13089  19.780  12.920  16.970
  546BOLB   C2B13090  20.050  12.810  17.300
  546BOLB   C3B13091  20.150  12.620  17.650
  546BOLB   C4B13092  19.940  12.450  17.970
  546BOLB   NC213093  20.210  10.480  18.460
  546BOLB   PO213094  20.490  10.570  18.790
  546BOLB   GL313095  20.550  10.990  18.590
  546BOLB   GL413096  20.700  10.960  18.380
  546BOLB   C1C13097  20.430  11.330  18.570
  546BOLB   C2C13098  20.340  11.620  18.330
  546BOLB   C3C13099  20.490  11.940  17.940
  546BOLB   C4C13100  20.640  12.300  17.830
  546BOLB   C1D13101  20.630  11.280  18.080
  546BOLB   C2D13102  20.490  11.470  17.690
  546BOLB   C3D13103  20.540  11.890  17.480
  546BOLB   C4D13104  20.500  12.280  17.180
  547BOLB   NC113105  15.140  22.740  20.030
  547BOLB   PO113106  14.800  22.580  20.040
  547BOLB   GL113107  14.660  22.860  20.250
  547BOLB   GL213108  14.890  22.880  20.420
  547BOLB   C1A13109  14.440  23.170  20.560
  547BOLB   C2A13110  14.240  23.280  20.950
  547BOLB   C3A13111  14.140  23.190  21.410
  547BOLB   C4A13112  14.080  23.330  21.750
  547BOLB   C1B13113  14.670  22.850  20.930
  547BOLB   C2B13114  14.590  23.090  21.240
  547BOLB   C3B13115  14.700  23.200  21.600
  547BOLB   C4B13116  14.870  23.200  22.000
  547BOLB   NC213117  13.460  24.990  23.410
  547BOLB   PO213118  13.160  25.270  23.090
  547BOLB   GL313119  13.410  24.950  22.870
  547BOLB   GL413120  13.290  24.880  22.470
  547BOLB   C1C13121  13.790  24.850  22.640
  547BOLB   C2C13122  13.920  24.460  22.410
  547BOLB   C3C13123  14.000  24.080  22.220
  547BOLB   C4C13124  14.040  23.800  21.860
  547BOLB   C1D13125  13.620  24.760  22.120
  547BOLB   C2D13126  13.780  24.460  21.820
  547BOLB   C3D13127  14.210  24.300  21.750
  547BOLB   C4D13128  14.580  24.070  21.760
  548BOLB   NC113129  13.820  23.620  18.680
  548BOLB   PO113130  14.270  23.710  18.890
  548BOLB   GL113131  13.900  23.800  19.240
  548BOLB   GL213132  13.870  23.540  19.390
  548BOLB   C1A13133  13.770  24.270  19.460
  548BOLB   C2A13134  13.780  24.630  19.640
  548BOLB   C3A13135  13.660  24.730  20.050
  548BOLB   C4A13136  13.680  24.920  20.440
  548BOLB   C1B13137  13.820  23.840  19.760
  548BOLB   C2B13138  13.850  24.080  20.090
  548BOLB   C3B13139  13.730  24.370  20.480
  548BOLB   C4B13140  13.830  24.590  20.900
  548BOLB   NC213141  12.480  25.750  22.490
  548BOLB   PO213142  12.110  26.000  22.270
  548BOLB   GL313143  12.390  25.780  21.950
  548BOLB   GL413144  12.180  25.610  21.810
  548BOLB   C1C13145  12.590  25.420  21.760
  548BOLB   C2C13146  12.950  25.180  21.540
  548BOLB   C3C13147  13.140  25.250  21.090
  548BOLB   C4C13148  13.530  25.090  20.830
  548BOLB   C1D13149  12.180  25.160  21.970
  548BOLB   C2D13150  12.150  24.690  22.030
  548BOLB   C3D13151  12.280  24.490  21.760
  548BOLB   C4D13152  12.380  24.550  21.390
  549BOLB   NC113153  26.450  23.210  14.180
  549BOLB   PO113154  26.630  23.140  14.550
  549BOLB   GL113155  27.050  22.990  14.540
  549BOLB   GL213156  27.350  23.210  14.620
  549BOLB   C1A13157  27.420  22.790  14.230
  549BOLB   C2A13158  27.700  22.480  14.100
  549BOLB   C3A13159  28.080  22.320  14.120
  549BOLB   C4A13160  28.480  22.070  14.000
  549BOLB   C1B13161  27.640  22.880  14.770
  549BOLB   C2B13162  27.910  22.680  15.120
  549BOLB   C3B13163  28.130  22.420  15.470
  549BOLB   C4B13164  28.300  22.390  15.880
  549BOLB   NC213165  30.190  21.070  14.120
  549BOLB   PO213166  30.210  21.420  14.220
  549BOLB   GL313167  30.000  21.680  14.510
  549BOLB   GL413168  30.000  22.070  14.350
  549BOLB   C1C13169  29.640  21.800  14.680
  549BOLB   C2C13170  29.280  21.660  14.680
  549BOLB   C3C13171  29.050  21.550  14.500
  549BOLB   C4C13172  28.570  21.740  14.290
  549BOLB   C1D13173  29.580  22.230  14.190
  549BOLB   C2D13174  29.190  22.460  14.120
  549BOLB   C3D13175  28.790  22.540  13.970
  549BOLB   C4D13176  28.440  22.790  14.050
  550BOLB   NC113177  20.520  14.490  16.280
  550BOLB   PO113178  20.220  14.320  16.620
  550BOLB   GL113179  20.340  14.240  17.020
  550BOLB   GL213180  20.750  14.220  17.060
  550BOLB   C1A13181  20.200  13.940  17.280
  550BOLB   C2A13182  20.430  13.590  17.540
  550BOLB   C3A13183  20.490  13.490  17.840
  550BOLB   C4A13184  20.630  13.120  18.070
  550BOLB   C1B13185  21.030  13.850  17.040
  550BOLB   C2B13186  21.350  13.510  17.030
  550BOLB   C3B13187  21.630  13.060  17.100
  550BOLB   C4B13188  22.020  12.900  17.180
  550BOLB   NC213189  21.440  11.670  20.400
  550BOLB   PO213190  21.190  11.530  20.140
  550BOLB   GL313191  21.160  11.680  19.740
  550BOLB   GL413192  21.320  11.910  19.650
  550BOLB   C1C13193  21.070  11.810  19.260
  550BOLB   C2C13194  20.820  12.130  19.020
  550BOLB   C3C13195  20.700  12.480  18.730
  550BOLB   C4C13196  20.640  12.870  18.440
  550BOLB   C1D13197  20.940  12.220  19.570
  550BOLB   C2D13198  20.730  12.620  19.680
  550BOLB   C3D13199  20.820  13.000  19.970
  550BOLB   C4D13200  21.180  13.110  20.230
  551BOLB   NC113201  18.090  24.210  19.500
  551BOLB   PO113202  18.110  24.690  19.800
  551BOLB   GL113203  18.080  24.720  20.370
  551BOLB   GL213204  18.220  24.440  20.540
  551BOLB   C1A13205  18.220  24.890  20.790
  551BOLB   C2A13206  17.970  24.750  21.220
  551BOLB   C3A13207  17.880  24.480  21.620
  551BOLB   C4A13208  18.220  24.160  21.870
  551BOLB   C1B13209  18.430  24.520  21.010
  551BOLB   C2B13210  18.380  24.470  21.420
  551BOLB   C3B13211  18.640  24.440  21.670
  551BOLB   C4B13212  18.770  24.380  22.090
  551BOLB   NC213213  18.380  24.370  24.360
  551BOLB   PO213214  18.470  24.740  24.180
  551BOLB   GL313215  18.630  24.650  23.710
  551BOLB   GL413216  18.430  24.360  23.850
  551BOLB   C1C13217  18.620  24.370  23.350
  551BOLB   C2C13218  18.770  24.150  22.990
  551BOLB   C3C13219  18.620  24.190  22.530
  551BOLB   C4C13220  18.400  24.110  22.220
  551BOLB   C1D13221  18.850  24.140  23.790
  551BOLB   C2D13222  19.040  24.160  23.560
  551BOLB   C3D13223  19.210  24.280  23.200
  551BOLB   C4D13224  19.480  24.320  22.740
  552BOLB   NC113225  13.660  21.450   1.640
  552BOLB   PO113226  13.310  21.420   1.880
  552BOLB   GL113227  13.460  21.220   2.250
  552BOLB   GL213228  13.540  20.860   2.310
  552BOLB   C1A13229  13.380  21.200   2.670
  552BOLB   C2A13230  13.110  20.870   3.020
  552BOLB   C3A13231  12.870  20.510   3.170
  552BOLB   C4A13232  12.860  20.150   3.210
  552BOLB   C1B13233  13.560  20.730   2.760
  552BOLB   C2B13234  13.750  20.740   3.220
  552BOLB   C3B13235  13.930  20.680   3.570
  552BOLB   C4B13236  14.180  20.740   4.000
  552BOLB   NC213237  11.080  19.590   2.780
  552BOLB   PO213238  11.270  19.210   2.750
  552BOLB   GL313239  11.380  19.330   3.090
  552BOLB   GL413240  11.280  19.590   3.300
  552BOLB   C1C13241  11.740  19.390   3.220
  552BOLB   C2C13242  12.080  19.260   3.080
  552BOLB   C3C13243  12.510  19.440   3.200
  552BOLB   C4C13244  12.680  19.840   3.380
  552BOLB   C1D13245  11.620  19.530   3.680
  552BOLB   C2D13246  11.670  19.610   4.130
  552BOLB   C3D13247  11.790  19.410   4.480
  552BOLB   C4D13248  12.050  19.400   4.820
  553BOLB   NC113249  22.690  17.280  10.580
  553BOLB   PO113250  23.110  17.200  10.280
  553BOLB   GL113251  23.360  17.020  10.040
  553BOLB   GL213252  23.140  16.780   9.960
  553BOLB   C1A13253  23.800  16.860   9.940
  553BOLB   C2A13254  24.160  16.720   9.720
  553BOLB   C3A13255  24.380  16.600   9.410
  553BOLB   C4A13256  24.730  16.380   9.220
  553BOLB   C1B13257  23.440  16.440   9.960
  553BOLB   C2B13258  23.850  16.400  10.130
  553BOLB   C3B13259  24.280  16.180  10.190
  553BOLB   C4B13260  24.650  16.110  10.260
  553BOLB   NC213261  27.220  16.120   8.520
  553BOLB   PO213262  27.180  15.910   8.920
  553BOLB   GL313263  26.820  16.100   8.930
  553BOLB   GL413264  26.900  16.400   8.790
  553BOLB   C1C13265  26.410  16.190   8.840
  553BOLB   C2C13266  25.960  16.460   8.900
  553BOLB   C3C13267  25.490  16.320   8.900
  553BOLB   C4C13268  25.030  16.270   8.970
  553BOLB   C1D13269  26.820  16.720   9.080
  553BOLB   C2D13270  26.550  16.950   9.410
  553BOLB   C3D13271  26.460  17.360   9.520
  553BOLB   C4D13272  26.290  17.780   9.550
  554BOLB   NC113273  16.830  21.590  20.600
  554BOLB   PO113274  17.300  21.720  20.580
  554BOLB   GL113275  17.400  21.670  20.930
  554BOLB   GL213276  17.070  21.760  21.080
  554BOLB   C1A13277  17.560  21.790  21.310
  554BOLB   C2A13278  17.940  21.900  21.480
  554BOLB   C3A13279  18.160  22.170  21.800
  554BOLB   C4A13280  18.230  22.170  22.210
  554BOLB   C1B13281  17.030  21.300  21.210
  554BOLB   C2B13282  16.730  20.960  21.510
  554BOLB   C3B13283  16.500  20.780  21.770
  554BOLB   C4B13284  16.160  20.950  21.820
  554BOLB   NC213285  18.620  23.230  24.380
  554BOLB   PO213286  18.750  22.900  24.430
  554BOLB   GL313287  18.600  22.700  24.090
  554BOLB   GL413288  18.420  22.860  23.930
  554BOLB   C1C13289  18.760  22.430  23.840
  554BOLB   C2C13290  18.600  22.270  23.360
  554BOLB   C3C13291  18.230  22.280  22.990
  554BOLB   C4C13292  18.080  22.310  22.600
  554BOLB   C1D13293  18.600  23.210  23.710
  554BOLB   C2D13294  18.850  23.250  23.270
  554BOLB   C3D13295  19.040  23.350  22.740
  554BOLB   C4D13296  19.280  23.400  22.450
  555BOLB   NC113297  21.150  20.530  20.050
  555BOLB   PO113298  21.090  20.830  20.400
  555BOLB   GL113299  21.090  20.430  20.650
  555BOLB   GL213300  20.920  20.230  20.440
  555BOLB   C1A13301  21.420  20.320  20.910
  555BOLB   C2A13302  21.650  20.250  21.290
  555BOLB   C3A13303  21.870  20.080  21.670
  555BOLB   C4A13304  21.730  19.770  21.910
  555BOLB   C1B13305  21.000  20.010  20.830
  555BOLB   C2B13306  21.400  19.740  20.920
  555BOLB   C3B13307  21.580  19.740  21.250
  555BOLB   C4B13308  21.980  19.760  21.300
  555BOLB   NC213309  20.630  19.160  24.110
  555BOLB   PO213310  21.090  19.060  24.090
  555BOLB   GL313311  21.310  19.100  23.660
  555BOLB   GL413312  21.420  19.410  23.670
  555BOLB   C1C13313  21.360  19.090  23.230
  555BOLB   C2C13314  21.480  19.100  22.810
  555BOLB   C3C13315  21.810  19.240  22.590
  555BOLB   C4C13316  21.730  19.500  22.220
  555BOLB   C1D13317  21.570  19.620  23.300
  555BOLB   C2D13318  21.380  19.590  22.930
  555BOLB   C3D13319  21.370  19.440  22.500
  555BOLB   C4D13320  21.170  19.130  22.130
  556BOLB   NC113321  21.210  14.940  16.480
  556BOLB   PO113322  21.010  14.530  16.270
  556BOLB   GL113323  20.970  14.110  16.160
  556BOLB   GL213324  21.330  14.080  16.190
  556BOLB   C1A13325  20.920  13.780  16.470
  556BOLB   C2A13326  20.980  13.370  16.680
  556BOLB   C3A13327  21.090  13.020  16.960
  556BOLB   C4A13328  21.100  12.790  17.360
  556BOLB   C1B13329  21.270  13.550  16.100
  556BOLB   C2B13330  21.420  13.200  16.410
  556BOLB   C3B13331  21.510  12.920  16.540
  556BOLB   C4B13332  21.850  12.850  16.700
  556BOLB   NC213333  22.360  11.950  19.480
  556BOLB   PO213334  22.660  12.000  19.250
  556BOLB   GL313335  22.310  12.270  19.060
  556BOLB   GL413336  22.340  12.440  19.340
  556BOLB   C1C13337  21.930  12.330  18.890
  556BOLB   C2C13338  21.590  12.400  18.540
  556BOLB   C3C13339  21.310  12.360  18.160
  556BOLB   C4C13340  21.280  12.480  17.690
  556BOLB   C1D13341  22.360  12.840  19.660
  556BOLB   C2D13342  22.150  13.180  19.860
  556BOLB   C3D13343  21.990  13.420  19.730
  556BOLB   C4D13344  21.910  13.850  19.550
  557BOLB   NC113345  22.590  15.580  15.760
  557BOLB   PO113346  22.780  15.630  15.370
  557BOLB   GL113347  23.020  15.180  15.410
  557BOLB   GL213348  22.900  15.010  15.680
  557BOLB   C1A13349  23.360  14.970  15.530
  557BOLB   C2A13350  23.630  14.960  15.830
  557BOLB   C3A13351  23.960  15.070  16.030
  557BOLB   C4A13352  24.320  14.950  16.120
  557BOLB   C1B13353  22.830  14.740  16.060
  557BOLB   C2B13354  22.970  14.380  16.200
  557BOLB   C3B13355  23.160  13.950  16.170
  557BOLB   C4B13356  23.370  13.560  16.380
  557BOLB   NC213357  25.850  13.500  17.670
  557BOLB   PO213358  25.630  13.100  17.460
  557BOLB   GL313359  25.420  13.500  17.340
  557BOLB   GL413360  25.220  13.420  17.100
  557BOLB   C1C13361  25.280  13.870  16.960
  557BOLB   C2C13362  25.170  14.220  16.740
  557BOLB   C3C13363  24.860  14.460  16.650
  557BOLB   C4C13364  24.570  14.730  16.430
  557BOLB   C1D13365  24.810  13.460  16.990
  557BOLB   C2D13366  24.440  13.600  16.920
  557BOLB   C3D13367  24.260  13.840  16.480
  557BOLB   C4D13368  24.170  13.960  16.160
  558BOLB   NC113369  20.820  15.570  17.170
  558BOLB   PO113370  20.880  15.230  17.360
  558BOLB   GL113371  21.160  15.170  17.610
  558BOLB   GL213372  21.490  15.030  17.560
  558BOLB   C1A13373  21.220  14.750  17.860
  558BOLB   C2A13374  21.320  14.310  17.870
  558BOLB   C3A13375  21.500  14.040  18.140
  558BOLB   C4A13376  21.800  13.760  18.310
  558BOLB   C1B13377  21.690  14.680  17.850
  558BOLB   C2B13378  21.710  14.490  18.210
  558BOLB   C3B13379  21.910  14.330  18.560
  558BOLB   C4B13380  22.290  14.210  18.750
  558BOLB   NC213381  22.230  12.730  20.370
  558BOLB   PO213382  21.880  12.690  20.500
  558BOLB   GL313383  21.780  12.750  20.080
  558BOLB   GL413384  21.460  12.690  20.180
  558BOLB   C1C13385  21.720  12.910  19.700
  558BOLB   C2C13386  21.920  13.130  19.300
  558BOLB   C3C13387  21.920  13.270  18.890
  558BOLB   C4C13388  21.950  13.610  18.700
  558BOLB   C1D13389  21.200  12.790  19.780
  558BOLB   C2D13390  21.160  13.110  19.380
  558BOLB   C3D13391  21.020  13.470  19.260
  558BOLB   C4D13392  21.010  13.900  19.070
  559BOLB   NC113393  19.330  29.110  17.010
  559BOLB   PO113394  19.480  29.220  16.650
  559BOLB   GL113395  19.630  29.570  16.770
  559BOLB   GL213396  19.790  29.460  17.050
  559BOLB   C1A13397  19.790  29.950  16.890
  559BOLB   C2A13398  19.750  30.370  16.790
  559BOLB   C3A13399  19.540  30.780  16.790
  559BOLB   C4A13400  19.230  31.030  16.790
  559BOLB   C1B13401  19.980  29.630  17.290
  559BOLB   C2B13402  20.110  30.030  17.300
  559BOLB   C3B13403  20.030  30.220  17.680
  559BOLB   C4B13404  19.980  30.110  18.120
  559BOLB   NC213405  20.200  33.010  17.560
  559BOLB   PO213406  20.240  33.200  17.090
  559BOLB   GL313407  20.230  32.830  16.900
  559BOLB   GL413408  20.370  32.590  16.850
  559BOLB   C1C13409  19.880  32.480  16.990
  559BOLB   C2C13410  19.480  32.330  16.840
  559BOLB   C3C13411  19.100  31.990  16.800
  559BOLB   C4C13412  19.230  31.540  16.870
  559BOLB   C1D13413  20.650  32.380  17.170
  559BOLB   C2D13414  20.720  32.330  17.620
  559BOLB   C3D13415  21.190  32.220  17.650
  559BOLB   C4D13416  21.470  32.030  17.410
  560BOLB   NC113417  15.000  11.720  12.580
  560BOLB   PO113418  15.470  11.650  12.820
  560BOLB   GL113419  15.330  11.250  12.750
  560BOLB   GL213420  15.110  11.160  12.490
  560BOLB   C1A13421  15.510  10.950  12.820
  560BOLB   C2A13422  15.570  10.490  12.910
  560BOLB   C3A13423  15.520  10.100  13.040
  560BOLB   C4A13424  15.380   9.800  13.280
  560BOLB   C1B13425  14.600  11.140  12.440
  560BOLB   C2B13426  14.310  10.810  12.220
  560BOLB   C3B13427  14.020  10.530  12.180
  560BOLB   C4B13428  13.740  10.170  12.230
  560BOLB   NC213429  14.370   7.700  12.980
  560BOLB   PO213430  14.120   7.720  12.630
  560BOLB   GL313431  14.180   8.180  12.900
  560BOLB   GL413432  14.030   8.460  12.540
  560BOLB   C1C13433  14.420   8.510  13.170
  560BOLB   C2C13434  14.920   8.570  13.170
  560BOLB   C3C13435  15.270   8.950  13.300
  560BOLB   C4C13436  15.340   9.360  13.330
  560BOLB   C1D13437  14.390   8.770  12.730
  560BOLB   C2D13438  14.660   9.020  13.020
  560BOLB   C3D13439  14.810   9.260  13.280
  560BOLB   C4D13440  14.950   9.590  13.550
  561BOLB   NC113441  10.700  20.260  18.400
  561BOLB   PO113442  11.040  20.440  18.550
  561BOLB   GL113443  10.760  20.360  18.920
  561BOLB   GL213444  10.790  20.030  18.900
  561BOLB   C1A13445  10.450  20.540  19.200
  561BOLB   C2A13446  10.410  20.340  19.570
  561BOLB   C3A13447  10.120  20.230  19.900
  561BOLB   C4A13448   9.870  20.190  20.220
  561BOLB   C1B13449  10.690  20.060  19.310
  561BOLB   C2B13450  10.510  19.940  19.850
  561BOLB   C3B13451  10.700  19.810  20.140
  561BOLB   C4B13452  11.000  19.870  20.300
  561BOLB   NC213453   8.570  18.640  22.220
  561BOLB   PO213454   8.670  18.720  21.720
  561BOLB   GL313455   8.920  18.990  21.420
  561BOLB   GL413456   9.150  19.160  21.550
  561BOLB   C1C13457   8.880  19.390  21.150
  561BOLB   C2C13458   9.080  19.760  21.050
  561BOLB   C3C13459   9.490  19.800  21.030
  561BOLB   C4C13460   9.770  19.950  20.640
  561BOLB   C1D13461   9.370  19.330  21.100
  561BOLB   C2D13462   9.660  19.450  20.630
  561BOLB   C3D13463   9.920  19.330  20.340
  561BOLB   C4D13464  10.310  19.270  20.090
  562BOLB   NC113465   7.000  17.080  20.170
  562BOLB   PO113466   7.000  17.540  20.290
  562BOLB   GL113467   6.930  17.620  19.860
  562BOLB   GL213468   7.150  17.880  19.650
  562BOLB   C1A13469   7.010  17.450  19.480
  562BOLB   C2A13470   7.250  17.180  19.130
  562BOLB   C3A13471   7.550  16.830  19.220
  562BOLB   C4A13472   7.760  16.580  18.970
  562BOLB   C1B13473   7.530  18.190  19.600
  562BOLB   C2B13474   7.720  18.530  19.300
  562BOLB   C3B13475   7.960  18.790  19.000
  562BOLB   C4B13476   7.900  19.180  18.720
  562BOLB   NC213477   6.530  14.880  17.190
  562BOLB   PO213478   6.910  15.010  17.450
  562BOLB   GL313479   7.020  15.380  17.660
  562BOLB   GL413480   7.110  15.210  17.910
  562BOLB   C1C13481   7.320  15.650  17.720
  562BOLB   C2C13482   7.370  16.000  17.890
  562BOLB   C3C13483   7.550  16.240  18.210
  562BOLB   C4C13484   7.820  16.480  18.500
  562BOLB   C1D13485   7.580  15.260  18.060
  562BOLB   C2D13486   7.980  15.320  18.280
  562BOLB   C3D13487   8.120  14.950  18.530
  562BOLB   C4D13488   8.200  14.590  18.740
  563BOLB   NC113489  15.280  27.800   9.020
  563BOLB   PO113490  15.140  28.070   9.430
  563BOLB   GL113491  15.010  28.260   9.030
  563BOLB   GL213492  15.200  28.510   9.070
  563BOLB   C1A13493  14.790  28.630   8.920
  563BOLB   C2A13494  14.790  29.070   8.720
  563BOLB   C3A13495  14.680  29.410   8.410
  563BOLB   C4A13496  14.780  29.420   8.000
  563BOLB   C1B13497  15.210  28.540   8.680
  563BOLB   C2B13498  15.160  28.880   8.420
  563BOLB   C3B13499  14.790  28.990   8.200
  563BOLB   C4B13500  14.690  28.970   7.730
  563BOLB   NC213501  13.690  30.710   6.830
  563BOLB   PO213502  13.360  30.620   6.660
  563BOLB   GL313503  13.500  30.170   6.800
  563BOLB   GL413504  13.290  30.060   6.790
  563BOLB   C1C13505  13.820  30.160   7.210
  563BOLB   C2C13506  14.050  30.140   7.470
  563BOLB   C3C13507  14.260  29.960   7.620
  563BOLB   C4C13508  14.490  29.670   7.720
  563BOLB   C1D13509  13.410  29.860   7.190
  563BOLB   C2D13510  13.740  29.750   7.580
  563BOLB   C3D13511  13.990  29.700   7.920
  563BOLB   C4D13512  14.260  29.630   8.260
  564BOLB   NC113513  16.850  26.890  18.480
  564BOLB   PO113514  16.900  26.840  18.900
  564BOLB   GL113515  16.600  27.050  18.990
  564BOLB   GL213516  16.390  26.830  19.160
  564BOLB   C1A13517  16.350  27.360  19.050
  564BOLB   C2A13518  16.020  27.670  19.310
  564BOLB   C3A13519  15.910  27.880  19.660
  564BOLB   C4A13520  15.840  28.050  20.040
  564BOLB   C1B13521  16.170  27.010  19.480
  564BOLB   C2B13522  16.020  27.180  19.940
  564BOLB   C3B13523  15.680  27.040  20.170
  564BOLB   C4B13524  15.510  27.380  20.350
  564BOLB   NC213525  15.810  29.130  22.040
  564BOLB   PO213526  16.240  29.320  21.900
  564BOLB   GL313527  16.290  29.240  21.460
  564BOLB   GL413528  16.580  29.040  21.430
  564BOLB   C1C13529  16.030  29.320  21.120
  564BOLB   C2C13530  15.930  29.060  20.770
  564BOLB   C3C13531  15.850  28.700  20.560
  564BOLB   C4C13532  15.680  28.430  20.170
  564BOLB   C1D13533  17.030  28.900  21.250
  564BOLB   C2D13534  17.250  28.650  20.920
  564BOLB   C3D13535  17.420  28.480  20.470
  564BOLB   C4D13536  17.640  28.270  20.390
  565BOLB   NC113537  26.160  23.800  16.070
  565BOLB   PO113538  26.320  23.440  16.230
  565BOLB   GL113539  26.660  23.490  16.500
  565BOLB   GL213540  26.760  23.190  16.590
  565BOLB   C1A13541  27.040  23.620  16.740
  565BOLB   C2A13542  27.400  23.560  16.890
  565BOLB   C3A13543  27.720  23.760  16.890
  565BOLB   C4A13544  28.080  23.570  16.950
  565BOLB   C1B13545  27.170  23.020  16.390
  565BOLB   C2B13546  27.630  23.270  16.440
  565BOLB   C3B13547  28.020  23.510  16.470
  565BOLB   C4B13548  28.010  23.950  16.480
  565BOLB   NC213549  30.200  22.040  16.670
  565BOLB   PO213550  30.240  22.520  16.670
  565BOLB   GL313551  29.850  22.630  16.590
  565BOLB   GL413552  29.770  23.030  16.750
  565BOLB   C1C13553  29.450  22.750  16.400
  565BOLB   C2C13554  29.000  22.850  16.460
  565BOLB   C3C13555  28.780  23.150  16.820
  565BOLB   C4C13556  28.420  23.250  16.810
  565BOLB   C1D13557  29.360  23.040  16.800
  565BOLB   C2D13558  29.090  23.000  17.160
  565BOLB   C3D13559  28.620  22.830  17.210
  565BOLB   C4D13560  28.210  22.790  17.620
  566BOLB   NC113561  13.520  12.890  12.280
  566BOLB   PO113562  13.740  12.840  12.690
  566BOLB   GL113563  13.270  12.780  12.730
  566BOLB   GL213564  13.060  12.620  12.960
  566BOLB   C1A13565  12.730  12.760  12.560
  566BOLB   C2A13566  12.330  12.590  12.770
  566BOLB   C3A13567  12.140  12.230  13.010
  566BOLB   C4A13568  12.110  11.810  13.090
  566BOLB   C1B13569  12.780  12.350  12.940
  566BOLB   C2B13570  12.580  12.130  12.680
  566BOLB   C3B13571  12.380  11.810  12.690
  566BOLB   C4B13572  11.850  11.800  12.590
  566BOLB   NC213573  10.100  10.090  12.220
  566BOLB   PO213574  10.660  10.160  12.150
  566BOLB   GL313575  11.070  10.220  12.210
  566BOLB   GL413576  11.360  10.100  12.050
  566BOLB   C1C13577  11.320  10.430  12.440
  566BOLB   C2C13578  11.540  10.850  12.680
  566BOLB   C3C13579  11.670  11.270  12.770
  566BOLB   C4C13580  12.030  11.440  13.010
  566BOLB   C1D13581  11.770  10.290  12.350
  566BOLB   C2D13582  12.160  10.420  12.570
  566BOLB   C3D13583  12.420  10.570  12.930
  566BOLB   C4D13584  12.850  10.840  13.050
  567BOLB   NC113585  20.400  21.410  20.040
  567BOLB   PO113586  20.580  21.400  20.500
  567BOLB   GL113587  20.790  21.280  20.810
  567BOLB   GL213588  20.830  20.950  20.880
  567BOLB   C1A13589  20.760  21.120  21.310
  567BOLB   C2A13590  20.670  21.280  21.750
  567BOLB   C3A13591  20.850  21.450  22.060
  567BOLB   C4A13592  21.050  21.380  22.420
  567BOLB   C1B13593  20.930  20.670  21.250
  567BOLB   C2B13594  20.980  20.480  21.700
  567BOLB   C3B13595  20.940  20.360  22.140
  567BOLB   C4B13596  21.020  20.410  22.530
  567BOLB   NC213597  21.900  22.780  24.290
  567BOLB   PO213598  21.420  22.760  24.220
  567BOLB   GL313599  21.100  22.450  23.920
  567BOLB   GL413600  20.820  22.620  23.950
  567BOLB   C1C13601  20.970  22.260  23.500
  567BOLB   C2C13602  21.290  21.890  23.260
  567BOLB   C3C13603  21.260  21.540  23.010
  567BOLB   C4C13604  21.180  21.200  22.720
  567BOLB   C1D13605  20.680  22.640  23.520
  567BOLB   C2D13606  20.710  22.410  23.120
  567BOLB   C3D13607  20.640  22.160  22.750
  567BOLB   C4D13608  20.300  21.900  22.580
  568BOLB   NC113609  24.360  27.500  16.130
  568BOLB   PO113610  24.730  27.530  15.860
  568BOLB   GL113611  25.190  27.590  15.870
  568BOLB   GL213612  25.070  27.740  15.530
  568BOLB   C1A13613  25.580  27.890  15.930
  568BOLB   C2A13614  25.940  28.070  16.200
  568BOLB   C3A13615  26.340  28.200  16.360
  568BOLB   C4A13616  26.590  28.140  16.730
  568BOLB   C1B13617  25.350  28.000  15.500
  568BOLB   C2B13618  25.870  28.000  15.270
  568BOLB   C3B13619  26.310  28.040  15.340
  568BOLB   C4B13620  26.670  28.340  15.360
  568BOLB   NC213621  28.420  28.550  17.870
  568BOLB   PO213622  28.370  28.430  18.190
  568BOLB   GL313623  27.940  28.320  18.090
  568BOLB   GL413624  27.890  28.390  17.710
  568BOLB   C1C13625  27.700  28.000  18.020
  568BOLB   C2C13626  27.610  27.820  17.560
  568BOLB   C3C13627  27.150  27.870  17.410
  568BOLB   C4C13628  26.980  28.020  17.000
  568BOLB   C1D13629  27.490  28.660  17.510
  568BOLB   C2D13630  27.150  28.860  17.700
  568BOLB   C3D13631  27.040  28.910  17.290
  568BOLB   C4D13632  26.950  29.300  17.040
  569BOLB   NC113633  14.210  11.610  14.220
  569BOLB   PO113634  13.870  11.620  14.020
  569BOLB   GL113635  13.340  11.730  13.970
  569BOLB   GL213636  13.160  11.600  13.730
  569BOLB   C1A13637  13.150  11.450  14.230
  569BOLB   C2A13638  12.790  11.200  14.350
  569BOLB   C3A13639  12.360  10.920  14.230
  569BOLB   C4A13640  12.220  10.660  14.030
  569BOLB   C1B13641  13.430  11.140  13.920
  569BOLB   C2B13642  13.300  10.680  13.870
  569BOLB   C3B13643  13.080  10.560  13.550
  569BOLB   C4B13644  12.840  10.380  13.150
  569BOLB   NC213645  11.180   9.100  12.600
  569BOLB   PO213646  11.400   8.880  12.810
  569BOLB   GL313647  11.730   9.130  12.800
  569BOLB   GL413648  11.960   9.150  12.600
  569BOLB   C1C13649  11.790   9.590  12.910
  569BOLB   C2C13650  12.020   9.780  13.220
  569BOLB   C3C13651  11.950  10.160  13.550
  569BOLB   C4C13652  12.090  10.430  13.900
  569BOLB   C1D13653  12.060   9.540  12.490
  569BOLB   C2D13654  12.180   9.930  12.390
  569BOLB   C3D13655  12.410  10.300  12.170
  569BOLB   C4D13656  12.760  10.290  12.080
  570BOLB   NC113657  16.750  19.060  20.090
  570BOLB   PO113658  16.990  19.020  20.400
  570BOLB   GL113659  17.310  19.070  20.700
  570BOLB   GL213660  17.610  18.840  20.620
  570BOLB   C1A13661  17.560  19.060  21.070
  570BOLB   C2A13662  17.540  19.250  21.430
  570BOLB   C3A13663  17.500  19.190  21.870
  570BOLB   C4A13664  17.730  19.230  22.320
  570BOLB   C1B13665  17.580  18.570  20.960
  570BOLB   C2B13666  17.820  18.440  21.360
  570BOLB   C3B13667  17.820  18.080  21.580
  570BOLB   C4B13668  18.010  17.730  21.570
  570BOLB   NC213669  17.230  17.620  23.850
  570BOLB   PO213670  17.420  17.890  24.130
  570BOLB   GL313671  17.340  18.060  23.670
  570BOLB   GL413672  17.200  17.880  23.390
  570BOLB   C1C13673  17.530  18.320  23.360
  570BOLB   C2C13674  17.800  18.660  23.350
  570BOLB   C3C13675  17.940  18.810  23.070
  570BOLB   C4C13676  17.740  19.010  22.680
  570BOLB   C1D13677  17.380  17.850  22.970
  570BOLB   C2D13678  17.780  17.890  22.750
  570BOLB   C3D13679  18.100  17.850  22.600
  570BOLB   C4D13680  18.300  17.960  22.170
  571BOLB   NC113681  23.050  19.890  18.790
  571BOLB   PO113682  22.700  19.500  19.050
  571BOLB   GL113683  23.240  19.450  18.970
  571BOLB   GL213684  23.380  19.250  19.160
  571BOLB   C1A13685  23.670  19.650  19.150
  571BOLB   C2A13686  24.110  19.880  19.150
  571BOLB   C3A13687  24.550  19.950  19.240
  571BOLB   C4A13688  24.940  19.980  19.400
  571BOLB   C1B13689  23.640  19.210  19.570
  571BOLB   C2B13690  23.980  19.300  19.930
  571BOLB   C3B13691  24.260  19.020  20.160
  571BOLB   C4B13692  24.480  18.660  20.320
  571BOLB   NC213693  26.020  18.780  21.250
  571BOLB   PO213694  26.300  19.160  21.270
  571BOLB   GL313695  26.010  19.110  20.870
  571BOLB   GL413696  25.710  19.090  20.840
  571BOLB   C1C13697  26.070  19.230  20.410
  571BOLB   C2C13698  26.050  19.630  20.080
  571BOLB   C3C13699  25.850  19.760  19.770
  571BOLB   C4C13700  25.360  19.660  19.620
  571BOLB   C1D13701  25.360  19.030  20.840
  571BOLB   C2D13702  25.170  18.740  20.900
  571BOLB   C3D13703  24.840  18.610  21.240
  571BOLB   C4D13704  24.510  18.660  21.620
  572BOLB   NC113705  20.140  16.670  18.890
  572BOLB   PO113706  20.580  16.550  18.840
  572BOLB   GL113707  20.800  16.230  19.050
  572BOLB   GL213708  20.580  16.090  19.160
  572BOLB   C1A13709  21.100  16.040  19.340
  572BOLB   C2A13710  21.400  15.980  19.760
  572BOLB   C3A13711  21.400  16.020  20.170
  572BOLB   C4A13712  21.390  15.860  20.530
  572BOLB   C1B13713  20.560  15.820  19.490
  572BOLB   C2B13714  20.570  15.400  19.700
  572BOLB   C3B13715  20.930  15.160  19.760
  572BOLB   C4B13716  21.350  15.030  19.910
  572BOLB   NC213717  22.050  14.970  22.610
  572BOLB   PO213718  22.350  15.270  22.270
  572BOLB   GL313719  22.130  15.330  21.870
  572BOLB   GL413720  22.240  15.190  21.680
  572BOLB   C1C13721  21.760  15.250  21.770
  572BOLB   C2C13722  21.600  15.150  21.420
  572BOLB   C3C13723  21.670  15.190  20.980
  572BOLB   C4C13724  21.510  15.480  20.770
  572BOLB   C1D13725  22.120  15.390  21.280
  572BOLB   C2D13726  21.950  15.650  20.940
  572BOLB   C3D13727  21.880  16.050  20.610
  572BOLB   C4D13728  21.640  16.340  20.450
  573BOLB   NC113729  24.210  21.480   9.730
  573BOLB   PO113730  24.680  21.570   9.590
  573BOLB   GL113731  24.950  21.260   9.270
  573BOLB   GL213732  24.940  21.290   8.860
  573BOLB   C1A13733  25.360  21.080   9.170
  573BOLB   C2A13734  25.570  20.870   8.800
  573BOLB   C3A13735  25.930  20.920   8.430
  573BOLB   C4A13736  26.250  21.030   8.080
  573BOLB   C1B13737  25.310  21.320   8.660
  573BOLB   C2B13738  25.610  21.290   8.490
  573BOLB   C3B13739  25.840  21.340   8.120
  573BOLB   C4B13740  26.030  21.430   7.780
  573BOLB   NC213741  27.200  20.470   5.610
  573BOLB   PO213742  26.880  20.520   5.760
  573BOLB   GL313743  26.810  20.620   6.060
  573BOLB   GL413744  26.950  21.000   6.140
  573BOLB   C1C13745  26.660  20.650   6.560
  573BOLB   C2C13746  26.390  20.860   6.820
  573BOLB   C3C13747  26.310  20.960   7.230
  573BOLB   C4C13748  26.280  21.040   7.600
  573BOLB   C1D13749  26.700  21.200   6.460
  573BOLB   C2D13750  26.610  21.330   6.810
  573BOLB   C3D13751  27.070  21.400   7.040
  573BOLB   C4D13752  27.290  21.820   7.120
  574BOLB   NC113753  22.140  24.800  19.540
  574BOLB   PO113754  22.150  24.340  19.720
  574BOLB   GL113755  22.140  24.440  20.100
  574BOLB   GL213756  22.490  24.550  20.060
  574BOLB   C1A13757  22.080  24.530  20.570
  574BOLB   C2A13758  22.120  24.830  20.940
  574BOLB   C3A13759  22.170  25.020  21.300
  574BOLB   C4A13760  22.350  24.990  21.650
  574BOLB   C1B13761  22.910  24.610  20.340
  574BOLB   C2B13762  23.020  24.640  20.760
  574BOLB   C3B13763  23.220  24.830  20.960
  574BOLB   C4B13764  23.350  24.900  21.470
  574BOLB   NC213765  22.650  25.800  23.140
  574BOLB   PO213766  22.490  25.490  23.560
  574BOLB   GL313767  22.250  25.290  23.320
  574BOLB   GL413768  22.450  25.260  23.050
  574BOLB   C1C13769  21.930  25.320  23.070
  574BOLB   C2C13770  21.920  25.280  22.720
  574BOLB   C3C13771  22.160  25.460  22.360
  574BOLB   C4C13772  22.440  25.270  22.120
  574BOLB   C1D13773  22.570  25.360  22.610
  574BOLB   C2D13774  22.900  25.350  22.210
  574BOLB   C3D13775  23.000  25.240  21.740
  574BOLB   C4D13776  23.070  25.360  21.320
  575BOLB   NC113777  23.590  24.020  18.980
  575BOLB   PO113778  23.190  23.990  19.030
  575BOLB   GL113779  23.200  24.240  19.460
  575BOLB   GL213780  23.160  24.590  19.440
  575BOLB   C1A13781  23.380  24.230  19.740
  575BOLB   C2A13782  23.680  24.340  20.030
  575BOLB   C3A13783  23.880  24.530  20.410
  575BOLB   C4A13784  24.090  24.530  20.760
  575BOLB   C1B13785  23.100  24.700  19.770
  575BOLB   C2B13786  23.330  24.710  20.090
  575BOLB   C3B13787  23.550  24.890  20.560
  575BOLB   C4B13788  23.750  24.980  20.880
  575BOLB   NC213789  24.610  25.120  23.120
  575BOLB   PO213790  24.500  25.540  22.920
  575BOLB   GL313791  24.540  25.570  22.490
  575BOLB   GL413792  24.430  25.910  22.530
  575BOLB   C1C13793  24.490  25.480  22.060
  575BOLB   C2C13794  24.450  25.330  21.670
  575BOLB   C3C13795  24.270  25.160  21.380
  575BOLB   C4C13796  24.200  24.770  21.180
  575BOLB   C1D13797  24.300  25.970  22.130
  575BOLB   C2D13798  24.280  25.760  21.700
  575BOLB   C3D13799  23.970  25.600  21.360
  575BOLB   C4D13800  24.080  25.470  20.920
  576BOLB   NC113801  24.080  24.200  18.350
  576BOLB   PO113802  24.450  24.210  18.660
  576BOLB   GL113803  24.480  23.860  18.920
  576BOLB   GL213804  24.760  23.800  18.730
  576BOLB   C1A13805  24.600  23.830  19.360
  576BOLB   C2A13806  24.610  23.640  19.760
  576BOLB   C3A13807  24.730  23.670  20.210
  576BOLB   C4A13808  24.960  23.770  20.520
  576BOLB   C1B13809  24.970  23.740  19.090
  576BOLB   C2B13810  25.090  23.750  19.580
  576BOLB   C3B13811  25.270  23.870  19.990
  576BOLB   C4B13812  25.600  23.730  20.210
  576BOLB   NC213813  26.880  24.160  21.330
  576BOLB   PO213814  26.590  23.840  21.390
  576BOLB   GL313815  26.710  23.770  21.030
  576BOLB   GL413816  27.050  23.730  21.030
  576BOLB   C1C13817  26.500  23.740  20.740
  576BOLB   C2C13818  26.100  23.900  20.550
  576BOLB   C3C13819  25.740  24.120  20.590
  576BOLB   C4C13820  25.300  24.070  20.580
  576BOLB   C1D13821  27.010  23.900  20.600
  576BOLB   C2D13822  26.830  23.730  20.260
  576BOLB   C3D13823  26.440  23.780  20.190
  576BOLB   C4D13824  26.020  24.000  20.100
  577BOLB   NC113825  20.250  15.670  18.380
  577BOLB   PO113826  20.160  15.290  18.230
  577BOLB   GL113827  20.080  14.870  18.460
  577BOLB   GL213828  19.980  14.660  18.200
  577BOLB   C1A13829  19.800  14.860  18.870
  577BOLB   C2A13830  19.590  14.800  19.260
  577BOLB   C3A13831  19.550  14.430  19.380
  577BOLB   C4A13832  19.520  13.980  19.420
  577BOLB   C1B13833  19.960  14.260  18.370
  577BOLB   C2B13834  20.130  13.920  18.650
  577BOLB   C3B13835  20.100  13.460  18.800
  577BOLB   C4B13836  20.400  13.090  18.950
  577BOLB   NC213837  20.470  12.400  21.090
  577BOLB   PO213838  20.980  12.470  21.070
  577BOLB   GL313839  20.780  12.700  20.780
  577BOLB   GL413840  21.030  12.960  20.790
  577BOLB   C1C13841  20.560  12.890  20.440
  577BOLB   C2C13842  20.250  13.200  20.390
  577BOLB   C3C13843  19.990  13.540  20.160
  577BOLB   C4C13844  19.790  13.800  19.750
  577BOLB   C1D13845  20.790  13.290  20.540
  577BOLB   C2D13846  20.760  13.490  20.170
  577BOLB   C3D13847  20.740  13.460  19.800
  577BOLB   C4D13848  20.630  13.260  19.460
  578BOLB   NC113849  24.750  21.000  17.000
  578BOLB   PO113850  25.080  21.200  17.040
  578BOLB   GL113851  25.230  21.180  17.440
  578BOLB   GL213852  25.230  21.340  17.770
  578BOLB   C1A13853  25.570  20.970  17.690
  578BOLB   C2A13854  25.960  20.980  17.860
  578BOLB   C3A13855  26.160  20.820  18.230
  578BOLB   C4A13856  26.420  21.010  18.600
  578BOLB   C1B13857  25.490  21.440  18.090
  578BOLB   C2B13858  25.680  21.620  18.380
  578BOLB   C3B13859  25.680  21.820  18.800
  578BOLB   C4B13860  25.900  21.770  19.140
  578BOLB   NC213861  28.150  19.660  20.460
  578BOLB   PO213862  27.790  19.940  20.250
  578BOLB   GL313863  27.580  19.880  19.970
  578BOLB   GL413864  27.210  19.770  20.170
  578BOLB   C1C13865  27.160  20.110  19.740
  578BOLB   C2C13866  27.050  20.360  19.420
  578BOLB   C3C13867  26.910  20.850  19.260
  578BOLB   C4C13868  26.570  21.080  19.020
  578BOLB   C1D13869  26.880  19.800  19.950
  578BOLB   C2D13870  26.560  19.990  19.830
  578BOLB   C3D13871  26.260  20.260  19.520
  578BOLB   C4D13872  25.850  20.470  19.300
  579BOLB   NC113873  14.420  27.640   9.510
  579BOLB   PO113874  14.460  27.570   9.970
  579BOLB   GL113875  14.170  28.040   9.810
  579BOLB   GL213876  14.030  28.030   9.480
  579BOLB   C1A13877  13.880  28.420   9.760
  579BOLB   C2A13878  13.890  28.910   9.570
  579BOLB   C3A13879  14.010  29.240   9.520
  579BOLB   C4A13880  14.170  29.580   9.240
  579BOLB   C1B13881  14.180  28.380   9.330
  579BOLB   C2B13882  14.230  28.790   9.180
  579BOLB   C3B13883  14.420  29.160   9.140
  579BOLB   C4B13884  14.680  29.500   9.020
  579BOLB   NC213885  13.260  31.190   7.540
  579BOLB   PO213886  12.990  30.810   7.350
  579BOLB   GL313887  13.220  30.620   7.730
  579BOLB   GL413888  13.060  30.340   7.900
  579BOLB   C1C13889  13.430  30.580   8.190
  579BOLB   C2C13890  13.540  30.370   8.530
  579BOLB   C3C13891  13.780  30.160   8.790
  579BOLB   C4C13892  14.010  29.940   9.080
  579BOLB   C1D13893  13.250  30.120   8.140
  579BOLB   C2D13894  13.260  29.990   8.580
  579BOLB   C3D13895  13.290  29.830   9.000
  579BOLB   C4D13896  13.410  29.620   9.340
  580BOLB   NC113897  22.910  19.190  18.740
  580BOLB   PO113898  23.230  18.990  18.780
  580BOLB   GL113899  23.270  18.740  19.080
  580BOLB   GL213900  23.040  18.450  19.100
  580BOLB   C1A13901  23.640  18.730  19.390
  580BOLB   C2A13902  23.880  18.340  19.510
  580BOLB   C3A13903  24.120  18.010  19.810
  580BOLB   C4A13904  24.510  17.780  19.760
  580BOLB   C1B13905  23.250  18.400  19.420
  580BOLB   C2B13906  23.340  18.170  19.690
  580BOLB   C3B13907  23.230  17.750  19.650
  580BOLB   C4B13908  23.260  17.250  19.730
  580BOLB   NC213909  26.290  15.860  19.650
  580BOLB   PO213910  26.170  15.890  20.020
  580BOLB   GL313911  25.890  16.240  20.050
  580BOLB   GL413912  25.760  16.190  20.330
  580BOLB   C1C13913  25.580  16.520  19.800
  580BOLB   C2C13914  25.420  16.990  19.800
  580BOLB   C3C13915  25.100  17.340  19.810
  580BOLB   C4C13916  24.780  17.450  19.810
  580BOLB   C1D13917  25.690  16.620  20.290
  580BOLB   C2D13918  25.380  16.930  20.350
  580BOLB   C3D13919  25.010  17.240  20.310
  580BOLB   C4D13920  24.520  17.500  20.230
  581BOLB   NC113921  19.220  22.080  20.480
  581BOLB   PO113922  19.310  22.420  20.470
  581BOLB   GL113923  19.310  22.350  20.900
  581BOLB   GL213924  19.200  22.550  21.200
  581BOLB   C1A13925  19.440  22.110  21.270
  581BOLB   C2A13926  19.400  22.000  21.750
  581BOLB   C3A13927  19.540  21.980  22.060
  581BOLB   C4A13928  19.630  22.030  22.470
  581BOLB   C1B13929  19.110  22.450  21.580
  581BOLB   C2B13930  19.190  22.370  21.980
  581BOLB   C3B13931  19.260  22.340  22.290
  581BOLB   C4B13932  19.070  22.150  22.670
  581BOLB   NC213933  21.250  22.210  24.380
  581BOLB   PO213934  20.890  22.470  24.420
  581BOLB   GL313935  20.590  22.170  24.200
  581BOLB   GL413936  20.480  21.730  24.280
  581BOLB   C1C13937  20.580  22.080  23.750
  581BOLB   C2C13938  20.410  22.100  23.320
  581BOLB   C3C13939  20.210  22.250  23.000
  581BOLB   C4C13940  19.950  22.290  22.650
  581BOLB   C1D13941  20.200  21.820  23.960
  581BOLB   C2D13942  20.160  21.610  23.510
  581BOLB   C3D13943  20.260  21.690  23.070
  581BOLB   C4D13944  20.790  21.760  23.120
  582BOLB   NC113945  14.860  21.910  20.150
  582BOLB   PO113946  15.330  21.760  20.180
  582BOLB   GL113947  15.080  21.760  20.600
  582BOLB   GL213948  14.820  21.610  20.580
  582BOLB   C1A13949  14.820  22.010  20.940
  582BOLB   C2A13950  14.770  22.160  21.360
  582BOLB   C3A13951  14.890  21.920  21.660
  582BOLB   C4A13952  14.730  21.570  21.850
  582BOLB   C1B13953  14.590  21.580  20.990
  582BOLB   C2B13954  14.430  21.630  21.410
  582BOLB   C3B13955  14.090  21.670  21.770
  582BOLB   C4B13956  13.770  22.050  21.910
  582BOLB   NC213957  14.410  21.180  24.170
  582BOLB   PO213958  14.170  20.790  24.180
  582BOLB   GL313959  14.340  20.900  23.770
  582BOLB   GL413960  14.090  21.170  23.720
  582BOLB   C1C13961  14.550  20.980  23.310
  582BOLB   C2C13962  14.650  20.920  22.830
  582BOLB   C3C13963  14.450  21.070  22.490
  582BOLB   C4C13964  14.560  21.370  22.180
  582BOLB   C1D13965  14.060  21.100  23.290
  582BOLB   C2D13966  14.070  20.930  22.830
  582BOLB   C3D13967  13.860  20.750  22.430
  582BOLB   C4D13968  13.680  20.800  21.970
  583BOLB   NC113969  14.270  26.650  16.730
  583BOLB   PO113970  14.270  26.800  17.030
  583BOLB   GL113971  14.170  26.960  17.500
  583BOLB   GL213972  14.280  27.280  17.480
  583BOLB   C1A13973  14.070  26.990  17.900
  583BOLB   C2A13974  13.810  27.300  18.120
  583BOLB   C3A13975  13.600  27.630  18.380
  583BOLB   C4A13976  13.340  27.940  18.400
  583BOLB   C1B13977  14.000  27.460  17.700
  583BOLB   C2B13978  13.950  27.770  18.020
  583BOLB   C3B13979  13.730  28.150  18.180
  583BOLB   C4B13980  13.810  28.440  18.340
  583BOLB   NC213981  12.470  28.710  20.880
  583BOLB   PO213982  12.350  29.020  20.470
  583BOLB   GL313983  12.290  28.870  20.050
  583BOLB   GL413984  12.260  29.030  19.800
  583BOLB   C1C13985  12.420  28.520  19.720
  583BOLB   C2C13986  12.620  28.310  19.360
  583BOLB   C3C13987  12.710  28.170  18.990
  583BOLB   C4C13988  13.010  27.950  18.740
  583BOLB   C1D13989  12.500  28.950  19.460
  583BOLB   C2D13990  12.580  28.710  18.980
  583BOLB   C3D13991  12.920  28.600  18.750
  583BOLB   C4D13992  13.270  28.420  18.450
  584BOLB   NC113993  24.280  22.110  17.650
  584BOLB   PO113994  24.570  22.170  17.850
  584BOLB   GL113995  24.980  22.210  18.120
  584BOLB   GL213996  25.070  22.420  18.300
  584BOLB   C1A13997  25.470  22.120  18.270
  584BOLB   C2A13998  25.830  22.160  18.450
  584BOLB   C3A13999  26.350  22.000  18.530
  584BOLB   C4A14000  26.800  22.070  18.360
  584BOLB   C1B14001  25.520  22.600  18.450
  584BOLB   C2B14002  26.040  22.640  18.410
  584BOLB   C3B14003  26.370  22.990  18.320
  584BOLB   C4B14004  26.600  23.170  18.050
  584BOLB   NC214005  29.190  21.440  18.740
  584BOLB   PO214006  29.030  21.180  19.020
  584BOLB   GL314007  28.740  21.020  18.730
  584BOLB   GL414008  28.680  20.730  18.540
  584BOLB   C1C14009  28.330  21.070  18.720
  584BOLB   C2C14010  28.020  21.420  18.800
  584BOLB   C3C14011  27.590  21.610  18.750
  584BOLB   C4C14012  27.160  21.850  18.480
  584BOLB   C1D14013  28.320  20.790  18.260
  584BOLB   C2D14014  28.050  20.920  17.990
  584BOLB   C3D14015  27.870  20.980  17.640
  584BOLB   C4D14016  27.720  20.940  17.210
  585BOLB   NC114017  16.950  13.740  17.080
  585BOLB   PO114018  17.380  13.770  17.310
  585BOLB   GL114019  17.420  13.500  17.640
  585BOLB   GL214020  17.140  13.470  17.790
  585BOLB   C1A14021  17.420  13.240  18.080
  585BOLB   C2A14022  17.740  13.070  18.340
  585BOLB   C3A14023  17.990  12.860  18.500
  585BOLB   C4A14024  18.360  12.580  18.600
  585BOLB   C1B14025  17.220  13.010  17.740
  585BOLB   C2B14026  17.380  12.690  17.870
  585BOLB   C3B14027  17.690  12.390  17.670
  585BOLB   C4B14028  17.680  12.060  17.600
  585BOLB   NC214029  18.900  11.120  21.130
  585BOLB   PO214030  18.910  11.460  20.790
  585BOLB   GL314031  18.820  11.660  20.420
  585BOLB   GL414032  18.550  11.700  20.250
  585BOLB   C1C14033  18.940  11.880  20.020
  585BOLB   C2C14034  18.860  12.130  19.680
  585BOLB   C3C14035  18.750  12.300  19.350
  585BOLB   C4C14036  18.630  12.350  18.950
  585BOLB   C1D14037  18.460  11.880  19.850
  585BOLB   C2D14038  18.330  12.100  19.420
  585BOLB   C3D14039  18.170  12.440  19.040
  585BOLB   C4D14040  18.070  12.820  19.010
  586BOLB   NC114041  19.780  30.140  13.280
  586BOLB   PO114042  20.140  29.960  13.020
  586BOLB   GL114043  20.110  30.440  13.040
  586BOLB   GL214044  20.260  30.620  12.730
  586BOLB   C1A14045  20.210  30.860  13.320
  586BOLB   C2A14046  20.270  31.280  13.090
  586BOLB   C3A14047  20.350  31.710  13.040
  586BOLB   C4A14048  20.360  32.130  13.110
  586BOLB   C1B14049  20.470  30.960  12.690
  586BOLB   C2B14050  20.620  31.270  12.580
  586BOLB   C3B14051  20.480  31.630  12.260
  586BOLB   C4B14052  20.420  32.120  12.020
  586BOLB   NC214053  20.720  34.430  14.170
  586BOLB   PO214054  20.370  34.190  14.270
  586BOLB   GL314055  20.330  33.860  14.230
  586BOLB   GL414056  20.070  33.750  14.020
  586BOLB   C1C14057  20.380  33.460  14.360
  586BOLB   C2C14058  20.530  33.140  14.020
  586BOLB   C3C14059  20.560  32.790  13.750
  586BOLB   C4C14060  20.560  32.380  13.430
  586BOLB   C1D14061  20.070  33.300  14.010
  586BOLB   C2D14062  20.120  32.830  13.960
  586BOLB   C3D14063  20.240  32.460  13.930
  586BOLB   C4D14064  20.060  32.050  13.930
  587BOLB   NC114065   4.650  22.710  13.160
  587BOLB   PO114066   4.950  22.450  13.080
  587BOLB   GL114067   5.300  22.350  13.190
  587BOLB   GL214068   5.220  22.210  13.510
  587BOLB   C1A14069   5.810  22.480  13.090
  587BOLB   C2A14070   6.260  22.680  13.190
  587BOLB   C3A14071   6.680  23.000  13.310
  587BOLB   C4A14072   6.960  23.170  13.680
  587BOLB   C1B14073   5.580  22.040  13.520
  587BOLB   C2B14074   5.990  22.040  13.630
  587BOLB   C3B14075   6.300  22.280  13.560
  587BOLB   C4B14076   6.430  22.650  13.700
  587BOLB   NC214077   5.790  24.450  15.260
  587BOLB   PO214078   5.740  24.610  14.830
  587BOLB   GL314079   6.160  24.670  14.740
  587BOLB   GL414080   6.250  24.370  14.990
  587BOLB   C1C14081   6.620  24.520  14.600
  587BOLB   C2C14082   6.950  24.320  14.330
  587BOLB   C3C14083   6.950  23.940  14.060
  587BOLB   C4C14084   6.810  23.600  13.840
  587BOLB   C1D14085   6.540  24.020  14.850
  587BOLB   C2D14086   6.750  23.690  14.690
  587BOLB   C3D14087   6.990  23.170  14.610
  587BOLB   C4D14088   7.150  22.830  14.820
  588BOLB   NC114089  14.190  21.180  19.950
  588BOLB   PO114090  14.000  21.400  19.680
  588BOLB   GL114091  13.810  21.500  19.990
  588BOLB   GL214092  13.610  21.250  20.000
  588BOLB   C1A14093  13.540  21.850  20.130
  588BOLB   C2A14094  13.450  22.110  20.390
  588BOLB   C3A14095  13.310  22.330  20.800
  588BOLB   C4A14096  13.290  22.600  21.220
  588BOLB   C1B14097  13.610  20.930  20.280
  588BOLB   C2B14098  13.610  20.770  20.700
  588BOLB   C3B14099  13.610  20.550  21.100
  588BOLB   C4B14100  13.530  20.110  21.170
  588BOLB   NC214101  12.110  23.690  23.190
  588BOLB   PO214102  12.040  24.000  22.830
  588BOLB   GL314103  12.450  24.060  22.620
  588BOLB   GL414104  12.260  24.260  22.400
  588BOLB   C1C14105  12.800  23.780  22.380
  588BOLB   C2C14106  12.980  23.380  22.210
  588BOLB   C3C14107  13.040  23.030  21.890
  588BOLB   C4C14108  13.180  22.880  21.530
  588BOLB   C1D14109  12.570  24.250  22.100
  588BOLB   C2D14110  12.690  24.210  21.630
  588BOLB   C3D14111  12.930  24.450  21.370
  588BOLB   C4D14112  12.760  24.880  21.220
  589BOLB   NC114113  17.760  14.940  17.670
  589BOLB   PO114114  17.680  14.810  18.140
  589BOLB   GL114115  17.630  14.590  18.510
  589BOLB   GL214116  17.340  14.360  18.540
  589BOLB   C1A14117  17.840  14.380  18.960
  589BOLB   C2A14118  17.990  14.140  19.260
  589BOLB   C3A14119  18.170  13.940  19.440
  589BOLB   C4A14120  18.300  13.730  19.900
  589BOLB   C1B14121  17.340  14.040  18.900
  589BOLB   C2B14122  17.380  13.590  18.980
  589BOLB   C3B14123  17.000  13.320  18.950
  589BOLB   C4B14124  16.760  13.080  19.220
  589BOLB   NC214125  19.110  12.690  22.130
  589BOLB   PO214126  18.810  12.950  21.930
  589BOLB   GL314127  18.550  13.210  21.740
  589BOLB   GL414128  18.350  13.040  21.650
  589BOLB   C1C14129  18.580  13.660  21.490
  589BOLB   C2C14130  18.550  13.720  21.010
  589BOLB   C3C14131  18.660  13.630  20.590
  589BOLB   C4C14132  18.550  13.540  20.280
  589BOLB   C1D14133  18.310  13.310  21.260
  589BOLB   C2D14134  18.030  13.590  21.070
  589BOLB   C3D14135  17.880  13.800  20.820
  589BOLB   C4D14136  17.750  13.740  20.400
  590BOLB   NC114137  15.160  17.390  19.760
  590BOLB   PO114138  15.360  17.450  20.160
  590BOLB   GL114139  14.990  17.360  20.330
  590BOLB   GL214140  15.120  17.010  20.120
  590BOLB   C1A14141  14.780  17.400  20.690
  590BOLB   C2A14142  14.580  17.430  21.130
  590BOLB   C3A14143  14.660  17.350  21.530
  590BOLB   C4A14144  14.800  17.020  21.670
  590BOLB   C1B14145  14.990  16.570  20.360
  590BOLB   C2B14146  14.830  16.380  20.690
  590BOLB   C3B14147  14.850  16.050  20.990
  590BOLB   C4B14148  15.270  15.830  21.240
  590BOLB   NC214149  14.350  16.580  23.660
  590BOLB   PO214150  14.780  16.480  23.480
  590BOLB   GL314151  15.000  16.680  23.230
  590BOLB   GL414152  15.110  17.010  23.370
  590BOLB   C1C14153  15.190  16.700  22.790
  590BOLB   C2C14154  15.340  17.030  22.370
  590BOLB   C3C14155  15.430  17.070  21.860
  590BOLB   C4C14156  15.200  16.880  21.590
  590BOLB   C1D14157  15.080  17.150  23.000
  590BOLB   C2D14158  14.910  17.410  22.680
  590BOLB   C3D14159  14.700  17.750  22.530
  590BOLB   C4D14160  14.430  17.950  22.850
  591BOLB   NC114161   8.930  22.860  14.480
  591BOLB   PO114162   9.170  23.100  14.770
  591BOLB   GL114163   8.790  23.240  14.960
  591BOLB   GL214164   8.700  23.310  14.700
  591BOLB   C1A14165   8.430  23.460  15.200
  591BOLB   C2A14166   8.170  23.770  15.310
  591BOLB   C3A14167   7.780  23.930  15.080
  591BOLB   C4A14168   7.600  23.930  14.620
  591BOLB   C1B14169   8.490  23.670  14.570
  591BOLB   C2B14170   8.130  23.850  14.480
  591BOLB   C3B14171   7.900  23.970  14.180
  591BOLB   C4B14172   7.510  24.060  14.130
  591BOLB   NC214173   5.830  25.660  15.390
  591BOLB   PO214174   5.790  25.220  15.260
  591BOLB   GL314175   6.160  25.190  14.990
  591BOLB   GL414176   6.450  25.420  14.690
  591BOLB   C1C14177   6.520  24.980  15.000
  591BOLB   C2C14178   6.680  24.640  15.090
  591BOLB   C3C14179   7.030  24.440  14.950
  591BOLB   C4C14180   7.160  24.010  14.740
  591BOLB   C1D14181   6.810  25.440  14.420
  591BOLB   C2D14182   7.100  25.190  14.130
  591BOLB   C3D14183   7.370  25.060  13.910
  591BOLB   C4D14184   7.340  24.720  13.500
  592BOLB   NC114185  11.050  24.300  21.870
  592BOLB   PO114186  11.260  23.920  22.200
  592BOLB   GL114187  11.740  23.910  22.070
  592BOLB   GL214188  12.000  24.060  22.000
  592BOLB   C1A14189  11.740  23.840  21.550
  592BOLB   C2A14190  11.950  23.800  21.150
  592BOLB   C3A14191  12.090  23.580  20.840
  592BOLB   C4A14192  12.480  23.460  20.750
  592BOLB   C1B14193  12.220  23.940  21.570
  592BOLB   C2B14194  12.520  23.930  21.180
  592BOLB   C3B14195  12.720  23.960  20.750
  592BOLB   C4B14196  12.880  24.270  20.500
  592BOLB   NC214197  13.070  22.140  18.810
  592BOLB   PO214198  13.080  22.540  18.790
  592BOLB   GL314199  13.050  22.630  19.190
  592BOLB   GL414200  12.730  22.720  19.330
  592BOLB   C1C14201  13.090  22.550  19.650
  592BOLB   C2C14202  12.930  22.890  19.950
  592BOLB   C3C14203  12.990  23.090  20.250
  592BOLB   C4C14204  12.820  23.350  20.600
  592BOLB   C1D14205  13.020  23.050  19.440
  592BOLB   C2D14206  12.970  23.370  19.640
  592BOLB   C3D14207  13.080  23.520  20.040
  592BOLB   C4D14208  13.150  23.720  20.500
  593BOLB   NC114209  15.310  20.450  20.180
  593BOLB   PO114210  15.320  20.880  20.290
  593BOLB   GL114211  15.090  20.620  20.610
  593BOLB   GL214212  15.050  20.280  20.650
  593BOLB   C1A14213  14.700  20.630  20.850
  593BOLB   C2A14214  14.770  20.640  21.310
  593BOLB   C3A14215  14.610  20.450  21.600
  593BOLB   C4A14216  14.790  20.380  22.000
  593BOLB   C1B14217  14.810  20.100  21.010
  593BOLB   C2B14218  14.430  20.240  21.070
  593BOLB   C3B14219  14.160  20.330  21.320
  593BOLB   C4B14220  13.820  20.360  21.550
  593BOLB   NC214221  15.080  19.650  24.540
  593BOLB   PO214222  14.860  20.090  24.400
  593BOLB   GL314223  15.170  20.290  24.080
  593BOLB   GL414224  14.940  20.470  24.040
  593BOLB   C1C14225  15.190  20.220  23.670
  593BOLB   C2C14226  14.870  20.310  23.250
  593BOLB   C3C14227  14.830  20.450  22.860
  593BOLB   C4C14228  14.840  20.470  22.420
  593BOLB   C1D14229  14.760  20.610  23.670
  593BOLB   C2D14230  15.020  20.770  23.440
  593BOLB   C3D14231  15.250  20.900  23.100
  593BOLB   C4D14232  15.110  20.900  22.720
  594BOLB   NC114233   9.420  21.060  16.940
  594BOLB   PO114234   8.960  20.740  17.010
  594BOLB   GL114235   8.670  20.940  16.900
  594BOLB   GL214236   8.690  20.950  16.560
  594BOLB   C1A14237   8.250  20.830  17.210
  594BOLB   C2A14238   7.950  21.080  17.410
  594BOLB   C3A14239   7.670  21.460  17.660
  594BOLB   C4A14240   7.450  21.830  17.640
  594BOLB   C1B14241   8.310  20.960  16.530
  594BOLB   C2B14242   7.810  20.920  16.450
  594BOLB   C3B14243   7.430  20.630  16.550
  594BOLB   C4B14244   7.530  20.240  16.840
  594BOLB   NC214245   6.230  23.080  18.070
  594BOLB   PO214246   6.120  23.460  17.850
  594BOLB   GL314247   6.350  23.290  17.540
  594BOLB   GL414248   6.340  23.420  17.190
  594BOLB   C1C14249   6.580  22.990  17.400
  594BOLB   C2C14250   6.850  22.800  17.630
  594BOLB   C3C14251   7.170  22.550  17.760
  594BOLB   C4C14252   7.170  22.160  17.610
  594BOLB   C1D14253   6.800  23.400  17.140
  594BOLB   C2D14254   7.110  23.110  16.930
  594BOLB   C3D14255   7.420  22.840  16.780
  594BOLB   C4D14256   7.650  22.510  16.820
  595BOLB   NC114257  26.580  22.770  13.730
  595BOLB   PO114258  26.370  22.700  14.030
  595BOLB   GL114259  26.700  22.380  14.030
  595BOLB   GL214260  26.880  22.100  13.940
  595BOLB   C1A14261  27.100  22.420  14.330
  595BOLB   C2A14262  27.360  22.100  14.310
  595BOLB   C3A14263  27.730  21.970  14.110
  595BOLB   C4A14264  27.980  21.890  13.720
  595BOLB   C1B14265  27.210  21.830  13.820
  595BOLB   C2B14266  27.550  21.680  13.670
  595BOLB   C3B14267  27.650  21.530  13.290
  595BOLB   C4B14268  27.940  21.480  13.040
  595BOLB   NC214269  30.200  21.690  13.820
  595BOLB   PO214270  30.160  21.620  13.440
  595BOLB   GL314271  29.790  21.560  13.670
  595BOLB   GL414272  29.820  21.330  13.930
  595BOLB   C1C14273  29.280  21.490  13.710
  595BOLB   C2C14274  28.990  21.650  13.550
  595BOLB   C3C14275  28.620  21.710  13.640
  595BOLB   C4C14276  28.280  21.810  13.610
  595BOLB   C1D14277  29.450  21.120  13.920
  595BOLB   C2D14278  29.140  21.290  14.100
  595BOLB   C3D14279  28.800  21.210  14.310
  595BOLB   C4D14280  28.740  20.930  14.690
  596BOLB   NC114281  21.330  26.340  19.390
  596BOLB   PO114282  21.430  26.450  18.970
  596BOLB   GL114283  21.470  26.800  19.400
  596BOLB   GL214284  21.150  26.810  19.540
  596BOLB   C1A14285  21.460  26.880  19.910
  596BOLB   C2A14286  21.540  27.020  20.350
  596BOLB   C3A14287  21.500  27.450  20.680
  596BOLB   C4A14288  21.410  27.900  20.780
  596BOLB   C1B14289  21.000  27.060  19.920
  596BOLB   C2B14290  21.170  27.410  20.090
  596BOLB   C3B14291  21.500  27.760  20.240
  596BOLB   C4B14292  21.730  28.110  20.440
  596BOLB   NC214293  22.680  30.280  21.250
  596BOLB   PO214294  22.450  29.990  21.090
  596BOLB   GL314295  22.380  29.650  21.210
  596BOLB   GL414296  22.660  29.490  21.390
  596BOLB   C1C14297  22.070  29.410  21.040
  596BOLB   C2C14298  22.130  28.950  20.970
  596BOLB   C3C14299  21.820  28.660  20.930
  596BOLB   C4C14300  21.700  28.240  20.910
  596BOLB   C1D14301  22.420  29.120  21.380
  596BOLB   C2D14302  22.160  28.800  21.510
  596BOLB   C3D14303  21.880  28.360  21.360
  596BOLB   C4D14304  21.560  27.970  21.340
  597BOLB   NC114305  24.490  18.000  16.150
  597BOLB   PO114306  24.430  17.930  15.670
  597BOLB   GL114307  24.800  17.660  15.830
  597BOLB   GL214308  24.870  17.510  15.630
  597BOLB   C1A14309  25.090  17.610  16.030
  597BOLB   C2A14310  25.430  17.310  16.110
  597BOLB   C3A14311  25.720  17.140  16.080
  597BOLB   C4A14312  26.010  16.880  16.310
  597BOLB   C1B14313  25.020  17.190  15.720
  597BOLB   C2B14314  25.340  17.050  15.690
  597BOLB   C3B14315  25.790  17.050  15.590
  597BOLB   C4B14316  26.250  17.000  15.610
  597BOLB   NC214317  28.500  16.460  16.390
  597BOLB   PO214318  28.130  16.440  16.230
  597BOLB   GL314319  27.690  16.650  16.110
  597BOLB   GL414320  27.780  16.840  15.730
  597BOLB   C1C14321  27.460  16.400  15.760
  597BOLB   C2C14322  27.090  16.250  15.890
  597BOLB   C3C14323  26.740  16.310  16.140
  597BOLB   C4C14324  26.410  16.570  16.240
  597BOLB   C1D14325  27.350  16.920  15.650
  597BOLB   C2D14326  27.010  17.170  15.830
  597BOLB   C3D14327  26.640  17.350  15.700
  597BOLB   C4D14328  26.300  17.620  15.550
  598BOLB   NC114329  13.300  27.210  14.350
  598BOLB   PO114330  12.870  27.270  14.360
  598BOLB   GL114331  12.680  27.690  14.520
  598BOLB   GL214332  12.710  27.810  14.810
  598BOLB   C1A14333  12.370  27.980  14.460
  598BOLB   C2A14334  12.110  28.270  14.660
  598BOLB   C3A14335  11.830  28.640  14.410
  598BOLB   C4A14336  11.670  28.770  13.980
  598BOLB   C1B14337  12.520  28.070  15.150
  598BOLB   C2B14338  12.330  28.320  15.290
  598BOLB   C3B14339  12.370  28.800  15.320
  598BOLB   C4B14340  12.290  29.000  15.710
  598BOLB   NC214341  12.640  27.050  12.650
  598BOLB   PO214342  12.950  27.180  13.000
  598BOLB   GL314343  12.580  27.470  12.990
  598BOLB   GL414344  12.280  27.490  12.680
  598BOLB   C1C14345  12.280  27.760  13.090
  598BOLB   C2C14346  12.070  28.110  13.170
  598BOLB   C3C14347  11.740  28.320  13.280
  598BOLB   C4C14348  11.690  28.550  13.640
  598BOLB   C1D14349  11.930  27.790  12.730
  598BOLB   C2D14350  11.770  28.160  12.510
  598BOLB   C3D14351  11.510  28.520  12.430
  598BOLB   C4D14352  11.240  28.850  12.390
  599BOLB   NC114353  17.880  15.140  18.540
  599BOLB   PO114354  18.070  14.790  18.490
  599BOLB   GL114355  18.200  14.370  18.530
  599BOLB   GL214356  18.540  14.410  18.490
  599BOLB   C1A14357  18.250  14.080  18.850
  599BOLB   C2A14358  18.280  13.720  18.910
  599BOLB   C3A14359  18.330  13.330  19.170
  599BOLB   C4A14360  18.210  13.160  19.500
  599BOLB   C1B14361  18.810  14.160  18.720
  599BOLB   C2B14362  19.130  13.970  18.810
  599BOLB   C3B14363  19.190  13.640  19.210
  599BOLB   C4B14364  19.090  13.410  19.590
  599BOLB   NC214365  17.940  11.340  21.130
  599BOLB   PO214366  17.520  11.340  21.250
  599BOLB   GL314367  17.460  11.640  20.970
  599BOLB   GL414368  17.280  11.820  20.730
  599BOLB   C1C14369  17.680  12.120  20.800
  599BOLB   C2C14370  17.940  12.320  20.540
  599BOLB   C3C14371  17.860  12.570  20.180
  599BOLB   C4C14372  17.860  12.850  19.810
  599BOLB   C1D14373  17.420  12.230  20.410
  599BOLB   C2D14374  17.340  12.410  19.990
  599BOLB   C3D14375  17.140  12.550  19.670
  599BOLB   C4D14376  17.220  12.940  19.320
  600BOLB   NC114377  11.560  26.330  10.870
  600BOLB   PO114378  11.550  26.490  11.320
  600BOLB   GL114379  11.280  26.820  11.480
  600BOLB   GL214380  11.140  26.760  11.820
  600BOLB   C1A14381  10.950  27.100  11.540
  600BOLB   C2A14382  10.730  27.480  11.640
  600BOLB   C3A14383  10.500  27.840  11.540
  600BOLB   C4A14384  10.360  28.210  11.370
  600BOLB   C1B14385  11.030  27.090  12.070
  600BOLB   C2B14386  10.690  27.300  12.330
  600BOLB   C3B14387  10.300  27.310  12.180
  600BOLB   C4B14388  10.060  26.990  12.010
  600BOLB   NC214389   9.230  30.020  10.930
  600BOLB   PO214390   9.420  30.270  11.280
  600BOLB   GL314391   9.750  29.980  11.210
  600BOLB   GL414392   9.840  29.800  10.860
  600BOLB   C1C14393   9.670  29.610  11.360
  600BOLB   C2C14394   9.650  29.100  11.290
  600BOLB   C3C14395   9.600  28.660  11.430
  600BOLB   C4C14396   9.970  28.330  11.430
  600BOLB   C1D14397  10.110  29.770  10.570
  600BOLB   C2D14398  10.380  29.700  10.110
  600BOLB   C3D14399  10.810  29.700   9.890
  600BOLB   C4D14400  11.140  29.400   9.730
  601BOLB   NC114401  23.450  25.420  18.450
  601BOLB   PO114402  23.920  25.540  18.470
  601BOLB   GL114403  23.660  25.590  18.930
  601BOLB   GL214404  23.510  25.790  18.990
  601BOLB   C1A14405  23.710  25.530  19.320
  601BOLB   C2A14406  23.580  25.640  19.750
  601BOLB   C3A14407  23.810  25.730  20.180
  601BOLB   C4A14408  24.060  26.000  20.470
  601BOLB   C1B14409  23.620  26.020  19.420
  601BOLB   C2B14410  23.630  26.210  19.750
  601BOLB   C3B14411  23.920  26.220  20.070
  601BOLB   C4B14412  24.300  26.440  20.250
  601BOLB   NC214413  25.190  25.800  22.990
  601BOLB   PO214414  24.980  25.930  22.620
  601BOLB   GL314415  24.800  26.060  22.220
  601BOLB   GL414416  24.870  25.880  21.950
  601BOLB   C1C14417  24.590  26.270  21.850
  601BOLB   C2C14418  24.270  26.210  21.510
  601BOLB   C3C14419  24.120  26.080  21.190
  601BOLB   C4C14420  24.110  26.180  20.820
  601BOLB   C1D14421  25.090  25.560  21.700
  601BOLB   C2D14422  24.890  25.170  21.420
  601BOLB   C3D14423  24.680  24.850  21.340
  601BOLB   C4D14424  24.710  24.530  21.200
  602BOLB   NC114425  20.650  28.530  17.590
  602BOLB   PO114426  20.560  28.850  17.210
  602BOLB   GL114427  20.720  29.100  17.630
  602BOLB   GL214428  20.380  29.030  17.730
  602BOLB   C1A14429  21.040  29.400  17.660
  602BOLB   C2A14430  21.030  29.910  17.630
  602BOLB   C3A14431  21.090  30.300  17.630
  602BOLB   C4A14432  21.000  30.570  18.000
  602BOLB   C1B14433  20.450  29.320  18.060
  602BOLB   C2B14434  20.750  29.490  18.080
  602BOLB   C3B14435  20.960  29.870  18.250
  602BOLB   C4B14436  21.060  30.200  18.350
  602BOLB   NC214437  22.550  31.820  19.100
  602BOLB   PO214438  22.480  32.070  18.640
  602BOLB   GL314439  22.110  31.890  18.830
  602BOLB   GL414440  22.180  31.580  18.740
  602BOLB   C1C14441  21.640  31.800  18.830
  602BOLB   C2C14442  21.420  31.410  18.720
  602BOLB   C3C14443  21.210  31.180  18.530
  602BOLB   C4C14444  21.190  30.740  18.380
  602BOLB   C1D14445  22.280  31.200  18.560
  602BOLB   C2D14446  22.150  30.890  18.300
  602BOLB   C3D14447  21.950  31.130  18.000
  602BOLB   C4D14448  21.990  31.520  17.850
  603BOLB   NC114449  16.230  20.720  19.930
  603BOLB   PO114450  16.080  21.030  20.160
  603BOLB   GL114451  15.910  21.150  20.440
  603BOLB   GL214452  15.780  21.020  20.680
  603BOLB   C1A14453  15.850  21.500  20.780
  603BOLB   C2A14454  15.610  21.450  21.210
  603BOLB   C3A14455  15.800  21.260  21.590
  603BOLB   C4A14456  15.710  21.010  22.020
  603BOLB   C1B14457  15.870  21.040  21.090
  603BOLB   C2B14458  15.790  20.780  21.460
  603BOLB   C3B14459  15.610  20.560  21.840
  603BOLB   C4B14460  15.300  20.250  22.040
  603BOLB   NC214461  16.470  21.450  24.300
  603BOLB   PO214462  16.440  21.070  24.060
  603BOLB   GL314463  16.490  21.270  23.660
  603BOLB   GL414464  16.400  21.540  23.780
  603BOLB   C1C14465  16.610  21.370  23.240
  603BOLB   C2C14466  16.550  21.400  22.750
  603BOLB   C3C14467  16.200  21.430  22.510
  603BOLB   C4C14468  16.010  21.140  22.300
  603BOLB   C1D14469  16.520  21.850  23.430
  603BOLB   C2D14470  16.680  21.810  22.990
  603BOLB   C3D14471  16.650  21.880  22.530
  603BOLB   C4D14472  16.920  22.160  22.280
  604BOLB   NC114473  24.730  18.950  16.350
  604BOLB   PO114474  24.790  18.570  16.230
  604BOLB   GL114475  25.200  18.380  16.400
  604BOLB   GL214476  25.470  18.470  16.410
  604BOLB   C1A14477  25.360  18.050  16.610
  604BOLB   C2A14478  25.690  17.700  16.450
  604BOLB   C3A14479  26.010  17.480  16.470
  604BOLB   C4A14480  26.060  17.090  16.750
  604BOLB   C1B14481  25.810  18.200  16.490
  604BOLB   C2B14482  26.170  17.940  16.410
  604BOLB   C3B14483  26.570  17.670  16.560
  604BOLB   C4B14484  26.950  17.410  16.660
  604BOLB   NC214485  27.710  15.610  16.170
  604BOLB   PO214486  27.600  15.410  16.520
  604BOLB   GL314487  27.400  15.860  16.460
  604BOLB   GL414488  27.700  16.100  16.420
  604BOLB   C1C14489  27.010  15.960  16.390
  604BOLB   C2C14490  26.920  16.420  16.580
  604BOLB   C3C14491  26.510  16.620  16.740
  604BOLB   C4C14492  26.240  16.780  16.910
  604BOLB   C1D14493  27.350  16.410  16.400
  604BOLB   C2D14494  27.180  16.840  16.160
  604BOLB   C3D14495  27.330  17.230  16.180
  604BOLB   C4D14496  26.810  17.420  16.170
  605BOLB   NC114497  12.320  22.900  17.940
  605BOLB   PO114498  12.270  23.240  17.910
  605BOLB   GL114499  11.800  23.300  18.090
  605BOLB   GL214500  11.480  23.350  17.920
  605BOLB   C1A14501  11.530  23.440  18.520
  605BOLB   C2A14502  11.460  23.570  18.910
  605BOLB   C3A14503  11.520  23.710  19.330
  605BOLB   C4A14504  11.530  23.810  19.820
  605BOLB   C1B14505  11.340  23.750  18.060
  605BOLB   C2B14506  10.960  23.910  18.400
  605BOLB   C3B14507  10.650  24.220  18.430
  605BOLB   C4B14508  10.530  24.470  18.240
  605BOLB   NC214509   9.760  24.330  21.520
  605BOLB   PO214510   9.990  24.060  21.510
  605BOLB   GL314511  10.320  24.050  21.110
  605BOLB   GL414512  10.090  23.760  20.910
  605BOLB   C1C14513  10.710  23.800  21.040
  605BOLB   C2C14514  10.930  23.600  20.810
  605BOLB   C3C14515  11.280  23.670  20.560
  605BOLB   C4C14516  11.320  23.870  20.210
  605BOLB   C1D14517  10.340  23.580  20.610
  605BOLB   C2D14518  10.560  23.680  20.220
  605BOLB   C3D14519  10.930  23.520  20.220
  605BOLB   C4D14520  11.200  23.410  20.040
  606BOLB   NC114521  18.100  16.240  19.260
  606BOLB   PO114522  18.110  15.810  19.090
  606BOLB   GL114523  18.000  15.780  19.480
  606BOLB   GL214524  17.920  15.390  19.390
  606BOLB   C1A14525  18.090  15.560  19.820
  606BOLB   C2A14526  18.370  15.280  20.050
  606BOLB   C3A14527  18.590  14.970  20.340
  606BOLB   C4A14528  18.820  14.560  20.300
  606BOLB   C1B14529  17.910  15.110  19.690
  606BOLB   C2B14530  18.000  14.990  20.040
  606BOLB   C3B14531  17.890  14.650  20.290
  606BOLB   C4B14532  17.710  14.210  20.530
  606BOLB   NC214533  20.010  12.960  21.680
  606BOLB   PO214534  19.610  12.940  21.990
  606BOLB   GL314535  19.580  13.240  21.540
  606BOLB   GL414536  19.760  13.290  21.340
  606BOLB   C1C14537  19.390  13.280  21.030
  606BOLB   C2C14538  19.490  13.590  20.710
  606BOLB   C3C14539  19.260  13.850  20.500
  606BOLB   C4C14540  19.070  14.160  20.230
  606BOLB   C1D14541  19.630  13.710  21.550
  606BOLB   C2D14542  19.690  14.230  21.420
  606BOLB   C3D14543  19.660  14.480  21.090
  606BOLB   C4D14544  19.650  14.770  20.890
  607BOLB   NC114545   9.540  19.830  15.300
  607BOLB   PO114546   9.230  19.530  15.470
  607BOLB   GL114547   8.990  19.270  15.300
  607BOLB   GL214548   8.910  19.010  15.500
  607BOLB   C1A14549   8.410  19.150  15.290
  607BOLB   C2A14550   7.920  19.240  15.150
  607BOLB   C3A14551   7.560  19.400  15.360
  607BOLB   C4A14552   7.320  19.600  15.610
  607BOLB   C1B14553   8.710  18.950  14.990
  607BOLB   C2B14554   8.650  18.850  14.590
  607BOLB   C3B14555   8.830  18.570  14.350
  607BOLB   C4B14556   8.670  18.450  13.940
  607BOLB   NC214557   4.900  19.940  16.730
  607BOLB   PO214558   5.320  19.910  16.700
  607BOLB   GL314559   5.710  20.110  16.610
  607BOLB   GL414560   5.820  19.820  16.780
  607BOLB   C1C14561   6.160  20.190  16.660
  607BOLB   C2C14562   6.560  20.110  16.520
  607BOLB   C3C14563   6.820  19.880  16.260
  607BOLB   C4C14564   7.080  19.670  15.950
  607BOLB   C1D14565   5.990  19.780  16.390
  607BOLB   C2D14566   6.330  19.760  16.110
  607BOLB   C3D14567   6.540  19.580  15.780
  607BOLB   C4D14568   6.940  19.290  15.620
  608BOLB   NC114569  13.620  14.720   8.610
  608BOLB   PO114570  13.890  14.810   8.230
  608BOLB   GL114571  13.450  14.800   8.180
  608BOLB   GL214572  13.110  14.850   8.310
  608BOLB   C1A14573  13.120  14.400   8.180
  608BOLB   C2A14574  12.860  14.030   8.280
  608BOLB   C3A14575  12.630  13.750   8.460
  608BOLB   C4A14576  12.380  13.780   8.830
  608BOLB   C1B14577  12.780  14.930   8.590
  608BOLB   C2B14578  12.630  14.890   8.990
  608BOLB   C3B14579  12.210  15.130   9.100
  608BOLB   C4B14580  11.830  15.320   9.220
  608BOLB   NC214581  10.360  14.040   7.650
  608BOLB   PO214582  10.670  13.930   7.470
  608BOLB   GL314583  10.850  14.190   7.670
  608BOLB   GL414584  10.820  14.440   7.760
  608BOLB   C1C14585  11.280  14.160   7.860
  608BOLB   C2C14586  11.670  14.200   8.080
  608BOLB   C3C14587  11.790  14.150   8.450
  608BOLB   C4C14588  12.090  14.030   8.780
  608BOLB   C1D14589  11.290  14.700   7.840
  608BOLB   C2D14590  11.640  14.850   7.760
  608BOLB   C3D14591  11.950  15.130   7.500
  608BOLB   C4D14592  12.200  15.460   7.390
  609BOLB   NC114593  19.460  29.940  11.150
  609BOLB   PO114594  19.100  29.560  11.240
  609BOLB   GL114595  18.930  30.010  11.160
  609BOLB   GL214596  18.820  30.070  10.820
  609BOLB   C1A14597  19.040  30.450  11.150
  609BOLB   C2A14598  19.200  30.840  10.970
  609BOLB   C3A14599  19.290  31.250  11.040
  609BOLB   C4A14600  19.190  31.670  11.060
  609BOLB   C1B14601  18.610  30.460  10.780
  609BOLB   C2B14602  18.510  30.850  10.600
  609BOLB   C3B14603  18.570  31.190  10.300
  609BOLB   C4B14604  18.540  31.620  10.240
  609BOLB   NC214605  19.420  33.820   9.270
  609BOLB   PO214606  19.480  34.000   9.680
  609BOLB   GL314607  19.360  33.630   9.860
  609BOLB   GL414608  19.080  33.560   9.900
  609BOLB   C1C14609  19.280  33.290  10.320
  609BOLB   C2C14610  19.260  32.850  10.530
  609BOLB   C3C14611  19.230  32.440  10.840
  609BOLB   C4C14612  19.120  32.180  11.160
  609BOLB   C1D14613  19.070  33.160   9.920
  609BOLB   C2D14614  18.880  32.890  10.170
  609BOLB   C3D14615  18.800  32.460  10.150
  609BOLB   C4D14616  19.070  32.330   9.850
  610BOLB   NC114617  19.150  29.960  14.990
  610BOLB   PO114618  19.490  29.710  15.270
  610BOLB   GL114619  19.370  30.150  15.420
  610BOLB   GL214620  19.260  30.410  15.250
  610BOLB   C1A14621  19.510  30.430  15.730
  610BOLB   C2A14622  19.550  30.880  15.760
  610BOLB   C3A14623  19.780  31.300  15.860
  610BOLB   C4A14624  19.710  31.660  15.610
  610BOLB   C1B14625  19.050  30.640  15.600
  610BOLB   C2B14626  19.080  31.090  15.810
  610BOLB   C3B14627  19.170  31.540  15.860
  610BOLB   C4B14628  18.950  31.790  16.120
  610BOLB   NC214629  18.610  33.640  17.160
  610BOLB   PO214630  18.510  33.560  16.740
  610BOLB   GL314631  18.890  33.290  16.640
  610BOLB   GL414632  18.940  33.030  16.810
  610BOLB   C1C14633  19.050  32.990  16.320
  610BOLB   C2C14634  19.230  32.580  16.060
  610BOLB   C3C14635  19.180  32.180  15.730
  610BOLB   C4C14636  19.510  32.010  15.490
  610BOLB   C1D14637  18.840  32.780  17.110
  610BOLB   C2D14638  18.970  32.410  17.100
  610BOLB   C3D14639  19.000  32.100  17.300
  610BOLB   C4D14640  19.270  32.030  17.670
  611BOLB   NC114641  25.330  25.370  17.700
  611BOLB   PO114642  24.930  25.200  17.780
  611BOLB   GL114643  25.110  25.260  18.180
  611BOLB   GL214644  25.400  25.360  18.240
  611BOLB   C1A14645  25.180  25.350  18.680
  611BOLB   C2A14646  25.430  25.290  18.970
  611BOLB   C3A14647  25.860  25.350  19.110
  611BOLB   C4A14648  26.130  25.700  19.130
  611BOLB   C1B14649  25.680  25.340  18.530
  611BOLB   C2B14650  26.110  25.390  18.660
  611BOLB   C3B14651  26.510  25.590  18.700
  611BOLB   C4B14652  26.930  25.660  18.730
  611BOLB   NC214653  27.730  27.220  19.860
  611BOLB   PO214654  27.410  27.450  19.930
  611BOLB   GL314655  27.140  27.190  19.810
  611BOLB   GL414656  26.940  27.240  20.060
  611BOLB   C1C14657  26.900  26.870  19.700
  611BOLB   C2C14658  26.820  26.470  19.660
  611BOLB   C3C14659  26.850  26.230  19.330
  611BOLB   C4C14660  26.540  26.010  19.120
  611BOLB   C1D14661  26.530  27.160  20.150
  611BOLB   C2D14662  26.370  26.890  19.800
  611BOLB   C3D14663  26.340  26.680  19.470
  611BOLB   C4D14664  26.280  26.450  19.160
  612BOLB   NC114665  13.200  18.170  19.630
  612BOLB   PO114666  13.100  18.620  19.680
  612BOLB   GL114667  13.020  18.480  20.090
  612BOLB   GL214668  12.730  18.530  20.340
  612BOLB   C1A14669  13.230  18.460  20.530
  612BOLB   C2A14670  13.190  18.600  20.940
  612BOLB   C3A14671  12.990  18.830  21.240
  612BOLB   C4A14672  12.850  18.600  21.670
  612BOLB   C1B14673  12.650  18.490  20.800
  612BOLB   C2B14674  12.480  18.270  21.140
  612BOLB   C3B14675  12.220  17.980  21.470
  612BOLB   C4B14676  11.860  17.690  21.630
  612BOLB   NC214677  11.550  17.770  23.540
  612BOLB   PO214678  11.420  17.340  23.270
  612BOLB   GL314679  11.840  17.460  22.940
  612BOLB   GL414680  12.160  17.450  23.040
  612BOLB   C1C14681  11.920  17.650  22.560
  612BOLB   C2C14682  12.280  17.930  22.390
  612BOLB   C3C14683  12.360  18.020  22.020
  612BOLB   C4C14684  12.480  18.330  21.810
  612BOLB   C1D14685  12.450  17.480  22.600
  612BOLB   C2D14686  13.000  17.420  22.540
  612BOLB   C3D14687  13.330  17.360  22.310
  612BOLB   C4D14688  13.450  17.400  21.930
  613BOLB   NC114689  21.510  28.650  16.000
  613BOLB   PO114690  21.580  29.080  16.250
  613BOLB   GL114691  21.660  29.310  16.530
  613BOLB   GL214692  21.290  29.420  16.550
  613BOLB   C1A14693  21.840  29.550  16.840
  613BOLB   C2A14694  21.750  29.710  17.160
  613BOLB   C3A14695  21.840  30.000  17.490
  613BOLB   C4A14696  21.490  30.070  17.840
  613BOLB   C1B14697  21.390  29.770  16.770
  613BOLB   C2B14698  21.600  30.170  16.870
  613BOLB   C3B14699  21.440  30.550  16.840
  613BOLB   C4B14700  21.090  30.780  16.660
  613BOLB   NC214701  21.500  32.790  18.510
  613BOLB   PO214702  21.840  32.440  18.560
  613BOLB   GL314703  21.860  31.980  18.410
  613BOLB   GL414704  22.150  31.920  18.230
  613BOLB   C1C14705  21.870  31.550  18.370
  613BOLB   C2C14706  21.770  31.090  18.460
  613BOLB   C3C14707  21.710  30.660  18.280
  613BOLB   C4C14708  21.520  30.290  18.170
  613BOLB   C1D14709  22.330  31.550  18.250
  613BOLB   C2D14710  22.480  31.130  18.040
  613BOLB   C3D14711  22.380  30.740  17.870
  613BOLB   C4D14712  22.390  30.220  17.800
  614BOLB   NC114713   7.020  16.290  19.760
  614BOLB   PO114714   6.900  16.680  19.920
  614BOLB   GL114715   7.350  16.900  19.790
  614BOLB   GL214716   7.520  16.580  19.720
  614BOLB   C1A14717   7.540  17.320  19.530
  614BOLB   C2A14718   7.700  17.380  19.130
  614BOLB   C3A14719   8.020  17.340  18.790
  614BOLB   C4A14720   8.290  17.580  18.430
  614BOLB   C1B14721   7.960  16.420  19.580
  614BOLB   C2B14722   8.430  16.200  19.500
  614BOLB   C3B14723   8.830  16.170  19.260
  614BOLB   C4B14724   9.030  15.770  19.110
  614BOLB   NC214725  10.350  19.060  18.070
  614BOLB   PO214726  10.000  18.820  17.950
  614BOLB   GL314727   9.640  18.760  18.200
  614BOLB   GL414728   9.430  18.980  18.110
  614BOLB   C1C14729   9.300  18.850  18.610
  614BOLB   C2C14730   8.990  18.630  18.750
  614BOLB   C3C14731   8.790  18.220  18.710
  614BOLB   C4C14732   8.530  17.970  18.390
  614BOLB   C1D14733   9.060  18.950  18.160
  614BOLB   C2D14734   8.710  18.930  17.810
  614BOLB   C3D14735   8.330  18.860  17.750
  614BOLB   C4D14736   8.080  19.150  17.950
  615BOLB   NC114737  10.010  24.880  12.580
  615BOLB   PO114738  10.290  25.160  12.340
  615BOLB   GL114739   9.930  25.480  12.260
  615BOLB   GL214740  10.100  25.730  12.490
  615BOLB   C1A14741   9.590  25.770  12.300
  615BOLB   C2A14742   9.230  25.840  12.220
  615BOLB   C3A14743   9.040  26.180  12.240
  615BOLB   C4A14744   8.870  26.650  12.090
  615BOLB   C1B14745   9.740  25.650  12.760
  615BOLB   C2B14746   9.320  25.580  12.680
  615BOLB   C3B14747   9.110  25.300  12.410
  615BOLB   C4B14748   9.180  24.870  12.290
  615BOLB   NC214749   7.160  27.720  12.520
  615BOLB   PO214750   7.080  28.050  12.210
  615BOLB   GL314751   7.320  27.780  12.030
  615BOLB   GL414752   7.220  27.450  12.120
  615BOLB   C1C14753   7.660  27.790  12.010
  615BOLB   C2C14754   8.010  27.560  12.150
  615BOLB   C3C14755   8.410  27.410  12.200
  615BOLB   C4C14756   8.710  27.090  12.050
  615BOLB   C1D14757   7.610  27.240  11.930
  615BOLB   C2D14758   7.690  26.850  11.720
  615BOLB   C3D14759   7.810  26.390  11.630
  615BOLB   C4D14760   7.970  25.970  11.440
  616BOLB   NC114761  15.690  16.820  18.710
  616BOLB   PO114762  15.730  16.940  19.270
  616BOLB   GL114763  15.690  16.650  19.580
  616BOLB   GL214764  15.320  16.580  19.890
  616BOLB   C1A14765  15.870  16.620  19.980
  616BOLB   C2A14766  15.980  16.480  20.330
  616BOLB   C3A14767  15.890  16.350  20.710
  616BOLB   C4A14768  15.810  16.560  21.080
  616BOLB   C1B14769  15.560  16.860  20.280
  616BOLB   C2B14770  15.620  16.740  20.670
  616BOLB   C3B14771  15.350  16.750  21.050
  616BOLB   C4B14772  14.910  16.560  21.140
  616BOLB   NC214773  15.580  16.980  23.570
  616BOLB   PO214774  15.480  16.690  23.570
  616BOLB   GL314775  15.570  16.690  23.120
  616BOLB   GL414776  15.550  17.030  23.090
  616BOLB   C1C14777  15.680  16.800  22.660
  616BOLB   C2C14778  15.820  16.960  22.190
  616BOLB   C3C14779  15.860  16.680  21.830
  616BOLB   C4C14780  15.730  16.760  21.420
  616BOLB   C1D14781  15.580  17.290  22.840
  616BOLB   C2D14782  15.730  17.470  22.530
  616BOLB   C3D14783  15.690  17.450  22.100
  616BOLB   C4D14784  15.400  17.550  21.770
  617BOLB   NC114785  12.160  14.000  16.300
  617BOLB   PO114786  11.890  13.980  16.710
  617BOLB   GL114787  11.550  13.760  16.810
  617BOLB   GL214788  11.650  13.380  16.760
  617BOLB   C1A14789  11.140  13.690  16.940
  617BOLB   C2A14790  10.830  13.470  17.240
  617BOLB   C3A14791  10.970  13.130  17.470
  617BOLB   C4A14792  10.830  12.790  17.600
  617BOLB   C1B14793  11.740  13.030  17.020
  617BOLB   C2B14794  11.830  12.640  17.110
  617BOLB   C3B14795  11.980  12.410  17.420
  617BOLB   C4B14796  12.090  12.150  17.800
  617BOLB   NC214797  10.200  10.520  19.410
  617BOLB   PO214798  10.200  10.950  19.250
  617BOLB   GL314799  10.100  11.450  19.190
  617BOLB   GL414800  10.160  11.760  19.450
  617BOLB   C1C14801  10.300  11.780  18.970
  617BOLB   C2C14802  10.430  12.010  18.660
  617BOLB   C3C14803  10.540  12.060  18.180
  617BOLB   C4C14804  10.560  12.480  17.960
  617BOLB   C1D14805  10.330  12.160  19.340
  617BOLB   C2D14806  10.400  12.590  19.520
  617BOLB   C3D14807  10.270  13.040  19.500
  617BOLB   C4D14808  10.480  13.250  19.300
  618BOLB   NC114809  23.340  16.780  15.610
  618BOLB   PO114810  23.680  16.650  15.510
  618BOLB   GL114811  23.980  16.390  15.710
  618BOLB   GL214812  24.230  16.400  15.570
  618BOLB   C1A14813  24.020  16.190  16.000
  618BOLB   C2A14814  23.950  15.950  16.390
  618BOLB   C3A14815  24.030  15.770  16.780
  618BOLB   C4A14816  24.330  15.560  16.840
  618BOLB   C1B14817  24.510  16.230  15.920
  618BOLB   C2B14818  24.790  16.130  16.150
  618BOLB   C3B14819  25.130  15.970  16.320
  618BOLB   C4B14820  25.470  16.260  16.610
  618BOLB   NC214821  26.280  13.870  17.620
  618BOLB   PO214822  26.280  14.200  17.970
  618BOLB   GL314823  25.910  14.420  17.800
  618BOLB   GL414824  25.940  14.820  17.680
  618BOLB   C1C14825  25.560  14.550  17.660
  618BOLB   C2C14826  25.260  14.900  17.700
  618BOLB   C3C14827  25.000  15.180  17.380
  618BOLB   C4C14828  24.720  15.430  17.030
  618BOLB   C1D14829  25.740  14.900  17.340
  618BOLB   C2D14830  25.560  15.290  17.120
  618BOLB   C3D14831  25.230  15.100  16.920
  618BOLB   C4D14832  24.760  14.940  16.860
  619BOLB   NC114833  22.360  29.720  12.840
  619BOLB   PO114834  22.680  29.530  13.040
  619BOLB   GL114835  23.060  29.760  13.070
  619BOLB   GL214836  23.110  29.820  13.300
  619BOLB   C1A14837  23.400  30.110  13.010
  619BOLB   C2A14838  23.620  30.430  12.730
  619BOLB   C3A14839  23.620  30.840  12.680
  619BOLB   C4A14840  23.720  31.210  12.900
  619BOLB   C1B14841  23.180  30.140  13.540
  619BOLB   C2B14842  23.380  30.490  13.740
  619BOLB   C3B14843  23.340  30.910  13.640
  619BOLB   C4B14844  23.300  31.290  13.350
  619BOLB   NC214845  26.250  32.310  13.030
  619BOLB   PO214846  25.940  32.590  13.010
  619BOLB   GL314847  25.570  32.320  13.230
  619BOLB   GL414848  25.870  32.070  13.310
  619BOLB   C1C14849  25.160  32.150  13.170
  619BOLB   C2C14850  24.760  31.920  13.070
  619BOLB   C3C14851  24.390  31.700  13.120
  619BOLB   C4C14852  24.000  31.340  13.110
  619BOLB   C1D14853  25.470  31.910  13.470
  619BOLB   C2D14854  25.170  31.530  13.570
  619BOLB   C3D14855  24.990  31.240  13.840
  619BOLB   C4D14856  24.750  30.840  13.860
  620BOLB   NC114857  26.060  23.490  11.530
  620BOLB   PO114858  26.160  23.200  11.230
  620BOLB   GL114859  26.590  23.170  11.240
  620BOLB   GL214860  26.710  23.570  11.240
  620BOLB   C1A14861  26.910  23.150  11.510
  620BOLB   C2A14862  27.460  23.090  11.630
  620BOLB   C3A14863  27.930  23.190  11.750
  620BOLB   C4A14864  28.410  23.060  11.650
  620BOLB   C1B14865  27.130  23.460  11.270
  620BOLB   C2B14866  27.530  23.380  11.220
  620BOLB   C3B14867  27.840  23.740  10.960
  620BOLB   C4B14868  28.190  23.630  10.760
  620BOLB   NC214869  29.780  22.270  10.470
  620BOLB   PO214870  29.940  22.310  10.760
  620BOLB   GL314871  29.610  22.620  10.850
  620BOLB   GL414872  29.480  22.640  10.590
  620BOLB   C1C14873  29.580  23.110  10.880
  620BOLB   C2C14874  29.280  23.360  11.090
  620BOLB   C3C14875  29.070  23.470  11.450
  620BOLB   C4C14876  28.780  23.290  11.690
  620BOLB   C1D14877  29.030  22.660  10.350
  620BOLB   C2D14878  28.600  22.640  10.580
  620BOLB   C3D14879  28.480  22.710  10.900
  620BOLB   C4D14880  28.750  22.900  11.320
  621BOLB   NC114881  26.030  23.060  10.720
  621BOLB   PO114882  26.410  22.880  10.860
  621BOLB   GL114883  26.850  22.900  10.760
  621BOLB   GL214884  27.080  23.150  10.900
  621BOLB   C1A14885  27.350  22.770  10.650
  621BOLB   C2A14886  27.730  22.920  10.450
  621BOLB   C3A14887  27.980  23.230  10.270
  621BOLB   C4A14888  28.250  23.520  10.200
  621BOLB   C1B14889  27.260  23.570  10.770
  621BOLB   C2B14890  27.140  23.660  10.270
  621BOLB   C3B14891  27.020  23.800   9.910
  621BOLB   C4B14892  26.790  24.080   9.580
  621BOLB   NC214893  29.830  25.040  10.180
  621BOLB   PO214894  29.910  24.980  10.620
  621BOLB   GL314895  29.720  24.680  10.910
  621BOLB   GL414896  29.580  24.660  11.250
  621BOLB   C1C14897  29.400  24.310  10.920
  621BOLB   C2C14898  29.070  24.160  10.800
  621BOLB   C3C14899  28.850  23.930  10.600
  621BOLB   C4C14900  28.640  23.570  10.440
  621BOLB   C1D14901  29.200  24.710  11.280
  621BOLB   C2D14902  28.800  24.420  11.200
  621BOLB   C3D14903  28.470  24.290  11.300
  621BOLB   C4D14904  28.250  24.150  11.640
  622BOLB   NC114905  20.300  20.950  20.570
  622BOLB   PO114906  20.060  21.340  20.420
  622BOLB   GL114907  20.200  21.420  20.840
  622BOLB   GL214908  20.340  21.210  21.000
  622BOLB   C1A14909  20.340  21.630  21.190
  622BOLB   C2A14910  20.420  21.740  21.590
  622BOLB   C3A14911  20.320  21.560  22.090
  622BOLB   C4A14912  20.540  21.460  22.490
  622BOLB   C1B14913  20.180  21.200  21.420
  622BOLB   C2B14914  20.130  21.190  21.840
  622BOLB   C3B14915  19.960  21.120  22.200
  622BOLB   C4B14916  19.620  20.810  22.430
  622BOLB   NC214917  20.530  20.950  24.360
  622BOLB   PO214918  20.110  20.880  24.530
  622BOLB   GL314919  20.060  21.060  24.230
  622BOLB   GL414920  20.010  21.450  24.350
  622BOLB   C1C14921  20.100  21.300  23.910
  622BOLB   C2C14922  20.500  21.380  23.720
  622BOLB   C3C14923  20.630  21.350  23.350
  622BOLB   C4C14924  20.730  21.370  22.840
  622BOLB   C1D14925  19.610  21.530  24.090
  622BOLB   C2D14926  19.310  21.560  23.790
  622BOLB   C3D14927  18.930  21.410  23.580
  622BOLB   C4D14928  18.580  21.530  23.430
  623BOLB   NC114929  13.580  27.490  15.610
  623BOLB   PO114930  13.930  27.780  15.810
  623BOLB   GL114931  13.570  27.970  15.910
  623BOLB   GL214932  13.360  27.870  16.110
  623BOLB   C1A14933  13.530  28.470  15.810
  623BOLB   C2A14934  13.360  28.910  15.680
  623BOLB   C3A14935  13.510  29.300  15.740
  623BOLB   C4A14936  13.350  29.700  15.830
  623BOLB   C1B14937  13.080  27.980  16.450
  623BOLB   C2B14938  13.120  28.490  16.600
  623BOLB   C3B14939  13.140  28.970  16.580
  623BOLB   C4B14940  12.860  29.330  16.590
  623BOLB   NC214941  12.000  31.090  17.400
  623BOLB   PO214942  11.700  30.760  17.420
  623BOLB   GL314943  12.200  30.640  17.500
  623BOLB   GL414944  12.400  30.900  17.370
  623BOLB   C1C14945  12.460  30.270  17.290
  623BOLB   C2C14946  12.710  30.090  16.990
  623BOLB   C3C14947  12.780  29.830  16.650
  623BOLB   C4C14948  13.040  29.790  16.220
  623BOLB   C1D14949  12.710  30.710  17.310
  623BOLB   C2D14950  13.210  30.700  17.190
  623BOLB   C3D14951  13.510  30.380  17.190
  623BOLB   C4D14952  13.710  30.040  17.080
  624BOLB   NC114953  16.350  24.730  19.790
  624BOLB   PO114954  16.010  24.840  19.470
  624BOLB   GL114955  15.750  25.180  19.690
  624BOLB   GL214956  15.810  25.270  19.970
  624BOLB   C1A14957  15.240  25.230  19.710
  624BOLB   C2A14958  15.050  25.240  20.090
  624BOLB   C3A14959  14.970  25.370  20.550
  624BOLB   C4A14960  15.180  25.430  20.900
  624BOLB   C1B14961  15.470  25.000  20.120
  624BOLB   C2B14962  15.490  24.650  20.310
  624BOLB   C3B14963  15.410  24.450  20.580
  624BOLB   C4B14964  15.120  24.450  20.820
  624BOLB   NC214965  15.520  26.050  22.960
  624BOLB   PO214966  15.350  26.420  22.940
  624BOLB   GL314967  15.290  26.190  22.530
  624BOLB   GL414968  15.590  26.020  22.470
  624BOLB   C1C14969  15.110  25.850  22.230
  624BOLB   C2C14970  15.080  25.440  22.170
  624BOLB   C3C14971  14.980  25.310  21.740
  624BOLB   C4C14972  15.120  25.400  21.310
  624BOLB   C1D14973  15.600  25.840  22.060
  624BOLB   C2D14974  15.540  25.530  21.660
  624BOLB   C3D14975  15.560  25.530  21.180
  624BOLB   C4D14976  15.620  25.800  20.790
  625BOLB   NC114977  17.690  26.840  18.370
  625BOLB   PO114978  17.320  27.120  18.310
  625BOLB   GL114979  17.220  27.370  18.700
  625BOLB   GL214980  17.030  27.280  19.060
  625BOLB   C1A14981  17.330  27.780  18.910
  625BOLB   C2A14982  17.270  27.890  19.300
  625BOLB   C3A14983  16.960  28.000  19.640
  625BOLB   C4A14984  16.720  28.330  19.890
  625BOLB   C1B14985  16.740  27.590  19.280
  625BOLB   C2B14986  16.450  27.970  19.480
  625BOLB   C3B14987  16.130  28.270  19.490
  625BOLB   C4B14988  15.780  28.430  19.580
  625BOLB   NC214989  14.800  30.100  20.330
  625BOLB   PO214990  14.840  29.980  20.670
  625BOLB   GL314991  15.140  29.690  20.380
  625BOLB   GL414992  15.020  29.680  20.110
  625BOLB   C1C14993  15.340  29.310  20.150
  625BOLB   C2C14994  15.830  29.030  20.250
  625BOLB   C3C14995  16.090  28.750  19.960
  625BOLB   C4C14996  16.370  28.440  19.900
  625BOLB   C1D14997  15.080  29.540  19.760
  625BOLB   C2D14998  15.340  29.800  19.480
  625BOLB   C3D14999  15.130  30.230  19.220
  625BOLB   C4D15000  14.890  30.510  19.100
  626BOLB   NC115001   9.500  22.040  11.020
  626BOLB   PO115002   9.170  22.350  10.990
  626BOLB   GL115003   8.840  22.400  10.580
  626BOLB   GL215004   8.780  22.770  10.460
  626BOLB   C1A15005   8.460  22.370  10.460
  626BOLB   C2A15006   8.030  22.440  10.590
  626BOLB   C3A15007   7.750  22.760  10.370
  626BOLB   C4A15008   7.440  22.870  10.070
  626BOLB   C1B15009   8.630  22.950  10.060
  626BOLB   C2B15010   8.430  22.870   9.660
  626BOLB   C3B15011   8.450  22.810   9.230
  626BOLB   C4B15012   8.670  22.670   8.990
  626BOLB   NC215013   5.300  23.450   9.250
  626BOLB   PO215014   5.150  23.460   9.690
  626BOLB   GL315015   5.560  23.350   9.710
  626BOLB   GL415016   5.620  23.370  10.040
  626BOLB   C1C15017   5.880  23.000   9.600
  626BOLB   C2C15018   6.380  22.960   9.700
  626BOLB   C3C15019   6.800  22.880   9.800
  626BOLB   C4C15020   7.160  23.000   9.950
  626BOLB   C1D15021   6.060  23.420   9.890
  626BOLB   C2D15022   6.440  23.320  10.180
  626BOLB   C3D15023   6.900  23.260  10.270
  626BOLB   C4D15024   7.260  23.040  10.500
  627BOLB   NC115025  21.910  26.550  19.290
  627BOLB   PO115026  22.210  26.580  18.830
  627BOLB   GL115027  22.500  26.840  19.130
  627BOLB   GL215028  22.540  27.250  19.000
  627BOLB   C1A15029  22.640  27.070  19.550
  627BOLB   C2A15030  22.700  27.430  19.730
  627BOLB   C3A15031  22.490  27.810  19.770
  627BOLB   C4A15032  22.580  28.170  20.080
  627BOLB   C1B15033  22.400  27.560  19.210
  627BOLB   C2B15034  22.230  27.790  19.330
  627BOLB   C3B15035  22.060  28.080  19.550
  627BOLB   C4B15036  22.130  28.270  20.010
  627BOLB   NC215037  22.770  29.570  21.880
  627BOLB   PO215038  23.340  29.560  21.790
  627BOLB   GL315039  23.160  29.390  21.520
  627BOLB   GL415040  23.420  29.170  21.400
  627BOLB   C1C15041  22.930  29.090  21.300
  627BOLB   C2C15042  22.790  28.790  21.110
  627BOLB   C3C15043  22.450  28.790  20.620
  627BOLB   C4C15044  22.400  28.430  20.370
  627BOLB   C1D15045  23.280  28.660  21.220
  627BOLB   C2D15046  23.120  28.540  20.790
  627BOLB   C3D15047  22.880  28.560  20.380
  627BOLB   C4D15048  22.670  28.680  20.050
  628BOLB   NC115049  24.600  17.830  13.960
  628BOLB   PO115050  24.590  18.230  14.250
  628BOLB   GL115051  24.910  17.840  14.360
  628BOLB   GL215052  25.110  17.730  14.560
  628BOLB   C1A15053  25.210  17.510  14.140
  628BOLB   C2A15054  25.580  17.340  14.150
  628BOLB   C3A15055  25.900  17.030  13.930
  628BOLB   C4A15056  26.030  16.540  13.850
  628BOLB   C1B15057  25.370  17.410  14.650
  628BOLB   C2B15058  25.800  17.140  14.620
  628BOLB   C3B15059  25.970  16.780  14.350
  628BOLB   C4B15060  26.400  16.680  14.240
  628BOLB   NC215061  27.760  14.950  13.920
  628BOLB   PO215062  27.640  14.710  14.280
  628BOLB   GL315063  27.520  15.020  14.450
  628BOLB   GL415064  27.560  15.070  14.690
  628BOLB   C1C15065  27.150  15.150  14.310
  628BOLB   C2C15066  26.820  15.410  14.280
  628BOLB   C3C15067  26.660  15.780  13.950
  628BOLB   C4C15068  26.380  16.120  13.970
  628BOLB   C1D15069  27.170  15.360  14.760
  628BOLB   C2D15070  26.910  15.740  14.800
  628BOLB   C3D15071  26.690  16.040  14.890
  628BOLB   C4D15072  26.240  16.120  15.220
  629BOLB   NC115073  12.250  25.040  16.790
  629BOLB   PO115074  12.070  25.080  16.320
  629BOLB   GL115075  11.780  25.290  16.460
  629BOLB   GL215076  11.720  25.190  16.740
  629BOLB   C1A15077  11.570  25.630  16.650
  629BOLB   C2A15078  11.670  26.110  16.890
  629BOLB   C3A15079  11.550  26.520  17.140
  629BOLB   C4A15080  11.280  26.600  17.460
  629BOLB   C1B15081  11.280  25.260  16.910
  629BOLB   C2B15082  11.030  25.690  17.030
  629BOLB   C3B15083  10.840  25.930  17.060
  629BOLB   C4B15084  10.520  25.980  17.210
  629BOLB   NC215085  10.200  28.680  19.150
  629BOLB   PO215086  10.580  28.360  19.050
  629BOLB   GL315087  10.630  28.080  18.720
  629BOLB   GL415088  10.730  28.240  18.390
  629BOLB   C1C15089  10.600  27.790  18.360
  629BOLB   C2C15090  10.590  27.490  18.050
  629BOLB   C3C15091  10.950  27.290  17.890
  629BOLB   C4C15092  11.070  26.850  17.780
  629BOLB   C1D15093  11.220  28.040  18.450
  629BOLB   C2D15094  11.490  28.260  18.210
  629BOLB   C3D15095  11.840  28.220  18.130
  629BOLB   C4D15096  12.220  28.290  18.050
  630BOLB   NC115097   9.230  24.000  11.570
  630BOLB   PO115098   9.290  23.680  11.100
  630BOLB   GL115099   8.920  23.990  11.100
  630BOLB   GL215100   8.830  23.880  10.730
  630BOLB   C1A15101   8.580  24.200  11.020
  630BOLB   C2A15102   8.550  24.530  10.740
  630BOLB   C3A15103   8.480  24.900  10.570
  630BOLB   C4A15104   8.430  25.320  10.590
  630BOLB   C1B15105   8.820  24.250  10.460
  630BOLB   C2B15106   8.830  24.680  10.300
  630BOLB   C3B15107   8.860  25.130  10.330
  630BOLB   C4B15108   9.010  25.480  10.200
  630BOLB   NC215109   6.510  27.130  10.500
  630BOLB   PO215110   6.900  27.320  10.330
  630BOLB   GL315111   6.970  26.970  10.610
  630BOLB   GL415112   6.860  26.800  10.940
  630BOLB   C1C15113   7.400  26.700  10.720
  630BOLB   C2C15114   7.810  26.410  10.610
  630BOLB   C3C15115   8.180  26.180  10.540
  630BOLB   C4C15116   8.360  25.770  10.500
  630BOLB   C1D15117   7.200  26.710  11.220
  630BOLB   C2D15118   7.110  26.480  11.560
  630BOLB   C3D15119   7.340  26.150  11.730
  630BOLB   C4D15120   7.710  25.950  11.900
  631BOLB   NC115121  19.800  22.270  20.670
  631BOLB   PO115122  19.660  21.860  20.460
  631BOLB   GL115123  19.650  21.600  20.690
  631BOLB   GL215124  19.650  21.810  20.970
  631BOLB   C1A15125  19.800  21.300  21.060
  631BOLB   C2A15126  19.600  21.240  21.470
  631BOLB   C3A15127  19.490  20.980  21.850
  631BOLB   C4A15128  19.310  21.190  22.210
  631BOLB   C1B15129  19.760  21.730  21.390
  631BOLB   C2B15130  19.950  21.870  21.800
  631BOLB   C3B15131  20.110  22.180  22.200
  631BOLB   C4B15132  20.450  22.360  22.380
  631BOLB   NC215133  19.850  20.220  24.370
  631BOLB   PO215134  19.420  20.350  24.500
  631BOLB   GL315135  19.480  20.440  24.110
  631BOLB   GL415136  19.650  20.700  24.200
  631BOLB   C1C15137  19.620  20.550  23.720
  631BOLB   C2C15138  19.710  20.840  23.290
  631BOLB   C3C15139  19.670  21.090  22.930
  631BOLB   C4C15140  19.510  21.280  22.570
  631BOLB   C1D15141  19.640  21.020  23.920
  631BOLB   C2D15142  19.660  21.300  23.560
  631BOLB   C3D15143  19.740  21.530  23.250
  631BOLB   C4D15144  19.820  21.610  22.750
  632BOLB   NC115145  18.220  18.350  20.000
  632BOLB   PO115146  17.970  18.000  20.030
  632BOLB   GL115147  18.170  17.850  20.250
  632BOLB   GL215148  17.970  17.860  20.650
  632BOLB   C1A15149  18.570  17.650  20.460
  632BOLB   C2A15150  18.850  17.390  20.730
  632BOLB   C3A15151  19.240  17.310  20.930
  632BOLB   C4A15152  19.520  17.510  21.290
  632BOLB   C1B15153  18.030  18.160  20.990
  632BOLB   C2B15154  18.230  18.110  21.330
  632BOLB   C3B15155  18.480  18.010  21.710
  632BOLB   C4B15156  18.660  18.280  22.060
  632BOLB   NC215157  19.950  16.150  24.130
  632BOLB   PO215158  19.940  16.300  23.710
  632BOLB   GL315159  19.950  16.560  23.180
  632BOLB   GL415160  19.940  16.360  22.880
  632BOLB   C1C15161  19.890  16.900  22.900
  632BOLB   C2C15162  19.860  17.230  22.560
  632BOLB   C3C15163  19.810  17.250  22.050
  632BOLB   C4C15164  19.680  17.450  21.680
  632BOLB   C1D15165  20.150  16.550  22.600
  632BOLB   C2D15166  20.170  16.690  22.220
  632BOLB   C3D15167  20.020  16.750  21.770
  632BOLB   C4D15168  19.960  16.670  21.340
  633BOLB   NC115169  17.760  28.770  16.900
  633BOLB   PO115170  18.200  28.840  17.030
  633BOLB   GL115171  18.050  29.170  17.130
  633BOLB   GL215172  18.090  29.140  17.480
  633BOLB   C1A15173  18.000  29.560  17.200
  633BOLB   C2A15174  17.890  29.890  17.460
  633BOLB   C3A15175  17.900  30.110  17.820
  633BOLB   C4A15176  18.270  30.300  18.130
  633BOLB   C1B15177  18.120  29.550  17.710
  633BOLB   C2B15178  18.120  29.720  18.130
  633BOLB   C3B15179  17.870  30.070  18.440
  633BOLB   C4B15180  17.780  30.100  18.880
  633BOLB   NC215181  17.890  31.890  20.100
  633BOLB   PO215182  18.060  31.510  20.260
  633BOLB   GL315183  18.090  31.300  19.900
  633BOLB   GL415184  18.180  31.590  19.700
  633BOLB   C1C15185  18.230  31.010  19.800
  633BOLB   C2C15186  18.390  30.850  19.420
  633BOLB   C3C15187  18.340  30.500  19.070
  633BOLB   C4C15188  18.360  30.420  18.600
  633BOLB   C1D15189  18.410  31.370  19.290
  633BOLB   C2D15190  18.480  31.150  18.890
  633BOLB   C3D15191  18.580  30.920  18.430
  633BOLB   C4D15192  18.470  31.010  18.060
  634BOLB   NC115193  21.340  27.850  17.980
  634BOLB   PO115194  20.970  27.890  18.220
  634BOLB   GL115195  21.020  27.950  18.640
  634BOLB   GL215196  21.240  27.810  18.840
  634BOLB   C1A15197  20.820  28.190  18.930
  634BOLB   C2A15198  20.920  28.650  19.150
  634BOLB   C3A15199  20.730  29.010  19.400
  634BOLB   C4A15200  20.550  29.350  19.550
  634BOLB   C1B15201  21.090  27.680  19.130
  634BOLB   C2B15202  21.250  27.780  19.440
  634BOLB   C3B15203  21.560  28.120  19.530
  634BOLB   C4B15204  21.740  28.530  19.740
  634BOLB   NC215205  22.220  31.100  20.290
  634BOLB   PO215206  22.200  30.730  20.520
  634BOLB   GL315207  21.790  30.540  20.400
  634BOLB   GL415208  21.660  30.170  20.450
  634BOLB   C1C15209  21.480  30.630  20.170
  634BOLB   C2C15210  21.260  30.410  19.880
  634BOLB   C3C15211  20.970  30.180  19.760
  634BOLB   C4C15212  20.720  29.730  19.740
  634BOLB   C1D15213  21.590  30.110  20.030
  634BOLB   C2D15214  21.720  29.670  19.840
  634BOLB   C3D15215  21.790  29.480  19.520
  634BOLB   C4D15216  22.180  29.460  19.450
  635BOLB   NC115217  23.880  28.520  14.040
  635BOLB   PO115218  24.050  28.610  13.610
  635BOLB   GL115219  24.300  29.010  13.410
  635BOLB   GL215220  24.000  29.340  13.380
  635BOLB   C1A15221  24.480  29.390  13.240
  635BOLB   C2A15222  24.520  29.760  13.000
  635BOLB   C3A15223  24.460  30.140  13.020
  635BOLB   C4A15224  24.560  30.640  12.950
  635BOLB   C1B15225  24.080  29.780  13.240
  635BOLB   C2B15226  24.100  30.070  13.460
  635BOLB   C3B15227  24.320  30.370  13.650
  635BOLB   C4B15228  24.430  30.710  13.430
  635BOLB   NC215229  26.480  32.100  12.160
  635BOLB   PO215230  26.260  32.230  12.490
  635BOLB   GL315231  25.880  32.060  12.690
  635BOLB   GL415232  25.910  31.710  12.880
  635BOLB   C1C15233  25.490  31.960  12.880
  635BOLB   C2C15234  25.160  31.630  13.100
  635BOLB   C3C15235  24.780  31.380  12.950
  635BOLB   C4C15236  24.560  31.000  12.760
  635BOLB   C1D15237  26.210  31.310  12.950
  635BOLB   C2D15238  26.320  30.910  12.870
  635BOLB   C3D15239  26.090  30.590  12.990
  635BOLB   C4D15240  25.970  30.180  13.200
  636BOLB   NC115241  25.090  20.010  15.500
  636BOLB   PO115242  25.570  19.910  15.530
  636BOLB   GL115243  25.820  19.700  15.920
  636BOLB   GL215244  25.740  19.880  16.230
  636BOLB   C1A15245  26.170  19.470  15.900
  636BOLB   C2A15246  26.530  19.510  16.120
  636BOLB   C3A15247  26.750  19.190  16.190
  636BOLB   C4A15248  27.080  18.870  16.190
  636BOLB   C1B15249  26.150  19.910  16.260
  636BOLB   C2B15250  26.580  19.760  16.570
  636BOLB   C3B15251  26.930  19.670  16.830
  636BOLB   C4B15252  27.010  19.740  17.260
  636BOLB   NC215253  28.100  16.520  17.000
  636BOLB   PO215254  28.290  16.820  16.680
  636BOLB   GL315255  28.050  17.100  16.830
  636BOLB   GL415256  27.940  16.990  17.090
  636BOLB   C1C15257  27.990  17.500  16.880
  636BOLB   C2C15258  27.960  17.850  16.650
  636BOLB   C3C15259  27.550  18.140  16.480
  636BOLB   C4C15260  27.390  18.550  16.210
  636BOLB   C1D15261  27.510  17.050  16.830
  636BOLB   C2D15262  27.240  16.920  16.640
  636BOLB   C3D15263  26.840  16.940  16.470
  636BOLB   C4D15264  26.530  17.170  16.510
  637BOLB   NC115265  12.680  26.520  14.630
  637BOLB   PO115266  12.320  26.500  14.650
  637BOLB   GL115267  12.250  26.880  14.730
  637BOLB   GL215268  12.140  26.920  15.080
  637BOLB   C1A15269  12.290  27.380  14.570
  637BOLB   C2A15270  11.990  27.640  14.530
  637BOLB   C3A15271  11.830  28.050  14.290
  637BOLB   C4A15272  11.470  28.330  14.150
  637BOLB   C1B15273  12.010  27.370  15.070
  637BOLB   C2B15274  12.160  27.820  14.930
  637BOLB   C3B15275  11.900  28.120  15.080
  637BOLB   C4B15276  11.720  28.450  15.250
  637BOLB   NC215277  10.450  30.230  15.210
  637BOLB   PO215278  10.590  30.240  14.890
  637BOLB   GL315279  10.660  29.880  14.810
  637BOLB   GL415280  10.740  29.750  15.100
  637BOLB   C1C15281  10.500  29.520  14.680
  637BOLB   C2C15282  10.610  29.130  14.520
  637BOLB   C3C15283  10.770  28.750  14.360
  637BOLB   C4C15284  11.140  28.620  14.030
  637BOLB   C1D15285  10.920  29.410  14.830
  637BOLB   C2D15286  11.250  29.100  14.880
  637BOLB   C3D15287  11.640  28.760  14.900
  637BOLB   C4D15288  12.070  28.680  14.970
  638BOLB   NC115289  16.540  12.740  15.970
  638BOLB   PO115290  16.900  12.710  16.290
  638BOLB   GL115291  17.100  12.360  16.360
  638BOLB   GL215292  17.350  12.240  16.060
  638BOLB   C1A15293  17.080  11.890  16.530
  638BOLB   C2A15294  17.300  11.530  16.730
  638BOLB   C3A15295  17.280  11.190  16.790
  638BOLB   C4A15296  17.280  10.710  16.790
  638BOLB   C1B15297  17.480  11.850  16.240
  638BOLB   C2B15298  17.730  11.500  16.370
  638BOLB   C3B15299  17.800  11.240  16.720
  638BOLB   C4B15300  17.880  10.790  16.870
  638BOLB   NC215301  16.690   8.430  17.370
  638BOLB   PO215302  16.520   8.660  17.050
  638BOLB   GL315303  16.530   9.110  17.110
  638BOLB   GL415304  16.510   9.140  16.740
  638BOLB   C1C15305  16.380   9.590  17.160
  638BOLB   C2C15306  16.410  10.020  17.260
  638BOLB   C3C15307  16.530  10.330  16.980
  638BOLB   C4C15308  16.910  10.510  16.780
  638BOLB   C1D15309  16.660   9.560  16.690
  638BOLB   C2D15310  16.710   9.940  16.680
  638BOLB   C3D15311  16.750  10.310  16.380
  638BOLB   C4D15312  16.640  10.660  16.350
  639BOLB   NC115313  10.160  25.430  11.250
  639BOLB   PO115314  10.000  25.020  11.100
  639BOLB   GL115315   9.760  25.350  11.020
  639BOLB   GL215316   9.690  25.610  10.790
  639BOLB   C1A15317   9.680  25.780  11.250
  639BOLB   C2A15318   9.590  26.210  11.210
  639BOLB   C3A15319   9.500  26.540  11.340
  639BOLB   C4A15320   9.390  26.920  11.620
  639BOLB   C1B15321   9.320  25.850  10.790
  639BOLB   C2B15322   9.100  26.130  11.140
  639BOLB   C3B15323   8.790  26.260  11.480
  639BOLB   C4B15324   8.490  26.160  11.500
  639BOLB   NC215325   8.180  28.940  11.360
  639BOLB   PO215326   7.750  28.620  11.300
  639BOLB   GL315327   7.880  28.380  11.630
  639BOLB   GL415328   8.190  28.480  11.710
  639BOLB   C1C15329   7.970  27.930  11.530
  639BOLB   C2C15330   8.330  27.610  11.570
  639BOLB   C3C15331   8.690  27.400  11.660
  639BOLB   C4C15332   9.130  27.220  11.780
  639BOLB   C1D15333   8.580  28.210  11.600
  639BOLB   C2D15334   8.580  27.940  11.290
  639BOLB   C3D15335   8.900  27.610  11.290
  639BOLB   C4D15336   9.040  27.190  11.270
  640BOLB   NC115337  12.440  19.980  18.320
  640BOLB   PO115338  12.140  19.990  18.790
  640BOLB   GL115339  12.030  20.080  19.190
  640BOLB   GL215340  11.750  20.300  19.170
  640BOLB   C1A15341  11.760  19.880  19.440
  640BOLB   C2A15342  11.880  20.010  19.920
  640BOLB   C3A15343  11.890  20.040  20.400
  640BOLB   C4A15344  11.910  19.910  20.940
  640BOLB   C1B15345  11.520  19.880  19.030
  640BOLB   C2B15346  11.090  19.680  19.090
  640BOLB   C3B15347  10.810  19.600  19.400
  640BOLB   C4B15348  10.700  19.480  19.770
  640BOLB   NC215349  10.510  20.220  22.310
  640BOLB   PO215350  10.860  20.140  22.680
  640BOLB   GL315351  11.220  20.010  22.660
  640BOLB   GL415352  11.400  20.220  22.890
  640BOLB   C1C15353  11.540  19.850  22.420
  640BOLB   C2C15354  11.860  19.740  22.170
  640BOLB   C3C15355  11.860  19.530  21.800
  640BOLB   C4C15356  11.840  19.630  21.360
  640BOLB   C1D15357  11.840  20.330  22.750
  640BOLB   C2D15358  12.100  20.290  22.460
  640BOLB   C3D15359  12.380  20.080  22.170
  640BOLB   C4D15360  12.630  19.920  21.780
  641BOLB   NC115361  25.750  20.470  13.790
  641BOLB   PO115362  25.680  20.870  14.030
  641BOLB   GL115363  25.980  20.730  14.260
  641BOLB   GL215364  25.850  20.470  14.400
  641BOLB   C1A15365  26.490  20.750  14.230
  641BOLB   C2A15366  26.880  20.800  14.500
  641BOLB   C3A15367  27.140  20.960  14.810
  641BOLB   C4A15368  27.620  20.910  14.720
  641BOLB   C1B15369  26.280  20.360  14.480
  641BOLB   C2B15370  26.680  20.290  14.260
  641BOLB   C3B15371  27.070  20.430  14.230
  641BOLB   C4B15372  27.410  20.500  14.410
  641BOLB   NC215373  30.100  19.670  14.210
  641BOLB   PO215374  29.840  20.010  14.280
  641BOLB   GL315375  29.650  20.270  14.110
  641BOLB   GL415376  29.630  20.630  14.140
  641BOLB   C1C15377  29.220  20.220  14.000
  641BOLB   C2C15378  28.840  20.160  14.300
  641BOLB   C3C15379  28.340  20.300  14.490
  641BOLB   C4C15380  27.890  20.460  14.600
  641BOLB   C1D15381  29.620  21.000  14.420
  641BOLB   C2D15382  29.580  21.380  14.370
  641BOLB   C3D15383  29.440  21.700  14.120
  641BOLB   C4D15384  28.990  21.910  14.110
  642BOLB   NC115385  17.910  22.610  20.210
  642BOLB   PO115386  17.750  22.910  20.340
  642BOLB   GL115387  17.390  22.870  20.720
  642BOLB   GL215388  17.140  23.100  20.660
  642BOLB   C1A15389  17.070  22.700  21.030
  642BOLB   C2A15390  16.940  22.820  21.350
  642BOLB   C3A15391  16.960  22.790  21.750
  642BOLB   C4A15392  16.850  22.790  22.110
  642BOLB   C1B15393  17.310  23.210  21.100
  642BOLB   C2B15394  17.110  23.310  21.510
  642BOLB   C3B15395  17.180  23.250  21.950
  642BOLB   C4B15396  17.390  22.950  22.230
  642BOLB   NC215397  17.170  21.960  24.360
  642BOLB   PO215398  17.010  22.270  24.440
  642BOLB   GL315399  17.030  22.370  24.100
  642BOLB   GL415400  17.310  22.320  23.950
  642BOLB   C1C15401  16.780  22.560  23.750
  642BOLB   C2C15402  16.770  22.810  23.370
  642BOLB   C3C15403  17.010  22.720  22.910
  642BOLB   C4C15404  17.060  22.710  22.490
  642BOLB   C1D15405  17.750  22.340  23.720
  642BOLB   C2D15406  17.930  22.360  23.330
  642BOLB   C3D15407  17.800  22.610  23.050
  642BOLB   C4D15408  17.500  22.460  22.750
  643BOLB   NC115409  22.990  17.970  17.560
  643BOLB   PO115410  23.260  17.800  17.540
  643BOLB   GL115411  23.800  17.630  17.560
  643BOLB   GL215412  23.920  17.470  17.330
  643BOLB   C1A15413  24.050  17.390  17.920
  643BOLB   C2A15414  24.270  17.120  18.150
  643BOLB   C3A15415  24.210  16.910  18.550
  643BOLB   C4A15416  24.260  16.400  18.650
  643BOLB   C1B15417  24.320  17.370  17.050
  643BOLB   C2B15418  24.780  17.320  17.190
  643BOLB   C3B15419  25.080  17.580  17.370
  643BOLB   C4B15420  25.490  17.530  17.440
  643BOLB   NC215421  26.920  15.360  19.000
  643BOLB   PO215422  26.620  15.640  18.740
  643BOLB   GL315423  26.180  15.620  18.570
  643BOLB   GL415424  26.290  15.900  18.430
  643BOLB   C1C15425  25.740  15.560  18.500
  643BOLB   C2C15426  25.280  15.560  18.450
  643BOLB   C3C15427  24.860  15.770  18.470
  643BOLB   C4C15428  24.440  16.050  18.450
  643BOLB   C1D15429  26.300  15.970  18.050
  643BOLB   C2D15430  26.080  16.270  17.710
  643BOLB   C3D15431  25.780  16.330  17.460
  643BOLB   C4D15432  25.470  16.580  17.500
  644BOLB   NC115433  18.450  23.730  19.530
  644BOLB   PO115434  18.240  23.850  19.960
  644BOLB   GL115435  18.150  23.970  20.440
  644BOLB   GL215436  17.960  23.720  20.460
  644BOLB   C1A15437  18.100  24.130  20.890
  644BOLB   C2A15438  17.960  24.120  21.300
  644BOLB   C3A15439  17.770  23.970  21.750
  644BOLB   C4A15440  17.830  24.160  22.150
  644BOLB   C1B15441  17.650  23.900  20.830
  644BOLB   C2B15442  17.590  23.830  21.320
  644BOLB   C3B15443  17.200  23.890  21.620
  644BOLB   C4B15444  16.810  23.670  21.640
  644BOLB   NC215445  18.100  25.010  24.370
  644BOLB   PO215446  17.970  24.650  24.210
  644BOLB   GL315447  17.920  24.710  23.830
  644BOLB   GL415448  18.230  24.960  23.870
  644BOLB   C1C15449  18.100  24.700  23.530
  644BOLB   C2C15450  18.080  24.940  23.130
  644BOLB   C3C15451  17.960  24.730  22.750
  644BOLB   C4C15452  18.070  24.350  22.520
  644BOLB   C1D15453  18.440  25.080  23.520
  644BOLB   C2D15454  18.600  24.980  23.090
  644BOLB   C3D15455  18.810  25.280  22.820
  644BOLB   C4D15456  19.240  25.330  22.760
  645BOLB   NC115457  19.370  19.820  20.240
  645BOLB   PO115458  19.730  20.020  20.260
  645BOLB   GL115459  19.420  20.230  20.550
  645BOLB   GL215460  19.530  20.450  20.720
  645BOLB   C1A15461  19.210  20.040  20.870
  645BOLB   C2A15462  19.180  20.220  21.320
  645BOLB   C3A15463  18.860  20.170  21.670
  645BOLB   C4A15464  18.530  20.090  21.910
  645BOLB   C1B15465  19.580  20.350  21.110
  645BOLB   C2B15466  19.720  20.050  21.490
  645BOLB   C3B15467  20.020  20.020  21.940
  645BOLB   C4B15468  20.360  19.850  22.080
  645BOLB   NC215469  17.850  19.030  24.320
  645BOLB   PO215470  17.950  18.720  23.960
  645BOLB   GL315471  18.180  18.870  23.640
  645BOLB   GL415472  18.380  19.160  23.660
  645BOLB   C1C15473  18.220  19.210  23.220
  645BOLB   C2C15474  18.330  19.590  23.030
  645BOLB   C3C15475  18.320  19.910  22.750
  645BOLB   C4C15476  18.270  20.080  22.320
  645BOLB   C1D15477  18.500  18.800  23.290
  645BOLB   C2D15478  18.440  18.780  22.910
  645BOLB   C3D15479  18.280  19.070  22.690
  645BOLB   C4D15480  18.170  19.450  22.480
  646BOLB   NC115481  11.220  19.510  18.240
  646BOLB   PO115482  10.780  19.230  18.320
  646BOLB   GL115483  10.560  19.010  18.530
  646BOLB   GL215484  10.690  18.890  18.800
  646BOLB   C1A15485  10.230  19.080  18.880
  646BOLB   C2A15486   9.940  19.340  19.140
  646BOLB   C3A15487   9.510  19.370  19.410
  646BOLB   C4A15488   9.190  19.580  19.640
  646BOLB   C1B15489  10.510  18.690  19.160
  646BOLB   C2B15490  10.400  18.480  19.530
  646BOLB   C3B15491  10.250  18.380  19.890
  646BOLB   C4B15492  10.330  18.300  20.270
  646BOLB   NC215493   7.870  21.970  20.840
  646BOLB   PO215494   7.820  21.580  20.560
  646BOLB   GL315495   8.220  21.360  20.440
  646BOLB   GL415496   8.120  21.000  20.610
  646BOLB   C1C15497   8.530  21.220  20.280
  646BOLB   C2C15498   8.610  20.740  19.980
  646BOLB   C3C15499   8.930  20.430  19.870
  646BOLB   C4C15500   8.990  20.020  19.640
  646BOLB   C1D15501   8.160  20.990  20.090
  646BOLB   C2D15502   8.500  21.190  19.720
  646BOLB   C3D15503   8.700  21.390  19.390
  646BOLB   C4D15504   8.660  21.860  19.100
  647BOLB   NC115505  24.410  27.220  10.440
  647BOLB   PO115506  24.230  27.530  10.620
  647BOLB   GL115507  24.470  27.720  10.300
  647BOLB   GL215508  24.690  27.590  10.050
  647BOLB   C1A15509  24.930  27.940  10.310
  647BOLB   C2A15510  25.100  28.240  10.700
  647BOLB   C3A15511  25.100  28.670  10.830
  647BOLB   C4A15512  25.210  29.160  10.930
  647BOLB   C1B15513  25.180  27.640   9.940
  647BOLB   C2B15514  25.600  27.660   9.780
  647BOLB   C3B15515  26.020  27.660   9.530
  647BOLB   C4B15516  26.420  27.580   9.260
  647BOLB   NC215517  26.330  31.090   9.700
  647BOLB   PO215518  26.660  30.890   9.780
  647BOLB   GL315519  26.210  30.650   9.880
  647BOLB   GL415520  26.380  30.390   9.770
  647BOLB   C1C15521  25.950  30.310  10.000
  647BOLB   C2C15522  25.540  30.100  10.000
  647BOLB   C3C15523  25.190  29.980  10.260
  647BOLB   C4C15524  25.190  29.570  10.490
  647BOLB   C1D15525  26.550  29.970   9.910
  647BOLB   C2D15526  26.390  29.550  10.150
  647BOLB   C3D15527  26.600  29.290  10.410
  647BOLB   C4D15528  26.610  28.860  10.510
  648BOLB   NC115529  22.060  27.160  18.830
  648BOLB   PO115530  21.740  26.960  19.020
  648BOLB   GL115531  21.880  27.170  19.370
  648BOLB   GL215532  21.970  27.030  19.600
  648BOLB   C1A15533  22.190  27.420  19.680
  648BOLB   C2A15534  22.430  27.500  20.180
  648BOLB   C3A15535  22.860  27.730  20.160
  648BOLB   C4A15536  23.290  27.880  20.150
  648BOLB   C1B15537  22.330  26.870  19.810
  648BOLB   C2B15538  22.630  27.050  20.190
  648BOLB   C3B15539  22.810  26.890  20.710
  648BOLB   C4B15540  22.840  26.710  21.190
  648BOLB   NC215541  24.350  28.970  21.690
  648BOLB   PO215542  24.070  29.260  21.560
  648BOLB   GL315543  23.950  28.830  21.410
  648BOLB   GL415544  23.900  28.680  21.640
  648BOLB   C1C15545  23.920  28.510  21.110
  648BOLB   C2C15546  23.960  28.210  20.770
  648BOLB   C3C15547  23.950  27.770  20.600
  648BOLB   C4C15548  23.680  27.670  20.310
  648BOLB   C1D15549  23.440  28.700  21.650
  648BOLB   C2D15550  22.940  28.680  21.670
  648BOLB   C3D15551  22.590  28.450  21.460
  648BOLB   C4D15552  22.250  28.470  21.080
  649BOLB   NC115553  15.760  21.850  19.880
  649BOLB   PO115554  15.900  22.120  20.100
  649BOLB   GL115555  15.600  22.100  20.440
  649BOLB   GL215556  15.580  21.870  20.580
  649BOLB   C1A15557  15.330  22.290  20.780
  649BOLB   C2A15558  15.020  22.510  20.830
  649BOLB   C3A15559  15.020  22.580  21.230
  649BOLB   C4A15560  15.010  22.720  21.520
  649BOLB   C1B15561  15.450  21.860  20.970
  649BOLB   C2B15562  15.270  22.070  21.280
  649BOLB   C3B15563  15.260  22.270  21.630
  649BOLB   C4B15564  15.380  22.250  22.080
  649BOLB   NC215565  14.000  23.260  24.030
  649BOLB   PO215566  13.800  23.300  23.580
  649BOLB   GL315567  14.150  23.130  23.520
  649BOLB   GL415568  14.250  23.410  23.300
  649BOLB   C1C15569  14.440  22.940  23.140
  649BOLB   C2C15570  14.710  22.860  22.750
  649BOLB   C3C15571  14.930  22.660  22.430
  649BOLB   C4C15572  15.040  22.650  21.930
  649BOLB   C1D15573  14.840  23.320  23.290
  649BOLB   C2D15574  15.050  23.090  23.000
  649BOLB   C3D15575  15.350  22.760  22.710
  649BOLB   C4D15576  15.540  22.670  22.270
  650BOLB   NC115577  14.670  27.810  16.350
  650BOLB   PO115578  15.040  27.920  16.540
  650BOLB   GL115579  14.770  28.150  16.770
  650BOLB   GL215580  14.510  28.160  16.820
  650BOLB   C1A15581  14.780  28.440  17.080
  650BOLB   C2A15582  14.690  28.780  17.350
  650BOLB   C3A15583  14.400  29.170  17.540
  650BOLB   C4A15584  13.980  29.340  17.420
  650BOLB   C1B15585  14.380  28.510  16.490
  650BOLB   C2B15586  14.200  28.930  16.490
  650BOLB   C3B15587  13.990  29.370  16.580
  650BOLB   C4B15588  14.090  29.740  16.890
  650BOLB   NC215589  12.200  31.440  18.170
  650BOLB   PO215590  12.650  31.380  18.110
  650BOLB   GL315591  12.930  31.160  17.830
  650BOLB   GL415592  12.760  30.780  17.820
  650BOLB   C1C15593  13.250  30.960  17.630
  650BOLB   C2C15594  13.520  30.690  17.680
  650BOLB   C3C15595  13.580  30.130  17.630
  650BOLB   C4C15596  13.830  29.820  17.560
  650BOLB   C1D15597  13.090  30.460  17.730
  650BOLB   C2D15598  13.080  30.190  17.360
  650BOLB   C3D15599  13.150  29.830  17.090
  650BOLB   C4D15600  13.270  29.520  16.820
  651BOLB   NC115601  24.660  22.680  18.130
  651BOLB   PO115602  24.340  23.050  18.270
  651BOLB   GL115603  24.610  23.260  18.590
  651BOLB   GL215604  24.450  23.230  18.740
  651BOLB   C1A15605  24.980  23.310  18.890
  651BOLB   C2A15606  25.240  23.220  19.260
  651BOLB   C3A15607  25.610  23.110  19.400
  651BOLB   C4A15608  25.740  22.900  19.800
  651BOLB   C1B15609  24.570  23.370  19.130
  651BOLB   C2B15610  24.780  23.320  19.400
  651BOLB   C3B15611  25.050  23.300  19.710
  651BOLB   C4B15612  25.410  23.350  19.940
  651BOLB   NC215613  26.350  22.690  22.130
  651BOLB   PO215614  26.530  23.100  22.150
  651BOLB   GL315615  26.350  23.210  21.730
  651BOLB   GL415616  26.440  22.940  21.630
  651BOLB   C1C15617  25.920  23.090  21.470
  651BOLB   C2C15618  25.850  23.030  21.020
  651BOLB   C3C15619  25.730  22.990  20.620
  651BOLB   C4C15620  25.790  23.090  20.200
  651BOLB   C1D15621  26.540  22.420  21.400
  651BOLB   C2D15622  26.310  22.280  21.070
  651BOLB   C3D15623  26.270  22.220  20.700
  651BOLB   C4D15624  26.320  22.340  20.320
  652BOLB   NC115625  14.200  22.380  19.510
  652BOLB   PO115626  14.400  22.770  19.280
  652BOLB   GL115627  14.190  23.060  19.620
  652BOLB   GL215628  13.920  22.820  19.620
  652BOLB   C1A15629  13.830  23.260  19.890
  652BOLB   C2A15630  13.620  23.490  20.270
  652BOLB   C3A15631  13.660  23.880  20.500
  652BOLB   C4A15632  13.720  24.040  20.970
  652BOLB   C1B15633  13.910  22.720  20.110
  652BOLB   C2B15634  13.740  22.610  20.470
  652BOLB   C3B15635  13.750  22.530  20.930
  652BOLB   C4B15636  13.780  22.170  21.220
  652BOLB   NC215637  12.690  25.280  23.140
  652BOLB   PO215638  12.430  25.250  22.780
  652BOLB   GL315639  12.600  25.260  22.260
  652BOLB   GL415640  12.890  25.180  22.270
  652BOLB   C1C15641  12.680  24.870  21.880
  652BOLB   C2C15642  13.050  24.590  21.880
  652BOLB   C3C15643  13.350  24.390  21.610
  652BOLB   C4C15644  13.670  24.300  21.310
  652BOLB   C1D15645  13.140  25.130  22.050
  652BOLB   C2D15646  13.380  24.900  21.640
  652BOLB   C3D15647  13.290  24.740  21.220
  652BOLB   C4D15648  13.270  24.410  20.750
  653BOLB   NC115649  19.440  27.060   7.560
  653BOLB   PO115650  19.120  26.960   7.170
  653BOLB   GL115651  19.070  27.240   6.830
  653BOLB   GL215652  19.250  26.950   6.610
  653BOLB   C1A15653  19.150  27.490   6.510
  653BOLB   C2A15654  19.130  27.580   6.060
  653BOLB   C3A15655  19.020  27.770   5.640
  653BOLB   C4A15656  18.800  27.730   5.290
  653BOLB   C1B15657  19.160  26.830   6.150
  653BOLB   C2B15658  19.170  27.040   5.830
  653BOLB   C3B15659  19.390  27.430   5.650
  653BOLB   C4B15660  19.830  27.490   5.420
  653BOLB   NC215661  19.260  29.140   3.570
  653BOLB   PO215662  19.390  28.750   3.500
  653BOLB   GL315663  19.550  28.620   3.910
  653BOLB   GL415664  19.530  28.360   4.050
  653BOLB   C1C15665  19.440  28.770   4.350
  653BOLB   C2C15666  19.190  28.570   4.620
  653BOLB   C3C15667  18.900  28.230   4.760
  653BOLB   C4C15668  18.790  27.840   4.850
  653BOLB   C1D15669  19.330  28.140   4.440
  653BOLB   C2D15670  19.290  28.060   4.980
  653BOLB   C3D15671  19.390  27.710   5.110
  653BOLB   C4D15672  19.460  27.260   5.110
  654BOLB   NC115673  16.160  16.760  19.430
  654BOLB   PO115674  16.190  16.270  19.510
  654BOLB   GL115675  16.190  16.120  19.840
  654BOLB   GL215676  16.610  16.010  19.940
  654BOLB   C1A15677  16.330  16.170  20.290
  654BOLB   C2A15678  16.670  15.960  20.460
  654BOLB   C3A15679  16.740  15.510  20.570
  654BOLB   C4A15680  16.580  15.260  20.820
  654BOLB   C1B15681  16.370  15.680  20.100
  654BOLB   C2B15682  16.160  15.380  20.380
  654BOLB   C3B15683  16.130  15.090  20.770
  654BOLB   C4B15684  16.190  15.180  21.130
  654BOLB   NC215685  17.410  15.280  23.310
  654BOLB   PO215686  17.250  14.870  23.170
  654BOLB   GL315687  17.030  15.050  22.850
  654BOLB   GL415688  16.810  15.280  22.990
  654BOLB   C1C15689  17.000  15.120  22.430
  654BOLB   C2C15690  17.050  15.300  22.000
  654BOLB   C3C15691  16.910  15.200  21.650
  654BOLB   C4C15692  16.720  15.120  21.240
  654BOLB   C1D15693  16.590  15.010  22.710
  654BOLB   C2D15694  16.430  15.090  22.250
  654BOLB   C3D15695  16.140  14.970  21.930
  654BOLB   C4D15696  16.260  14.920  21.580
  655BOLB   NC115697  13.600  20.340  24.100
  655BOLB   PO115698  14.000  20.370  24.210
  655BOLB   GL115699  14.260  20.370  23.810
  655BOLB   GL215700  14.120  20.090  23.630
  655BOLB   C1A15701  14.290  20.570  23.400
  655BOLB   C2A15702  14.360  20.500  23.010
  655BOLB   C3A15703  14.340  20.570  22.530
  655BOLB   C4A15704  14.220  20.430  22.120
  655BOLB   C1B15705  13.920  20.140  23.200
  655BOLB   C2B15706  13.800  19.740  23.150
  655BOLB   C3B15707  13.900  19.490  22.960
  655BOLB   C4B15708  13.940  19.060  23.110
  655BOLB   NC215709  12.920  20.650  23.640
  655BOLB   PO215710  12.540  20.870  23.480
  655BOLB   GL315711  12.750  20.900  23.190
  655BOLB   GL415712  12.740  21.180  23.020
  655BOLB   C1C15713  12.900  20.710  22.820
  655BOLB   C2C15714  13.040  20.530  22.440
  655BOLB   C3C15715  13.510  20.460  22.290
  655BOLB   C4C15716  13.840  20.360  22.090
  655BOLB   C1D15717  12.590  21.130  22.640
  655BOLB   C2D15718  12.730  20.920  22.230
  655BOLB   C3D15719  12.910  20.810  21.830
  655BOLB   C4D15720  13.110  20.570  21.410
  656BOLB   NC115721  23.240  21.570  19.100
  656BOLB   PO115722  23.510  21.200  19.050
  656BOLB   GL115723  23.610  20.910  19.370
  656BOLB   GL215724  23.320  21.010  19.450
  656BOLB   C1A15725  23.890  20.740  19.710
  656BOLB   C2A15726  24.220  20.400  19.950
  656BOLB   C3A15727  24.410  20.270  20.250
  656BOLB   C4A15728  24.710  20.180  20.520
  656BOLB   C1B15729  23.450  20.980  19.910
  656BOLB   C2B15730  23.730  20.790  20.150
  656BOLB   C3B15731  24.160  20.920  20.180
  656BOLB   C4B15732  24.550  20.760  20.290
  656BOLB   NC215733  26.170  19.150  22.190
  656BOLB   PO215734  26.140  19.190  21.760
  656BOLB   GL315735  25.760  19.170  21.750
  656BOLB   GL415736  25.680  19.080  21.460
  656BOLB   C1C15737  25.510  19.520  21.640
  656BOLB   C2C15738  25.270  19.610  21.340
  656BOLB   C3C15739  24.900  19.760  21.120
  656BOLB   C4C15740  24.860  19.980  20.800
  656BOLB   C1D15741  25.210  19.060  21.330
  656BOLB   C2D15742  24.940  19.270  21.070
  656BOLB   C3D15743  24.530  19.490  20.960
  656BOLB   C4D15744  24.350  19.900  21.090
  657BOLB   NC115745  16.830  28.820  16.560
  657BOLB   PO115746  17.230  28.780  16.910
  657BOLB   GL115747  17.330  29.100  17.080
  657BOLB   GL215748  17.560  29.140  17.140
  657BOLB   C1A15749  17.110  29.430  17.260
  657BOLB   C2A15750  16.960  29.700  17.600
  657BOLB   C3A15751  16.920  30.020  17.950
  657BOLB   C4A15752  17.080  29.960  18.360
  657BOLB   C1B15753  17.550  29.460  17.470
  657BOLB   C2B15754  17.560  29.710  17.790
  657BOLB   C3B15755  17.450  30.080  18.050
  657BOLB   C4B15756  17.500  30.440  18.380
  657BOLB   NC215757  17.960  32.220  19.470
  657BOLB   PO215758  17.740  31.920  19.670
  657BOLB   GL315759  17.800  31.700  19.360
  657BOLB   GL415760  17.810  31.820  19.060
  657BOLB   C1C15761  17.520  31.400  19.130
  657BOLB   C2C15762  17.170  31.110  19.040
  657BOLB   C3C15763  17.240  30.660  18.880
  657BOLB   C4C15764  17.210  30.140  18.660
  657BOLB   C1D15765  17.960  31.440  18.880
  657BOLB   C2D15766  18.310  31.450  18.580
  657BOLB   C3D15767  18.770  31.400  18.450
  657BOLB   C4D15768  18.990  31.870  18.510
  658BOLB   NC115769  18.510  26.470  20.030
  658BOLB   PO115770  18.950  26.370  19.960
  658BOLB   GL115771  19.000  26.230  20.330
  658BOLB   GL215772  18.730  26.260  20.430
  658BOLB   C1A15773  19.290  26.120  20.590
  658BOLB   C2A15774  19.410  26.160  21.020
  658BOLB   C3A15775  19.500  26.320  21.430
  658BOLB   C4A15776  19.640  26.500  21.750
  658BOLB   C1B15777  18.910  26.230  20.870
  658BOLB   C2B15778  19.070  26.310  21.310
  658BOLB   C3B15779  19.210  25.940  21.620
  658BOLB   C4B15780  19.450  25.560  21.730
  658BOLB   NC215781  21.710  27.550  22.710
  658BOLB   PO215782  21.490  27.790  22.970
  658BOLB   GL315783  21.110  27.540  22.760
  658BOLB   GL415784  21.280  27.200  22.790
  658BOLB   C1C15785  20.750  27.320  22.580
  658BOLB   C2C15786  20.460  27.000  22.550
  658BOLB   C3C15787  20.100  26.940  22.370
  658BOLB   C4C15788  19.770  26.770  22.140
  658BOLB   C1D15789  21.320  27.190  22.360
  658BOLB   C2D15790  21.310  27.300  21.890
  658BOLB   C3D15791  21.220  27.130  21.380
  658BOLB   C4D15792  21.410  27.080  21.080
  659BOLB   NC115793  11.440  21.550  17.420
  659BOLB   PO115794  11.420  21.450  17.780
  659BOLB   GL115795  11.230  21.680  18.180
  659BOLB   GL215796  11.340  21.990  18.260
  659BOLB   C1A15797  10.940  21.780  18.500
  659BOLB   C2A15798  10.810  21.920  18.850
  659BOLB   C3A15799  10.480  21.840  19.100
  659BOLB   C4A15800  10.370  21.850  19.490
  659BOLB   C1B15801  11.100  22.250  18.480
  659BOLB   C2B15802  11.160  22.630  18.660
  659BOLB   C3B15803  11.210  23.120  18.600
  659BOLB   C4B15804  10.920  23.490  18.640
  659BOLB   NC215805  10.350  21.890  21.980
  659BOLB   PO215806  10.360  22.180  21.800
  659BOLB   GL315807  10.440  22.010  21.470
  659BOLB   GL415808  10.650  21.730  21.550
  659BOLB   C1C15809  10.520  21.680  21.090
  659BOLB   C2C15810  10.270  21.500  20.710
  659BOLB   C3C15811  10.340  21.730  20.290
  659BOLB   C4C15812  10.320  21.780  19.880
  659BOLB   C1D15813  10.980  21.510  21.380
  659BOLB   C2D15814  11.250  21.380  21.060
  659BOLB   C3D15815  11.150  21.170  20.610
  659BOLB   C4D15816  11.300  20.810  20.370
  660BOLB   NC115817  21.630  15.580  16.510
  660BOLB   PO115818  21.500  15.340  16.720
  660BOLB   GL115819  21.640  15.000  16.780
  660BOLB   GL215820  22.010  15.030  16.690
  660BOLB   C1A15821  21.570  14.710  17.170
  660BOLB   C2A15822  21.630  14.390  17.390
  660BOLB   C3A15823  21.950  14.170  17.620
  660BOLB   C4A15824  21.970  14.150  18.050
  660BOLB   C1B15825  22.440  14.960  16.780
  660BOLB   C2B15826  22.680  14.690  16.710
  660BOLB   C3B15827  23.090  14.470  16.720
  660BOLB   C4B15828  23.390  14.170  16.750
  660BOLB   NC215829  23.090  12.200  18.970
  660BOLB   PO215830  23.260  12.390  18.530
  660BOLB   GL315831  23.360  12.870  18.490
  660BOLB   GL415832  23.580  12.850  18.210
  660BOLB   C1C15833  23.210  13.240  18.470
  660BOLB   C2C15834  22.810  13.500  18.520
  660BOLB   C3C15835  22.660  13.870  18.290
  660BOLB   C4C15836  22.230  14.070  18.320
  660BOLB   C1D15837  23.620  13.120  17.980
  660BOLB   C2D15838  23.240  13.310  17.700
  660BOLB   C3D15839  23.060  13.600  17.490
  660BOLB   C4D15840  22.840  13.930  17.390
  661BOLB   NC115841  12.450  17.300  19.250
  661BOLB   PO115842  12.740  17.420  19.310
  661BOLB   GL115843  12.640  17.350  19.680
  661BOLB   GL215844  12.790  17.300  19.940
  661BOLB   C1A15845  12.290  17.290  19.950
  661BOLB   C2A15846  12.090  16.980  20.070
  661BOLB   C3A15847  11.680  16.770  20.230
  661BOLB   C4A15848  11.400  16.820  20.520
  661BOLB   C1B15849  12.640  17.050  20.230
  661BOLB   C2B15850  12.560  16.860  20.610
  661BOLB   C3B15851  12.220  16.780  21.010
  661BOLB   C4B15852  12.310  16.590  21.320
  661BOLB   NC215853   9.550  15.680  22.230
  661BOLB   PO215854   9.720  16.040  22.280
  661BOLB   GL315855  10.060  16.200  22.090
  661BOLB   GL415856  10.390  16.210  22.150
  661BOLB   C1C15857  10.180  16.520  21.740
  661BOLB   C2C15858  10.470  16.610  21.450
  661BOLB   C3C15859  10.860  16.680  21.120
  661BOLB   C4C15860  10.970  16.700  20.690
  661BOLB   C1D15861  10.640  16.440  21.910
  661BOLB   C2D15862  10.840  16.250  21.530
  661BOLB   C3D15863  11.180  16.150  21.360
  661BOLB   C4D15864  11.660  16.170  21.200
  662BOLB   NC115865  15.420  18.290  19.880
  662BOLB   PO115866  15.610  18.600  20.010
  662BOLB   GL115867  15.450  18.530  20.390
  662BOLB   GL215868  15.700  18.700  20.590
  662BOLB   C1A15869  15.230  18.300  20.690
  662BOLB   C2A15870  15.220  18.210  21.070
  662BOLB   C3A15871  15.110  18.000  21.510
  662BOLB   C4A15872  14.920  17.690  21.740
  662BOLB   C1B15873  15.730  18.440  20.980
  662BOLB   C2B15874  15.650  18.310  21.350
  662BOLB   C3B15875  15.700  18.490  21.700
  662BOLB   C4B15876  15.400  18.600  21.980
  662BOLB   NC215877  13.830  17.130  23.740
  662BOLB   PO215878  14.190  17.010  23.850
  662BOLB   GL315879  14.190  17.100  23.400
  662BOLB   GL415880  14.460  16.990  23.310
  662BOLB   C1C15881  14.070  16.930  22.960
  662BOLB   C2C15882  14.120  17.040  22.650
  662BOLB   C3C15883  14.410  17.340  22.430
  662BOLB   C4C15884  14.670  17.500  21.990
  662BOLB   C1D15885  14.610  16.840  22.860
  662BOLB   C2D15886  14.780  16.930  22.450
  662BOLB   C3D15887  14.560  17.020  22.090
  662BOLB   C4D15888  14.270  17.120  21.700
  663BOLB   NC115889  16.060  18.510  19.810
  663BOLB   PO115890  16.260  18.900  20.020
  663BOLB   GL115891  16.310  18.990  20.450
  663BOLB   GL215892  16.530  18.790  20.540
  663BOLB   C1A15893  16.190  19.070  20.810
  663BOLB   C2A15894  16.020  18.890  21.130
  663BOLB   C3A15895  15.730  18.950  21.390
  663BOLB   C4A15896  15.640  19.040  21.740
  663BOLB   C1B15897  16.610  18.930  20.970
  663BOLB   C2B15898  16.460  19.070  21.300
  663BOLB   C3B15899  16.240  18.960  21.660
  663BOLB   C4B15900  16.200  18.700  22.020
  663BOLB   NC215901  15.600  18.390  24.150
  663BOLB   PO215902  16.020  18.110  24.120
  663BOLB   GL315903  16.060  18.400  23.740
  663BOLB   GL415904  16.330  18.520  23.490
  663BOLB   C1C15905  15.850  18.550  23.350
  663BOLB   C2C15906  15.770  18.760  22.930
  663BOLB   C3C15907  15.710  18.710  22.480
  663BOLB   C4C15908  15.720  18.960  22.110
  663BOLB   C1D15909  16.220  18.600  23.030
  663BOLB   C2D15910  16.560  18.460  22.800
  663BOLB   C3D15911  16.950  18.310  22.580
  663BOLB   C4D15912  17.240  18.330  22.200
  664BOLB   NC115913  12.710  23.900  17.860
  664BOLB   PO115914  12.560  24.220  17.620
  664BOLB   GL115915  12.360  24.330  17.940
  664BOLB   GL215916  12.650  24.510  18.030
  664BOLB   C1A15917  12.050  24.310  18.170
  664BOLB   C2A15918  11.700  24.390  18.420
  664BOLB   C3A15919  11.490  24.570  18.790
  664BOLB   C4A15920  11.190  24.500  19.040
  664BOLB   C1B15921  12.700  24.850  18.150
  664BOLB   C2B15922  12.500  25.180  18.330
  664BOLB   C3B15923  12.480  25.410  18.700
  664BOLB   C4B15924  12.420  25.530  19.150
  664BOLB   NC215925   9.390  26.040  19.730
  664BOLB   PO215926   9.840  26.050  19.710
  664BOLB   GL315927  10.210  25.900  19.640
  664BOLB   GL415928  10.360  26.210  19.510
  664BOLB   C1C15929  10.410  25.580  19.410
  664BOLB   C2C15930  10.580  25.240  19.480
  664BOLB   C3C15931  10.750  24.890  19.560
  664BOLB   C4C15932  10.870  24.640  19.270
  664BOLB   C1D15933  10.760  26.110  19.240
  664BOLB   C2D15934  11.220  26.090  19.120
  664BOLB   C3D15935  11.520  25.940  18.960
  664BOLB   C4D15936  11.790  25.840  18.470
  665BOLB   NC115937  18.880  20.620  20.040
  665BOLB   PO115938  18.450  20.640  20.320
  665BOLB   GL115939  18.220  20.540  20.620
  665BOLB   GL215940  17.880  20.400  20.610
  665BOLB   C1A15941  18.300  20.510  21.050
  665BOLB   C2A15942  18.280  20.450  21.520
  665BOLB   C3A15943  18.370  20.600  21.920
  665BOLB   C4A15944  18.580  20.450  22.290
  665BOLB   C1B15945  17.720  20.240  20.980
  665BOLB   C2B15946  17.700  20.420  21.310
  665BOLB   C3B15947  17.410  20.530  21.600
  665BOLB   C4B15948  17.430  20.810  21.960
  665BOLB   NC215949  18.300  19.780  24.470
  665BOLB   PO215950  18.650  19.690  24.260
  665BOLB   GL315951  18.920  19.880  24.030
  665BOLB   GL415952  19.070  20.170  24.190
  665BOLB   C1C15953  18.790  20.030  23.660
  665BOLB   C2C15954  18.660  20.370  23.460
  665BOLB   C3C15955  18.720  20.480  23.050
  665BOLB   C4C15956  18.610  20.360  22.700
  665BOLB   C1D15957  18.880  20.460  23.890
  665BOLB   C2D15958  19.130  20.470  23.550
  665BOLB   C3D15959  19.220  20.750  23.120
  665BOLB   C4D15960  19.210  20.970  22.760
  666BOLB   NC115961  26.600  24.380  14.120
  666BOLB   PO115962  26.660  24.360  14.510
  666BOLB   GL115963  27.010  24.510  14.400
  666BOLB   GL215964  27.260  24.320  14.490
  666BOLB   C1A15965  27.230  24.860  14.420
  666BOLB   C2A15966  27.590  25.120  14.160
  666BOLB   C3A15967  28.040  25.290  14.050
  666BOLB   C4A15968  28.450  25.230  13.860
  666BOLB   C1B15969  27.640  24.560  14.620
  666BOLB   C2B15970  27.980  24.670  14.310
  666BOLB   C3B15971  28.240  24.670  13.890
  666BOLB   C4B15972  28.320  24.290  13.810
  666BOLB   NC215973  30.540  25.250  13.410
  666BOLB   PO215974  30.450  24.950  13.680
  666BOLB   GL315975  30.030  24.930  13.650
  666BOLB   GL415976  29.920  24.660  13.560
  666BOLB   C1C15977  29.670  25.210  13.620
  666BOLB   C2C15978  29.360  25.430  13.790
  666BOLB   C3C15979  29.030  25.240  13.840
  666BOLB   C4C15980  28.700  25.520  13.930
  666BOLB   C1D15981  29.500  24.780  13.460
  666BOLB   C2D15982  29.150  24.950  13.450
  666BOLB   C3D15983  28.710  25.040  13.470
  666BOLB   C4D15984  28.640  24.670  13.590
  667BOLB   NC115985  16.690  23.940  20.120
  667BOLB   PO115986  16.590  23.600  20.400
  667BOLB   GL115987  16.590  23.480  20.760
  667BOLB   GL215988  16.380  23.670  20.940
  667BOLB   C1A15989  16.750  23.360  21.210
  667BOLB   C2A15990  16.670  23.180  21.680
  667BOLB   C3A15991  16.700  23.220  22.160
  667BOLB   C4A15992  17.040  23.300  22.450
  667BOLB   C1B15993  16.420  23.640  21.390
  667BOLB   C2B15994  16.080  23.850  21.660
  667BOLB   C3B15995  15.830  24.160  21.650
  667BOLB   C4B15996  15.630  24.530  21.640
  667BOLB   NC215997  16.680  24.760  23.990
  667BOLB   PO215998  16.750  24.350  24.240
  667BOLB   GL315999  17.060  24.210  23.960
  667BOLB   GL416000  17.190  24.490  23.850
  667BOLB   C1C16001  17.290  23.990  23.690
  667BOLB   C2C16002  17.360  24.050  23.250
  667BOLB   C3C16003  17.350  23.810  22.890
  667BOLB   C4C16004  17.100  23.630  22.700
  667BOLB   C1D16005  17.040  24.500  23.470
  667BOLB   C2D16006  17.040  24.570  22.920
  667BOLB   C3D16007  17.150  24.630  22.490
  667BOLB   C4D16008  17.520  24.570  22.280
  668BOLB   NC116009  23.350  26.620  18.410
  668BOLB   PO116010  23.720  26.410  18.300
  668BOLB   GL116011  23.830  26.610  18.630
  668BOLB   GL216012  24.100  26.790  18.560
  668BOLB   C1A16013  23.890  26.880  18.990
  668BOLB   C2A16014  24.010  26.900  19.370
  668BOLB   C3A16015  24.180  27.230  19.680
  668BOLB   C4A16016  24.100  27.250  20.050
  668BOLB   C1B16017  24.020  27.260  18.760
  668BOLB   C2B16018  23.990  27.610  18.780
  668BOLB   C3B16019  24.210  27.940  18.910
  668BOLB   C4B16020  24.280  28.210  19.240
  668BOLB   NC216021  25.220  28.490  21.630
  668BOLB   PO216022  25.330  28.750  21.300
  668BOLB   GL316023  24.980  28.640  21.010
  668BOLB   GL416024  24.820  28.390  21.210
  668BOLB   C1C16025  25.080  28.230  20.750
  668BOLB   C2C16026  24.930  27.880  20.560
  668BOLB   C3C16027  24.660  27.610  20.420
  668BOLB   C4C16028  24.320  27.520  20.350
  668BOLB   C1D16029  24.720  27.920  21.170
  668BOLB   C2D16030  24.760  27.520  20.890
  668BOLB   C3D16031  24.930  27.220  20.910
  668BOLB   C4D16032  24.960  26.950  21.250
  669BOLB   NC116033  20.600  28.260  18.020
  669BOLB   PO116034  20.260  28.040  18.070
  669BOLB   GL116035  20.440  27.960  18.450
  669BOLB   GL216036  20.640  28.260  18.470
  669BOLB   C1A16037  20.330  28.270  18.830
  669BOLB   C2A16038  20.470  28.350  19.310
  669BOLB   C3A16039  20.290  28.690  19.590
  669BOLB   C4A16040  20.120  29.010  19.690
  669BOLB   C1B16041  20.630  28.650  18.770
  669BOLB   C2B16042  20.690  29.130  18.920
  669BOLB   C3B16043  20.880  29.440  19.190
  669BOLB   C4B16044  20.920  29.830  19.310
  669BOLB   NC216045  20.580  31.380  21.090
  669BOLB   PO216046  20.480  31.040  20.850
  669BOLB   GL316047  20.730  30.740  20.650
  669BOLB   GL416048  21.000  30.670  20.780
  669BOLB   C1C16049  20.820  30.370  20.350
  669BOLB   C2C16050  20.660  30.060  20.190
  669BOLB   C3C16051  20.330  29.860  20.010
  669BOLB   C4C16052  20.210  29.490  19.850
  669BOLB   C1D16053  21.270  30.320  20.640
  669BOLB   C2D16054  21.170  30.070  20.190
  669BOLB   C3D16055  21.210  29.660  19.940
  669BOLB   C4D16056  21.300  29.470  19.480
  670BOLB   NC116057  13.370  13.450  16.150
  670BOLB   PO116058  12.980  13.500  16.390
  670BOLB   GL116059  13.160  13.160  16.570
  670BOLB   GL216060  13.370  12.870  16.770
  670BOLB   C1A16061  12.920  12.820  16.890
  670BOLB   C2A16062  12.800  12.460  17.050
  670BOLB   C3A16063  12.980  12.180  17.310
  670BOLB   C4A16064  13.180  11.850  17.620
  670BOLB   C1B16065  13.350  12.560  17.150
  670BOLB   C2B16066  13.360  12.540  17.640
  670BOLB   C3B16067  13.340  12.530  18.060
  670BOLB   C4B16068  13.410  12.430  18.400
  670BOLB   NC216069  14.400   9.760  19.160
  670BOLB   PO216070  13.950   9.990  19.100
  670BOLB   GL316071  13.790  10.360  18.930
  670BOLB   GL416072  13.710  10.480  19.220
  670BOLB   C1C16073  13.780  10.720  18.700
  670BOLB   C2C16074  13.690  11.110  18.470
  670BOLB   C3C16075  13.510  11.440  18.220
  670BOLB   C4C16076  13.210  11.500  17.880
  670BOLB   C1D16077  13.320  10.780  19.030
  670BOLB   C2D16078  13.260  10.930  18.660
  670BOLB   C3D16079  13.100  11.140  18.300
  670BOLB   C4D16080  12.890  11.550  18.270
  671BOLB   NC116081  20.270  16.200  18.780
  671BOLB   PO116082  19.890  15.940  18.760
  671BOLB   GL116083  19.910  15.720  19.180
  671BOLB   GL216084  19.600  15.600  19.190
  671BOLB   C1A16085  20.100  15.640  19.570
  671BOLB   C2A16086  19.920  15.380  19.870
  671BOLB   C3A16087  20.060  15.200  20.270
  671BOLB   C4A16088  20.410  15.430  20.590
  671BOLB   C1B16089  19.540  15.560  19.580
  671BOLB   C2B16090  19.630  15.040  19.690
  671BOLB   C3B16091  19.900  14.710  19.630
  671BOLB   C4B16092  20.350  14.510  19.580
  671BOLB   NC216093  21.530  15.040  22.380
  671BOLB   PO216094  21.230  14.970  22.720
  671BOLB   GL316095  20.980  14.980  22.380
  671BOLB   GL416096  20.620  15.100  22.380
  671BOLB   C1C16097  20.840  15.200  21.930
  671BOLB   C2C16098  20.670  15.380  21.660
  671BOLB   C3C16099  20.430  15.580  21.360
  671BOLB   C4C16100  20.220  15.350  21.020
  671BOLB   C1D16101  20.350  15.280  22.180
  671BOLB   C2D16102  20.110  15.410  21.860
  671BOLB   C3D16103  19.790  15.390  21.510
  671BOLB   C4D16104  19.760  15.160  21.180
  672BOLB   NC116105  22.490  21.590  19.550
  672BOLB   PO116106  22.900  21.300  19.470
  672BOLB   GL116107  22.980  21.290  19.780
  672BOLB   GL216108  22.790  21.460  19.990
  672BOLB   C1A16109  23.310  21.530  20.090
  672BOLB   C2A16110  23.640  21.610  20.370
  672BOLB   C3A16111  23.600  21.510  20.820
  672BOLB   C4A16112  23.710  21.630  21.320
  672BOLB   C1B16113  22.920  21.520  20.420
  672BOLB   C2B16114  23.050  21.490  20.900
  672BOLB   C3B16115  23.060  21.180  21.180
  672BOLB   C4B16116  23.370  20.990  21.500
  672BOLB   NC216117  24.560  21.180  23.670
  672BOLB   PO216118  24.560  20.940  23.270
  672BOLB   GL316119  24.230  21.210  23.040
  672BOLB   GL416120  23.950  21.410  23.090
  672BOLB   C1C16121  24.100  21.210  22.580
  672BOLB   C2C16122  23.670  21.170  22.290
  672BOLB   C3C16123  23.500  21.450  22.030
  672BOLB   C4C16124  23.520  21.540  21.670
  672BOLB   C1D16125  23.560  21.470  22.780
  672BOLB   C2D16126  23.170  21.680  22.810
  672BOLB   C3D16127  22.870  21.990  22.480
  672BOLB   C4D16128  22.490  22.010  22.160
  673BOLB   NC116129  16.810  20.110  20.210
  673BOLB   PO116130  16.380  20.320  20.220
  673BOLB   GL116131  16.190  20.320  20.630
  673BOLB   GL216132  16.130  20.590  20.640
  673BOLB   C1A16133  16.020  19.990  20.850
  673BOLB   C2A16134  15.710  19.760  21.110
  673BOLB   C3A16135  15.510  19.520  21.350
  673BOLB   C4A16136  15.550  19.530  21.830
  673BOLB   C1B16137  15.910  20.420  21.080
  673BOLB   C2B16138  15.640  20.240  21.310
  673BOLB   C3B16139  15.310  19.970  21.460
  673BOLB   C4B16140  14.910  20.060  21.540
  673BOLB   NC216141  15.700  19.110  24.400
  673BOLB   PO216142  15.830  19.550  24.260
  673BOLB   GL316143  15.860  19.570  23.820
  673BOLB   GL416144  16.050  19.570  23.570
  673BOLB   C1C16145  15.480  19.710  23.480
  673BOLB   C2C16146  15.320  19.740  22.990
  673BOLB   C3C16147  15.560  19.460  22.580
  673BOLB   C4C16148  15.710  19.580  22.180
  673BOLB   C1D16149  15.930  19.680  23.160
  673BOLB   C2D16150  15.990  19.700  22.770
  673BOLB   C3D16151  16.190  19.590  22.520
  673BOLB   C4D16152  16.560  19.480  22.220
  674BOLB   NC116153  21.140  26.620  18.640
  674BOLB   PO116154  21.140  26.990  18.820
  674BOLB   GL116155  21.190  27.170  19.170
  674BOLB   GL216156  21.480  27.380  19.140
  674BOLB   C1A16157  21.380  27.280  19.630
  674BOLB   C2A16158  21.670  27.380  19.850
  674BOLB   C3A16159  21.920  27.290  20.130
  674BOLB   C4A16160  21.950  27.350  20.480
  674BOLB   C1B16161  21.730  27.670  19.430
  674BOLB   C2B16162  21.910  27.800  19.900
  674BOLB   C3B16163  22.220  27.900  20.280
  674BOLB   C4B16164  22.590  27.780  20.550
  674BOLB   NC216165  22.810  29.020  22.490
  674BOLB   PO216166  22.600  28.710  22.400
  674BOLB   GL316167  22.720  28.310  22.230
  674BOLB   GL416168  22.590  28.020  22.300
  674BOLB   C1C16169  22.730  28.010  21.760
  674BOLB   C2C16170  22.610  27.880  21.390
  674BOLB   C3C16171  22.470  27.640  21.070
  674BOLB   C4C16172  22.410  27.340  20.740
  674BOLB   C1D16173  22.300  28.120  22.010
  674BOLB   C2D16174  22.200  28.080  21.610
  674BOLB   C3D16175  22.070  27.880  21.220
  674BOLB   C4D16176  21.870  27.710  20.870
  675BOLB   NC116177  25.170  18.980  16.090
  675BOLB   PO116178  25.230  19.070  16.490
  675BOLB   GL116179  25.570  18.900  16.670
  675BOLB   GL216180  25.800  19.100  16.750
  675BOLB   C1A16181  25.490  18.870  17.180
  675BOLB   C2A16182  25.820  18.890  17.530
  675BOLB   C3A16183  26.220  18.660  17.640
  675BOLB   C4A16184  26.570  18.550  17.480
  675BOLB   C1B16185  26.030  18.910  17.060
  675BOLB   C2B16186  26.480  19.020  17.270
  675BOLB   C3B16187  26.740  19.010  17.640
  675BOLB   C4B16188  26.950  19.330  17.810
  675BOLB   NC216189  28.350  16.490  17.920
  675BOLB   PO216190  27.860  16.500  17.890
  675BOLB   GL316191  27.480  16.840  17.960
  675BOLB   GL416192  27.100  16.770  17.990
  675BOLB   C1C16193  27.280  17.200  17.850
  675BOLB   C2C16194  27.150  17.570  18.020
  675BOLB   C3C16195  26.910  17.850  17.780
  675BOLB   C4C16196  26.860  18.230  17.580
  675BOLB   C1D16197  26.890  16.890  17.680
  675BOLB   C2D16198  26.780  17.320  17.470
  675BOLB   C3D16199  26.470  17.710  17.580
  675BOLB   C4D16200  26.140  17.670  17.350
  676BOLB   NC116201  23.010  23.030  18.680
  676BOLB   PO116202  23.150  23.070  19.070
  676BOLB   GL116203  23.280  22.990  19.480
  676BOLB   GL216204  23.230  23.280  19.650
  676BOLB   C1A16205  23.450  22.880  19.880
  676BOLB   C2A16206  23.780  22.670  20.230
  676BOLB   C3A16207  24.040  22.620  20.580
  676BOLB   C4A16208  24.240  22.700  20.980
  676BOLB   C1B16209  23.300  23.620  19.980
  676BOLB   C2B16210  23.430  23.820  20.430
  676BOLB   C3B16211  23.330  23.950  20.790
  676BOLB   C4B16212  23.260  23.990  21.250
  676BOLB   NC216213  26.500  21.910  22.440
  676BOLB   PO216214  26.240  22.200  22.220
  676BOLB   GL316215  25.850  22.470  22.090
  676BOLB   GL416216  25.910  22.760  21.840
  676BOLB   C1C16217  25.460  22.690  22.170
  676BOLB   C2C16218  25.060  22.830  21.960
  676BOLB   C3C16219  24.910  22.660  21.610
  676BOLB   C4C16220  24.660  22.760  21.200
  676BOLB   C1D16221  25.980  22.560  21.410
  676BOLB   C2D16222  25.830  22.260  21.160
  676BOLB   C3D16223  25.460  22.190  20.880
  676BOLB   C4D16224  25.250  22.480  20.720
  677BOLB   NC116225  20.680  28.980  15.250
  677BOLB   PO116226  20.630  29.390  15.400
  677BOLB   GL116227  21.000  29.660  15.550
  677BOLB   GL216228  21.230  29.860  15.380
  677BOLB   C1A16229  21.020  30.130  15.810
  677BOLB   C2A16230  21.070  30.480  16.000
  677BOLB   C3A16231  21.160  30.920  16.120
  677BOLB   C4A16232  21.290  31.190  16.340
  677BOLB   C1B16233  21.260  30.290  15.270
  677BOLB   C2B16234  21.240  30.650  15.440
  677BOLB   C3B16235  21.490  30.900  15.560
  677BOLB   C4B16236  21.820  31.160  15.370
  677BOLB   NC216237  20.600  33.520  16.810
  677BOLB   PO216238  20.880  33.620  17.110
  677BOLB   GL316239  20.970  33.220  17.060
  677BOLB   GL416240  20.670  33.060  16.800
  677BOLB   C1C16241  21.010  32.800  16.990
  677BOLB   C2C16242  20.960  32.400  16.760
  677BOLB   C3C16243  21.080  32.030  16.590
  677BOLB   C4C16244  21.180  31.540  16.550
  677BOLB   C1D16245  20.680  32.810  16.510
  677BOLB   C2D16246  20.590  32.790  16.130
  677BOLB   C3D16247  20.440  32.360  15.910
  677BOLB   C4D16248  20.390  31.940  16.120
  678BOLB   NC116249  12.450  25.980  15.830
  678BOLB   PO116250  12.660  26.370  15.710
  678BOLB   GL116251  12.400  26.780  15.670
  678BOLB   GL216252  12.250  27.050  16.030
  678BOLB   C1A16253  11.930  26.860  15.610
  678BOLB   C2A16254  11.460  26.970  15.750
  678BOLB   C3A16255  11.320  27.420  15.790
  678BOLB   C4A16256  11.150  27.770  15.810
  678BOLB   C1B16257  12.080  27.360  16.360
  678BOLB   C2B16258  11.770  27.360  16.580
  678BOLB   C3B16259  11.710  27.150  16.870
  678BOLB   C4B16260  11.730  26.940  17.290
  678BOLB   NC216261   9.610  29.090  17.140
  678BOLB   PO216262   9.900  29.310  17.380
  678BOLB   GL316263  10.190  28.990  17.130
  678BOLB   GL416264  10.240  28.720  17.220
  678BOLB   C1C16265  10.570  28.820  16.900
  678BOLB   C2C16266  10.500  28.460  16.640
  678BOLB   C3C16267  10.540  28.210  16.280
  678BOLB   C4C16268  10.890  28.060  16.040
  678BOLB   C1D16269  10.560  28.400  17.160
  678BOLB   C2D16270  10.990  28.330  16.900
  678BOLB   C3D16271  11.420  28.180  16.800
  678BOLB   C4D16272  11.560  27.740  16.850
  679BOLB   NC116273  20.190  21.810  20.510
  679BOLB   PO116274  20.260  22.140  20.800
  679BOLB   GL116275  20.110  22.440  21.030
  679BOLB   GL216276  19.770  22.450  21.160
  679BOLB   C1A16277  20.140  22.710  21.370
  679BOLB   C2A16278  20.080  22.640  21.730
  679BOLB   C3A16279  20.180  22.720  22.000
  679BOLB   C4A16280  20.080  22.860  22.450
  679BOLB   C1B16281  19.910  22.210  21.490
  679BOLB   C2B16282  20.280  22.200  21.740
  679BOLB   C3B16283  20.670  21.930  21.970
  679BOLB   C4B16284  20.760  21.860  22.350
  679BOLB   NC216285  20.080  22.690  24.870
  679BOLB   PO216286  20.360  22.380  24.740
  679BOLB   GL316287  20.420  22.630  24.260
  679BOLB   GL416288  20.400  22.960  24.390
  679BOLB   C1C16289  20.280  22.460  23.900
  679BOLB   C2C16290  20.190  22.520  23.420
  679BOLB   C3C16291  19.830  22.670  23.150
  679BOLB   C4C16292  19.800  22.830  22.770
  679BOLB   C1D16293  20.000  22.820  24.130
  679BOLB   C2D16294  19.790  22.510  23.880
  679BOLB   C3D16295  19.470  22.410  23.500
  679BOLB   C4D16296  19.150  22.300  23.120
  680BOLB   NC116297  24.880  26.840  15.210
  680BOLB   PO116298  24.980  26.420  15.520
  680BOLB   GL116299  25.330  26.710  15.590
  680BOLB   GL216300  25.190  26.850  15.820
  680BOLB   C1A16301  25.710  26.610  15.790
  680BOLB   C2A16302  26.110  26.800  15.890
  680BOLB   C3A16303  26.390  27.050  16.200
  680BOLB   C4A16304  26.780  27.270  16.340
  680BOLB   C1B16305  25.480  26.960  16.200
  680BOLB   C2B16306  25.930  27.040  16.510
  680BOLB   C3B16307  26.280  27.110  16.710
  680BOLB   C4B16308  26.700  26.920  16.800
  680BOLB   NC216309  28.810  28.530  17.210
  680BOLB   PO216310  28.360  28.490  17.370
  680BOLB   GL316311  28.300  28.130  17.160
  680BOLB   GL416312  28.090  27.890  17.310
  680BOLB   C1C16313  28.330  27.880  16.760
  680BOLB   C2C16314  27.970  27.650  16.610
  680BOLB   C3C16315  27.520  27.380  16.610
  680BOLB   C4C16316  27.080  27.160  16.530
  680BOLB   C1D16317  27.900  28.100  16.960
  680BOLB   C2D16318  27.570  28.120  16.580
  680BOLB   C3D16319  27.060  28.170  16.550
  680BOLB   C4D16320  26.770  27.820  16.410
  681BOLB   NC116321  16.840  24.500  20.450
  681BOLB   PO116322  16.740  24.490  20.040
  681BOLB   GL116323  16.330  24.760  20.340
  681BOLB   GL216324  16.350  24.720  20.630
  681BOLB   C1A16325  16.020  25.080  20.350
  681BOLB   C2A16326  16.050  25.560  20.440
  681BOLB   C3A16327  15.930  25.960  20.370
  681BOLB   C4A16328  15.570  26.270  20.470
  681BOLB   C1B16329  16.490  25.110  20.970
  681BOLB   C2B16330  16.370  25.320  21.400
  681BOLB   C3B16331  16.050  25.600  21.460
  681BOLB   C4B16332  15.850  25.870  21.490
  681BOLB   NC216333  15.340  26.920  22.860
  681BOLB   PO216334  15.060  26.610  22.570
  681BOLB   GL316335  15.010  26.600  22.110
  681BOLB   GL416336  14.960  26.240  22.020
  681BOLB   C1C16337  14.920  26.650  21.660
  681BOLB   C2C16338  14.890  26.690  21.170
  681BOLB   C3C16339  15.090  26.590  20.780
  681BOLB   C4C16340  15.220  26.330  20.530
  681BOLB   C1D16341  14.810  26.150  21.580
  681BOLB   C2D16342  14.950  25.840  21.260
  681BOLB   C3D16343  15.190  25.970  20.910
  681BOLB   C4D16344  15.160  25.840  20.520
  682BOLB   NC116345  17.160  15.820  18.660
  682BOLB   PO116346  17.170  15.530  18.920
  682BOLB   GL116347  17.130  15.130  19.250
  682BOLB   GL216348  17.110  15.290  19.530
  682BOLB   C1A16349  17.390  14.910  19.590
  682BOLB   C2A16350  17.630  14.710  19.860
  682BOLB   C3A16351  17.560  14.300  19.910
  682BOLB   C4A16352  17.330  13.990  20.110
  682BOLB   C1B16353  17.440  15.370  19.910
  682BOLB   C2B16354  17.540  15.070  20.240
  682BOLB   C3B16355  17.530  14.830  20.580
  682BOLB   C4B16356  17.840  14.650  20.820
  682BOLB   NC216357  17.940  12.720  22.320
  682BOLB   PO216358  17.520  12.820  22.210
  682BOLB   GL316359  17.500  13.220  22.010
  682BOLB   GL416360  17.710  13.390  22.220
  682BOLB   C1C16361  17.660  13.360  21.600
  682BOLB   C2C16362  17.560  13.680  21.230
  682BOLB   C3C16363  17.420  13.990  20.950
  682BOLB   C4C16364  17.170  14.010  20.540
  682BOLB   C1D16365  17.630  13.750  21.920
  682BOLB   C2D16366  17.440  13.930  21.650
  682BOLB   C3D16367  17.100  13.890  21.330
  682BOLB   C4D16368  16.710  14.060  21.310
  683BOLB   NC116369  10.750  16.760  17.050
  683BOLB   PO116370  10.330  16.580  16.900
  683BOLB   GL116371  10.020  16.400  16.760
  683BOLB   GL216372  10.050  16.000  16.800
  683BOLB   C1A16373   9.570  16.260  16.820
  683BOLB   C2A16374   9.340  15.980  16.960
  683BOLB   C3A16375   9.190  15.760  17.310
  683BOLB   C4A16376   9.080  15.390  17.470
  683BOLB   C1B16377   9.730  15.820  16.720
  683BOLB   C2B16378   9.510  15.670  16.460
  683BOLB   C3B16379   9.080  15.500  16.290
  683BOLB   C4B16380   8.680  15.470  16.290
  683BOLB   NC216381   7.700  14.430  16.570
  683BOLB   PO216382   7.490  14.720  16.920
  683BOLB   GL316383   7.350  15.090  17.180
  683BOLB   GL416384   7.380  15.340  16.930
  683BOLB   C1C16385   7.600  15.170  17.590
  683BOLB   C2C16386   8.000  15.340  17.790
  683BOLB   C3C16387   8.360  15.330  17.930
  683BOLB   C4C16388   8.780  15.370  17.830
  683BOLB   C1D16389   7.600  15.540  17.230
  683BOLB   C2D16390   7.990  15.620  17.150
  683BOLB   C3D16391   8.480  15.450  16.960
  683BOLB   C4D16392   8.510  15.120  16.690
  684BOLB   NC116393  22.020  15.020  15.450
  684BOLB   PO116394  22.460  15.160  15.530
  684BOLB   GL116395  22.540  14.810  15.400
  684BOLB   GL216396  22.620  14.800  15.090
  684BOLB   C1A16397  22.980  14.600  15.400
  684BOLB   C2A16398  23.200  14.520  15.830
  684BOLB   C3A16399  23.620  14.450  15.950
  684BOLB   C4A16400  23.870  14.230  15.640
  684BOLB   C1B16401  22.800  14.460  14.930
  684BOLB   C2B16402  23.150  14.340  14.960
  684BOLB   C3B16403  23.540  14.180  14.900
  684BOLB   C4B16404  23.680  14.250  14.500
  684BOLB   NC216405  24.750  12.070  16.280
  684BOLB   PO216406  24.720  12.150  15.880
  684BOLB   GL316407  24.720  12.540  16.050
  684BOLB   GL416408  25.030  12.800  16.060
  684BOLB   C1C16409  24.560  12.990  16.130
  684BOLB   C2C16410  24.410  13.120  15.790
  684BOLB   C3C16411  24.240  13.420  15.680
  684BOLB   C4C16412  24.070  13.800  15.660
  684BOLB   C1D16413  25.000  13.110  15.720
  684BOLB   C2D16414  24.950  13.380  15.280
  684BOLB   C3D16415  24.700  13.490  14.950
  684BOLB   C4D16416  24.540  13.710  14.720
  685BOLB   NC116417  18.090  16.000  18.240
  685BOLB   PO116418  18.110  15.590  18.570
  685BOLB   GL116419  18.190  15.170  18.880
  685BOLB   GL216420  18.390  14.750  18.890
  685BOLB   C1A16421  18.320  15.020  19.310
  685BOLB   C2A16422  18.350  14.740  19.660
  685BOLB   C3A16423  18.350  14.610  20.070
  685BOLB   C4A16424  18.260  14.440  20.570
  685BOLB   C1B16425  18.500  14.370  19.180
  685BOLB   C2B16426  18.540  14.230  19.530
  685BOLB   C3B16427  18.860  13.920  19.690
  685BOLB   C4B16428  19.280  13.840  19.800
  685BOLB   NC216429  17.810  13.500  22.740
  685BOLB   PO216430  18.170  13.560  22.560
  685BOLB   GL316431  18.230  13.530  22.230
  685BOLB   GL416432  18.420  13.710  22.080
  685BOLB   C1C16433  18.130  13.440  21.860
  685BOLB   C2C16434  17.990  13.740  21.550
  685BOLB   C3C16435  18.170  13.980  21.280
  685BOLB   C4C16436  18.200  14.200  20.890
  685BOLB   C1D16437  18.460  14.150  21.960
  685BOLB   C2D16438  18.540  14.290  21.580
  685BOLB   C3D16439  18.640  14.230  21.110
  685BOLB   C4D16440  18.700  14.550  20.830
  686BOLB   NC116441  23.880  20.090  18.440
  686BOLB   PO116442  24.020  19.610  18.490
  686BOLB   GL116443  24.140  19.410  18.840
  686BOLB   GL216444  24.440  19.190  18.860
  686BOLB   C1A16445  24.060  19.310  19.310
  686BOLB   C2A16446  24.160  18.960  19.600
  686BOLB   C3A16447  23.960  18.740  19.880
  686BOLB   C4A16448  23.720  18.360  20.020
  686BOLB   C1B16449  24.510  19.120  19.280
  686BOLB   C2B16450  24.580  19.080  19.790
  686BOLB   C3B16451  24.710  19.290  20.220
  686BOLB   C4B16452  25.020  19.090  20.470
  686BOLB   NC216453  24.740  16.800  21.820
  686BOLB   PO216454  24.820  17.210  21.660
  686BOLB   GL316455  24.690  17.190  21.250
  686BOLB   GL416456  24.630  16.920  21.110
  686BOLB   C1C16457  24.410  17.400  21.040
  686BOLB   C2C16458  24.100  17.600  20.820
  686BOLB   C3C16459  23.820  17.790  20.700
  686BOLB   C4C16460  23.680  18.110  20.460
  686BOLB   C1D16461  24.190  16.910  21.140
  686BOLB   C2D16462  24.210  17.110  20.680
  686BOLB   C3D16463  24.080  17.240  20.360
  686BOLB   C4D16464  23.990  17.630  20.240
  687BOLB   NC116465  11.790  18.820  18.630
  687BOLB   PO116466  11.660  18.360  18.580
  687BOLB   GL116467  11.400  18.700  18.950
  687BOLB   GL216468  11.370  18.960  19.080
  687BOLB   C1A16469  10.990  18.690  19.230
  687BOLB   C2A16470  10.830  18.740  19.570
  687BOLB   C3A16471  10.540  18.900  19.770
  687BOLB   C4A16472  10.090  18.870  19.850
  687BOLB   C1B16473  11.270  19.070  19.470
  687BOLB   C2B16474  11.090  19.180  19.880
  687BOLB   C3B16475  10.810  19.170  20.130
  687BOLB   C4B16476  10.640  18.860  20.330
  687BOLB   NC216477   8.670  20.230  21.270
  687BOLB   PO216478   8.340  20.040  21.510
  687BOLB   GL316479   8.510  19.920  20.970
  687BOLB   GL416480   8.310  19.980  20.710
  687BOLB   C1C16481   8.700  19.640  20.640
  687BOLB   C2C16482   8.970  19.530  20.170
  687BOLB   C3C16483   9.250  19.270  20.140
  687BOLB   C4C16484   9.620  19.040  19.840
  687BOLB   C1D16485   8.370  19.950  20.350
  687BOLB   C2D16486   8.570  19.930  19.850
  687BOLB   C3D16487   8.570  19.880  19.390
  687BOLB   C4D16488   8.230  19.990  19.090
  688BOLB   NC116489  20.450  29.560  14.900
  688BOLB   PO116490  20.400  29.890  15.100
  688BOLB   GL116491  20.530  30.210  15.370
  688BOLB   GL216492  20.780  30.320  15.240
  688BOLB   C1A16493  20.590  30.400  15.810
  688BOLB   C2A16494  20.650  30.820  16.150
  688BOLB   C3A16495  20.760  31.150  16.430
  688BOLB   C4A16496  20.840  31.230  16.820
  688BOLB   C1B16497  20.720  30.740  15.110
  688BOLB   C2B16498  20.870  31.060  15.170
  688BOLB   C3B16499  20.860  31.560  15.180
  688BOLB   C4B16500  20.980  31.880  14.960
  688BOLB   NC216501  20.790  33.460  18.220
  688BOLB   PO216502  20.900  32.870  18.260
  688BOLB   GL316503  20.860  32.460  18.240
  688BOLB   GL416504  21.240  32.390  18.250
  688BOLB   C1C16505  20.820  31.990  18.100
  688BOLB   C2C16506  20.970  31.790  17.830
  688BOLB   C3C16507  20.920  31.450  17.600
  688BOLB   C4C16508  20.720  31.190  17.340
  688BOLB   C1D16509  21.310  32.080  18.190
  688BOLB   C2D16510  21.410  31.590  18.110
  688BOLB   C3D16511  21.470  31.160  18.090
  688BOLB   C4D16512  21.490  30.820  17.830
  689BOLB   NC116513  15.890  14.410  18.060
  689BOLB   PO116514  15.910  14.160  17.650
  689BOLB   GL116515  16.110  13.830  17.840
  689BOLB   GL216516  16.460  13.820  17.990
  689BOLB   C1A16517  16.180  13.420  18.170
  689BOLB   C2A16518  16.110  13.090  18.360
  689BOLB   C3A16519  16.170  12.970  18.650
  689BOLB   C4A16520  16.440  12.790  19.020
  689BOLB   C1B16521  16.490  13.740  18.430
  689BOLB   C2B16522  16.440  13.530  18.760
  689BOLB   C3B16523  16.270  13.350  19.210
  689BOLB   C4B16524  16.260  13.450  19.690
  689BOLB   NC216525  16.450  12.410  21.480
  689BOLB   PO216526  16.580  11.950  21.420
  689BOLB   GL316527  16.790  12.060  20.970
  689BOLB   GL416528  16.750  12.350  21.030
  689BOLB   C1C16529  16.960  12.070  20.540
  689BOLB   C2C16530  16.840  12.090  20.130
  689BOLB   C3C16531  16.720  12.280  19.640
  689BOLB   C4C16532  16.570  12.550  19.320
  689BOLB   C1D16533  16.530  12.380  20.570
  689BOLB   C2D16534  16.260  12.560  20.340
  689BOLB   C3D16535  16.370  12.940  20.050
  689BOLB   C4D16536  16.520  13.410  20.100
  690BOLB   NC116537  11.750  26.040  14.740
  690BOLB   PO116538  11.360  25.890  14.890
  690BOLB   GL116539  11.090  26.150  15.030
  690BOLB   GL216540  10.990  26.270  14.800
  690BOLB   C1A16541  11.030  26.670  15.180
  690BOLB   C2A16542  11.080  27.180  15.440
  690BOLB   C3A16543  11.190  27.660  15.230
  690BOLB   C4A16544  11.220  28.130  15.070
  690BOLB   C1B16545  10.720  26.640  14.810
  690BOLB   C2B16546  10.680  27.010  14.920
  690BOLB   C3B16547  10.760  27.450  15.140
  690BOLB   C4B16548  10.760  27.810  15.450
  690BOLB   NC216549   9.350  29.270  15.410
  690BOLB   PO216550   9.520  29.670  15.120
  690BOLB   GL316551   9.730  29.370  14.990
  690BOLB   GL416552   9.990  29.350  14.900
  690BOLB   C1C16553   9.690  28.900  15.050
  690BOLB   C2C16554   9.960  28.560  15.010
  690BOLB   C3C16555  10.450  28.580  15.070
  690BOLB   C4C16556  10.770  28.300  15.190
  690BOLB   C1D16557  10.100  29.110  14.720
  690BOLB   C2D16558  10.350  28.710  14.560
  690BOLB   C3D16559  10.380  28.360  14.270
  690BOLB   C4D16560  10.300  27.910  14.400
  691BOLB   NC116561  20.920  14.260  10.680
  691BOLB   PO116562  20.430  14.370  10.620
  691BOLB   GL116563  20.660  14.110  10.230
  691BOLB   GL216564  20.730  13.830  10.330
  691BOLB   C1A16565  21.170  14.100  10.090
  691BOLB   C2A16566  21.570  14.100  10.130
  691BOLB   C3A16567  22.020  13.960   9.950
  691BOLB   C4A16568  22.230  13.570   9.870
  691BOLB   C1B16569  20.600  13.390  10.210
  691BOLB   C2B16570  20.960  13.230  10.100
  691BOLB   C3B16571  21.520  13.060  10.080
  691BOLB   C4B16572  21.940  13.120   9.920
  691BOLB   NC216573  23.740  12.050   8.830
  691BOLB   PO216574  23.590  12.420   8.560
  691BOLB   GL316575  23.410  12.720   8.670
  691BOLB   GL416576  23.120  12.780   8.530
  691BOLB   C1C16577  23.360  12.950   9.050
  691BOLB   C2C16578  23.320  13.230   9.320
  691BOLB   C3C16579  22.890  13.300   9.530
  691BOLB   C4C16580  22.630  13.430   9.890
  691BOLB   C1D16581  23.000  12.890   8.260
  691BOLB   C2D16582  22.620  13.010   8.080
  691BOLB   C3D16583  22.440  13.380   7.860
  691BOLB   C4D16584  22.230  13.800   7.840
  692BOLB   NC116585  18.060  21.140  20.040
  692BOLB   PO116586  17.920  20.740  20.250
  692BOLB   GL116587  17.870  20.910  20.600
  692BOLB   GL216588  17.650  20.840  20.790
  692BOLB   C1A16589  18.020  20.940  21.040
  692BOLB   C2A16590  18.030  20.860  21.500
  692BOLB   C3A16591  17.880  20.550  21.840
  692BOLB   C4A16592  17.970  20.480  22.230
  692BOLB   C1B16593  17.500  20.920  21.270
  692BOLB   C2B16594  17.220  21.080  21.650
  692BOLB   C3B16595  16.940  20.990  21.980
  692BOLB   C4B16596  16.960  20.720  22.140
  692BOLB   NC216597  18.420  18.800  24.090
  692BOLB   PO216598  18.780  19.150  24.100
  692BOLB   GL316599  18.780  19.480  23.790
  692BOLB   GL416600  19.010  19.630  23.560
  692BOLB   C1C16601  18.430  19.680  23.540
  692BOLB   C2C16602  18.390  19.960  23.330
  692BOLB   C3C16603  18.270  20.360  23.010
  692BOLB   C4C16604  18.100  20.500  22.600
  692BOLB   C1D16605  18.800  19.690  23.230
  692BOLB   C2D16606  18.780  19.940  22.870
  692BOLB   C3D16607  18.880  20.050  22.390
  692BOLB   C4D16608  19.280  20.110  22.010
  693BOLB   NC116609  11.640  22.900  17.790
  693BOLB   PO116610  11.440  22.480  17.970
  693BOLB   GL116611  11.240  22.750  18.160
  693BOLB   GL216612  10.900  22.670  18.140
  693BOLB   C1A16613  11.070  23.190  18.110
  693BOLB   C2A16614  10.910  23.580  17.900
  693BOLB   C3A16615  10.760  24.040  17.930
  693BOLB   C4A16616  10.910  24.510  17.940
  693BOLB   C1B16617  10.740  22.930  18.500
  693BOLB   C2B16618  10.800  23.050  18.950
  693BOLB   C3B16619  10.820  23.130  19.430
  693BOLB   C4B16620  10.660  23.440  19.780
  693BOLB   NC216621   9.200  25.020  19.980
  693BOLB   PO216622   9.230  25.220  19.550
  693BOLB   GL316623   9.560  25.170  19.280
  693BOLB   GL416624   9.580  25.340  19.190
  693BOLB   C1C16625   9.960  25.070  19.110
  693BOLB   C2C16626  10.240  25.020  18.750
  693BOLB   C3C16627  10.620  25.140  18.550
  693BOLB   C4C16628  10.770  24.870  18.190
  693BOLB   C1D16629   9.920  25.500  18.860
  693BOLB   C2D16630  10.210  25.460  18.480
  693BOLB   C3D16631  10.390  25.250  18.010
  693BOLB   C4D16632  10.430  25.030  17.570
  694BOLB   NC116633  16.560  25.670  19.450
  694BOLB   PO116634  16.120  25.570  19.610
  694BOLB   GL116635  15.830  25.810  19.910
  694BOLB   GL216636  15.510  25.670  19.770
  694BOLB   C1A16637  15.450  26.110  19.960
  694BOLB   C2A16638  15.090  26.230  19.970
  694BOLB   C3A16639  14.750  26.230  20.300
  694BOLB   C4A16640  14.590  26.460  20.620
  694BOLB   C1B16641  15.470  25.560  20.200
  694BOLB   C2B16642  15.560  25.290  20.550
  694BOLB   C3B16643  15.880  25.180  20.840
  694BOLB   C4B16644  16.090  25.610  20.980
  694BOLB   NC216645  13.590  27.280  22.530
  694BOLB   PO216646  13.790  26.930  22.730
  694BOLB   GL316647  13.530  26.830  22.370
  694BOLB   GL416648  13.450  26.540  22.190
  694BOLB   C1C16649  13.600  26.880  21.900
  694BOLB   C2C16650  13.930  26.960  21.590
  694BOLB   C3C16651  14.100  26.850  21.200
  694BOLB   C4C16652  14.360  26.770  20.840
  694BOLB   C1D16653  13.320  26.210  21.850
  694BOLB   C2D16654  13.370  25.940  21.480
  694BOLB   C3D16655  13.440  25.740  21.070
  694BOLB   C4D16656  13.280  25.740  20.600
  695BOLB   NC116657  10.050  23.020  15.930
  695BOLB   PO116658   9.980  22.560  15.920
  695BOLB   GL116659   9.710  22.750  16.250
  695BOLB   GL216660   9.640  22.640  16.550
  695BOLB   C1A16661   9.260  22.820  16.390
  695BOLB   C2A16662   8.850  22.820  16.530
  695BOLB   C3A16663   8.490  23.040  16.600
  695BOLB   C4A16664   8.060  23.250  16.400
  695BOLB   C1B16665   9.400  22.820  16.870
  695BOLB   C2B16666   9.070  22.970  16.990
  695BOLB   C3B16667   8.660  22.930  17.050
  695BOLB   C4B16668   8.330  22.670  16.960
  695BOLB   NC216669   6.820  25.150  17.380
  695BOLB   PO216670   6.780  24.730  17.200
  695BOLB   GL316671   6.990  24.340  17.090
  695BOLB   GL416672   7.120  24.300  17.420
  695BOLB   C1C16673   7.310  24.410  16.930
  695BOLB   C2C16674   7.650  24.350  16.620
  695BOLB   C3C16675   7.710  24.000  16.320
  695BOLB   C4C16676   7.830  23.560  16.160
  695BOLB   C1D16677   7.350  23.950  17.190
  695BOLB   C2D16678   7.330  23.580  17.020
  695BOLB   C3D16679   7.680  23.270  16.990
  695BOLB   C4D16680   8.110  23.170  16.960
  696BOLB   NC116681  12.680  22.820  18.540
  696BOLB   PO116682  12.380  22.510  18.300
  696BOLB   GL116683  12.140  22.510  18.750
  696BOLB   GL216684  12.300  22.770  18.890
  696BOLB   C1A16685  11.840  22.610  19.120
  696BOLB   C2A16686  11.520  22.850  19.240
  696BOLB   C3A16687  11.290  23.160  19.100
  696BOLB   C4A16688  11.040  23.560  19.140
  696BOLB   C1B16689  12.180  22.930  19.260
  696BOLB   C2B16690  11.890  22.770  19.590
  696BOLB   C3B16691  11.460  22.620  19.700
  696BOLB   C4B16692  11.280  22.440  20.010
  696BOLB   NC216693   9.590  24.880  20.710
  696BOLB   PO216694   9.840  24.660  21.010
  696BOLB   GL316695  10.190  24.550  20.770
  696BOLB   GL416696  10.040  24.650  20.420
  696BOLB   C1C16697  10.470  24.230  20.600
  696BOLB   C2C16698  10.720  24.180  20.160
  696BOLB   C3C16699  10.890  23.880  19.870
  696BOLB   C4C16700  11.070  23.600  19.590
  696BOLB   C1D16701  10.240  24.360  20.170
  696BOLB   C2D16702  10.100  24.040  19.790
  696BOLB   C3D16703  10.290  23.790  19.530
  696BOLB   C4D16704  10.650  23.880  19.400
  697BOLB   NC116705  20.090  15.030  17.810
  697BOLB   PO116706  19.680  14.850  17.550
  697BOLB   GL116707  19.980  14.540  17.650
  697BOLB   GL216708  20.350  14.550  17.780
  697BOLB   C1A16709  20.150  14.100  17.720
  697BOLB   C2A16710  20.210  13.830  18.060
  697BOLB   C3A16711  20.240  13.540  18.290
  697BOLB   C4A16712  20.460  13.350  18.500
  697BOLB   C1B16713  20.380  14.390  18.140
  697BOLB   C2B16714  20.460  14.070  18.360
  697BOLB   C3B16715  20.610  13.800  18.610
  697BOLB   C4B16716  20.600  13.590  18.990
  697BOLB   NC216717  21.710  12.240  20.170
  697BOLB   PO216718  22.060  12.300  20.160
  697BOLB   GL316719  22.040  12.380  19.770
  697BOLB   GL416720  21.810  12.150  19.620
  697BOLB   C1C16721  21.850  12.600  19.330
  697BOLB   C2C16722  21.610  12.780  19.080
  697BOLB   C3C16723  21.330  13.090  18.920
  697BOLB   C4C16724  20.870  13.170  18.770
  697BOLB   C1D16725  21.460  12.450  19.600
  697BOLB   C2D16726  21.100  12.640  19.340
  697BOLB   C3D16727  20.800  12.860  19.160
  697BOLB   C4D16728  20.370  12.790  19.350
  698BOLB   NC116729  19.030  12.950  12.080
  698BOLB   PO116730  18.700  12.770  12.460
  698BOLB   GL116731  18.950  12.330  12.360
  698BOLB   GL216732  18.930  12.060  12.520
  698BOLB   C1A16733  18.800  12.130  12.070
  698BOLB   C2A16734  18.800  11.610  12.000
  698BOLB   C3A16735  18.780  11.310  11.850
  698BOLB   C4A16736  18.700  10.960  11.710
  698BOLB   C1B16737  18.780  11.830  12.910
  698BOLB   C2B16738  18.820  11.400  13.040
  698BOLB   C3B16739  19.200  10.980  13.050
  698BOLB   C4B16740  19.500  10.620  12.920
  698BOLB   NC216741  20.450   8.750  11.290
  698BOLB   PO216742  20.290   9.070  10.970
  698BOLB   GL316743  20.010   9.260  11.120
  698BOLB   GL416744  20.130   9.600  11.120
  698BOLB   C1C16745  19.640   9.600  11.120
  698BOLB   C2C16746  19.500  10.050  11.140
  698BOLB   C3C16747  19.260  10.360  11.410
  698BOLB   C4C16748  18.900  10.640  11.570
  698BOLB   C1D16749  19.890   9.790  11.540
  698BOLB   C2D16750  19.670  10.170  11.680
  698BOLB   C3D16751  19.720  10.500  11.930
  698BOLB   C4D16752  19.710  10.960  11.960
  699BOLB   NC116753  17.280  28.840  15.420
  699BOLB   PO116754  16.890  29.190  15.410
  699BOLB   GL116755  16.570  29.530  15.480
  699BOLB   GL216756  16.220  29.590  15.340
  699BOLB   C1A16757  16.460  29.880  15.630
  699BOLB   C2A16758  16.270  30.230  15.990
  699BOLB   C3A16759  16.390  30.530  16.200
  699BOLB   C4A16760  16.480  30.930  16.210
  699BOLB   C1B16761  15.950  29.940  15.460
  699BOLB   C2B16762  15.800  30.340  15.300
  699BOLB   C3B16763  15.910  30.690  14.980
  699BOLB   C4B16764  15.950  31.080  14.720
  699BOLB   NC216765  15.080  33.370  16.430
  699BOLB   PO216766  15.550  33.180  16.580
  699BOLB   GL316767  15.630  32.770  16.380
  699BOLB   GL416768  15.780  32.660  16.130
  699BOLB   C1C16769  15.930  32.400  16.520
  699BOLB   C2C16770  16.300  32.170  16.540
  699BOLB   C3C16771  16.370  31.780  16.340
  699BOLB   C4C16772  16.410  31.330  16.120
  699BOLB   C1D16773  15.810  32.410  15.710
  699BOLB   C2D16774  15.930  32.000  15.520
  699BOLB   C3D16775  15.830  31.580  15.350
  699BOLB   C4D16776  15.740  31.220  15.150
  700BOLB   NC116777  25.820  24.050  10.220
  700BOLB   PO116778  25.460  24.230  10.280
  700BOLB   GL116779  25.760  24.560  10.100
  700BOLB   GL216780  26.030  24.530  10.240
  700BOLB   C1A16781  26.130  24.640   9.810
  700BOLB   C2A16782  26.540  24.740   9.730
  700BOLB   C3A16783  26.910  24.660   9.680
  700BOLB   C4A16784  27.240  24.760   9.750
  700BOLB   C1B16785  26.420  24.530  10.220
  700BOLB   C2B16786  26.820  24.290  10.070
  700BOLB   C3B16787  27.230  24.300   9.860
  700BOLB   C4B16788  27.560  24.070  10.040
  700BOLB   NC216789  29.450  24.520   9.020
  700BOLB   PO216790  29.190  24.830   8.890
  700BOLB   GL316791  28.970  24.490   9.120
  700BOLB   GL416792  29.170  24.530   9.530
  700BOLB   C1C16793  28.700  24.300   9.420
  700BOLB   C2C16794  28.460  24.420   9.690
  700BOLB   C3C16795  28.010  24.270   9.980
  700BOLB   C4C16796  27.620  24.600   9.960
  700BOLB   C1D16797  28.820  24.750   9.690
  700BOLB   C2D16798  28.510  24.930   9.840
  700BOLB   C3D16799  28.170  25.280   9.840
  700BOLB   C4D16800  27.930  25.720   9.700
  701BOLB   NC116801  15.020  12.610  15.630
  701BOLB   PO116802  15.310  12.230  15.590
  701BOLB   GL116803  15.290  11.750  15.670
  701BOLB   GL216804  14.960  11.560  15.810
  701BOLB   C1A16805  15.430  11.300  15.720
  701BOLB   C2A16806  15.330  10.820  15.750
  701BOLB   C3A16807  15.280  10.580  15.580
  701BOLB   C4A16808  15.220  10.220  15.280
  701BOLB   C1B16809  15.130  11.200  16.110
  701BOLB   C2B16810  14.780  10.910  16.220
  701BOLB   C3B16811  14.870  10.350  16.230
  701BOLB   C4B16812  14.680   9.990  16.360
  701BOLB   NC216813  14.780   8.460  15.930
  701BOLB   PO216814  15.130   8.550  16.070
  701BOLB   GL316815  15.420   8.820  16.010
  701BOLB   GL416816  15.700   8.950  16.150
  701BOLB   C1C16817  15.630   8.840  15.630
  701BOLB   C2C16818  15.670   9.130  15.370
  701BOLB   C3C16819  15.480   9.410  15.140
  701BOLB   C4C16820  15.260   9.800  15.070
  701BOLB   C1D16821  15.720   9.290  15.950
  701BOLB   C2D16822  16.050   9.710  16.000
  701BOLB   C3D16823  16.380   9.800  15.770
  701BOLB   C4D16824  16.460   9.650  15.350
  702BOLB   NC116825  10.290  25.050  14.190
  702BOLB   PO116826  10.060  24.770  14.470
  702BOLB   GL116827  10.010  25.270  14.520
  702BOLB   GL216828  10.230  25.470  14.510
  702BOLB   C1A16829   9.710  25.680  14.600
  702BOLB   C2A16830   9.440  25.940  14.820
  702BOLB   C3A16831   9.290  26.300  15.200
  702BOLB   C4A16832   9.340  26.710  15.060
  702BOLB   C1B16833  10.120  25.910  14.380
  702BOLB   C2B16834  10.170  26.240  14.230
  702BOLB   C3B16835   9.950  26.600  14.340
  702BOLB   C4B16836   9.810  26.900  14.760
  702BOLB   NC216837   8.580  28.950  15.690
  702BOLB   PO216838   8.830  29.240  15.380
  702BOLB   GL316839   9.190  28.870  15.150
  702BOLB   GL416840   9.010  28.690  14.940
  702BOLB   C1C16841   9.480  28.460  15.260
  702BOLB   C2C16842   9.570  28.030  14.970
  702BOLB   C3C16843   9.460  27.610  14.910
  702BOLB   C4C16844   9.380  27.110  14.900
  702BOLB   C1D16845   8.980  28.350  15.220
  702BOLB   C2D16846   9.060  27.990  15.240
  702BOLB   C3D16847   9.160  27.600  15.340
  702BOLB   C4D16848   9.170  27.240  15.340
  703BOLB   NC116849  21.770  15.560  15.520
  703BOLB   PO116850  22.100  15.360  15.830
  703BOLB   GL116851  22.090  14.940  15.950
  703BOLB   GL216852  22.330  14.680  15.860
  703BOLB   C1A16853  22.370  14.790  16.330
  703BOLB   C2A16854  22.450  14.420  16.350
  703BOLB   C3A16855  22.630  14.210  16.690
  703BOLB   C4A16856  22.980  13.910  16.640
  703BOLB   C1B16857  22.630  14.330  15.820
  703BOLB   C2B16858  22.680  13.980  16.170
  703BOLB   C3B16859  22.410  13.540  16.140
  703BOLB   C4B16860  22.540  13.200  16.410
  703BOLB   NC216861  24.850  12.770  18.150
  703BOLB   PO216862  24.660  12.720  18.520
  703BOLB   GL316863  24.520  13.110  18.210
  703BOLB   GL416864  24.540  13.410  18.340
  703BOLB   C1C16865  24.150  13.120  17.870
  703BOLB   C2C16866  23.860  13.380  17.600
  703BOLB   C3C16867  23.500  13.570  17.240
  703BOLB   C4C16868  23.160  13.750  17.000
  703BOLB   C1D16869  24.090  13.560  18.400
  703BOLB   C2D16870  23.850  13.930  18.320
  703BOLB   C3D16871  23.660  14.390  18.460
  703BOLB   C4D16872  23.270  14.520  18.640
  704BOLB   NC116873  24.990  19.900  16.950
  704BOLB   PO116874  24.810  19.580  17.050
  704BOLB   GL116875  24.980  19.470  17.330
  704BOLB   GL216876  25.270  19.710  17.290
  704BOLB   C1A16877  25.210  19.170  17.490
  704BOLB   C2A16878  25.270  18.860  17.820
  704BOLB   C3A16879  25.700  18.520  17.880
  704BOLB   C4A16880  25.880  18.180  18.210
  704BOLB   C1B16881  25.560  19.520  17.570
  704BOLB   C2B16882  25.920  19.370  17.700
  704BOLB   C3B16883  26.240  19.170  17.930
  704BOLB   C4B16884  26.290  18.930  18.380
  704BOLB   NC216885  27.490  17.160  19.380
  704BOLB   PO216886  27.850  17.450  19.490
  704BOLB   GL316887  27.490  17.700  19.270
  704BOLB   GL416888  27.160  17.700  19.520
  704BOLB   C1C16889  27.050  17.700  19.020
  704BOLB   C2C16890  26.630  17.760  19.030
  704BOLB   C3C16891  26.240  17.870  18.940
  704BOLB   C4C16892  25.970  18.120  18.600
  704BOLB   C1D16893  26.930  18.090  19.310
  704BOLB   C2D16894  26.590  18.280  19.100
  704BOLB   C3D16895  26.420  18.460  18.730
  704BOLB   C4D16896  26.310  18.460  18.290
  705BOLB   NC116897  21.250  14.310  15.750
  705BOLB   PO116898  21.020  13.980  15.540
  705BOLB   GL116899  20.960  13.610  15.630
  705BOLB   GL216900  21.130  13.480  15.380
  705BOLB   C1A16901  21.000  13.180  15.950
  705BOLB   C2A16902  20.710  12.740  16.040
  705BOLB   C3A16903  20.810  12.380  16.310
  705BOLB   C4A16904  20.850  12.480  16.890
  705BOLB   C1B16905  21.280  13.110  15.550
  705BOLB   C2B16906  21.210  12.720  15.600
  705BOLB   C3B16907  21.400  12.380  15.590
  705BOLB   C4B16908  21.580  12.050  15.470
  705BOLB   NC216909  21.760  11.370  18.920
  705BOLB   PO216910  21.360  11.030  18.880
  705BOLB   GL316911  21.180  11.200  18.630
  705BOLB   GL416912  21.010  11.470  18.810
  705BOLB   C1C16913  20.940  11.540  18.360
  705BOLB   C2C16914  21.010  11.880  17.970
  705BOLB   C3C16915  21.140  12.010  17.560
  705BOLB   C4C16916  20.980  12.350  17.270
  705BOLB   C1D16917  20.640  11.710  18.830
  705BOLB   C2D16918  20.420  12.080  18.570
  705BOLB   C3D16919  20.290  12.460  18.390
  705BOLB   C4D16920  20.340  12.730  18.050
  706BOLB   NC116921  22.950  20.340  18.410
  706BOLB   PO116922  23.340  20.260  18.680
  706BOLB   GL116923  23.430  20.180  19.050
  706BOLB   GL216924  23.410  20.440  19.300
  706BOLB   C1A16925  23.670  20.010  19.500
  706BOLB   C2A16926  24.020  19.780  19.750
  706BOLB   C3A16927  24.370  19.610  19.570
  706BOLB   C4A16928  24.750  19.630  19.740
  706BOLB   C1B16929  23.800  20.420  19.330
  706BOLB   C2B16930  24.180  20.220  19.520
  706BOLB   C3B16931  24.580  20.150  19.770
  706BOLB   C4B16932  25.010  20.280  20.010
  706BOLB   NC216933  26.880  19.680  21.630
  706BOLB   PO216934  26.750  19.980  21.330
  706BOLB   GL316935  26.320  20.060  21.200
  706BOLB   GL416936  26.450  20.140  20.880
  706BOLB   C1C16937  25.960  19.980  20.910
  706BOLB   C2C16938  25.690  20.000  20.520
  706BOLB   C3C16939  25.230  19.940  20.470
  706BOLB   C4C16940  24.900  19.820  20.260
  706BOLB   C1D16941  26.390  20.400  20.600
  706BOLB   C2D16942  26.540  20.370  20.180
  706BOLB   C3D16943  26.670  20.510  19.740
  706BOLB   C4D16944  26.650  20.990  19.680
  707BOLB   NC116945  19.510  12.960  13.300
  707BOLB   PO116946  19.340  12.700  13.120
  707BOLB   GL116947  19.420  12.290  13.230
  707BOLB   GL216948  19.180  12.120  13.040
  707BOLB   C1A16949  19.540  11.850  13.280
  707BOLB   C2A16950  19.710  11.570  13.560
  707BOLB   C3A16951  20.200  11.530  13.710
  707BOLB   C4A16952  20.380  11.280  13.910
  707BOLB   C1B16953  19.220  11.640  12.990
  707BOLB   C2B16954  19.410  11.450  12.680
  707BOLB   C3B16955  19.720  11.390  12.330
  707BOLB   C4B16956  20.020  11.710  12.360
  707BOLB   NC216957  20.360   9.110  14.700
  707BOLB   PO216958  20.740   9.090  14.530
  707BOLB   GL316959  20.960   9.420  14.390
  707BOLB   GL416960  20.980   9.720  14.610
  707BOLB   C1C16961  20.750   9.780  14.150
  707BOLB   C2C16962  20.560  10.140  13.970
  707BOLB   C3C16963  20.610  10.530  14.000
  707BOLB   C4C16964  20.410  10.920  14.150
  707BOLB   C1D16965  20.650   9.800  14.700
  707BOLB   C2D16966  20.320  10.000  14.370
  707BOLB   C3D16967  19.950  10.330  14.460
  707BOLB   C4D16968  19.910  10.800  14.510
  708BOLB   NC116969   9.820  18.340  17.970
  708BOLB   PO116970  10.070  18.140  18.170
  708BOLB   GL116971   9.570  18.080  18.350
  708BOLB   GL216972   9.430  17.810  18.240
  708BOLB   C1A16973   9.280  18.200  18.680
  708BOLB   C2A16974   8.990  18.280  19.120
  708BOLB   C3A16975   8.760  18.400  19.550
  708BOLB   C4A16976   8.420  18.580  19.880
  708BOLB   C1B16977   9.260  17.710  18.630
  708BOLB   C2B16978   9.180  17.300  18.750
  708BOLB   C3B16979   9.310  17.010  19.010
  708BOLB   C4B16980   9.760  17.020  19.180
  708BOLB   NC216981   6.240  18.830  19.080
  708BOLB   PO216982   6.310  19.160  19.220
  708BOLB   GL316983   6.670  19.320  19.090
  708BOLB   GL416984   6.680  19.420  18.790
  708BOLB   C1C16985   7.080  19.160  19.130
  708BOLB   C2C16986   7.400  19.030  19.480
  708BOLB   C3C16987   7.560  18.700  19.720
  708BOLB   C4C16988   7.950  18.720  19.980
  708BOLB   C1D16989   7.090  19.490  18.750
  708BOLB   C2D16990   7.480  19.380  18.780
  708BOLB   C3D16991   7.780  19.220  19.210
  708BOLB   C4D16992   7.940  18.950  19.500
  709BOLB   NC116993  13.310  13.630  17.620
  709BOLB   PO116994  13.710  13.820  17.780
  709BOLB   GL116995  13.570  13.300  17.980
  709BOLB   GL216996  13.370  13.450  18.220
  709BOLB   C1A16997  13.710  12.840  18.160
  709BOLB   C2A16998  13.950  12.350  18.300
  709BOLB   C3A16999  13.910  11.920  18.250
  709BOLB   C4A17000  14.050  11.570  18.180
  709BOLB   C1B17001  13.020  13.300  18.480
  709BOLB   C2B17002  12.770  13.040  18.660
  709BOLB   C3B17003  12.410  12.830  18.600
  709BOLB   C4B17004  12.000  12.820  18.470
  709BOLB   NC217005  13.780   9.550  18.840
  709BOLB   PO217006  14.200   9.450  18.750
  709BOLB   GL317007  14.140   9.860  18.610
  709BOLB   GL417008  13.890  10.060  18.500
  709BOLB   C1C17009  14.390  10.180  18.460
  709BOLB   C2C17010  14.450  10.500  18.530
  709BOLB   C3C17011  14.440  10.940  18.480
  709BOLB   C4C17012  14.200  11.210  18.360
  709BOLB   C1D17013  13.940  10.350  18.280
  709BOLB   C2D17014  13.960  10.820  18.210
  709BOLB   C3D17015  13.830  11.090  18.030
  709BOLB   C4D17016  13.330  11.050  17.860
  710BOLB   NC117017  25.940  24.560  12.340
  710BOLB   PO117018  25.950  25.000  12.470
  710BOLB   GL117019  26.300  25.120  12.280
  710BOLB   GL217020  26.150  25.380  12.190
  710BOLB   C1A17021  26.680  25.410  11.980
  710BOLB   C2A17022  27.020  25.480  11.810
  710BOLB   C3A17023  27.020  25.770  11.470
  710BOLB   C4A17024  27.410  25.880  11.180
  710BOLB   C1B17025  26.460  25.600  12.380
  710BOLB   C2B17026  26.850  25.730  12.300
  710BOLB   C3B17027  27.230  25.750  12.150
  710BOLB   C4B17028  27.600  25.620  12.140
  710BOLB   NC217029  29.640  26.440  10.530
  710BOLB   PO217030  29.510  26.890  10.260
  710BOLB   GL317031  29.160  26.670  10.400
  710BOLB   GL417032  28.980  26.670  10.170
  710BOLB   C1C17033  28.870  26.670  10.710
  710BOLB   C2C17034  28.650  26.370  10.950
  710BOLB   C3C17035  28.230  26.230  11.110
  710BOLB   C4C17036  27.890  25.930  11.170
  710BOLB   C1D17037  28.590  26.480  10.100
  710BOLB   C2D17038  28.110  26.450  10.080
  710BOLB   C3D17039  27.650  26.620  10.350
  710BOLB   C4D17040  27.310  26.750  10.360
  711BOLB   NC117041   5.610  26.230  14.080
  711BOLB   PO117042   5.950  26.080  14.330
  711BOLB   GL117043   6.120  25.600  14.240
  711BOLB   GL217044   6.090  25.270  14.320
  711BOLB   C1A17045   6.490  25.380  14.040
  711BOLB   C2A17046   6.790  25.420  13.740
  711BOLB   C3A17047   7.170  25.570  13.500
  711BOLB   C4A17048   7.610  25.680  13.320
  711BOLB   C1B17049   6.390  24.990  14.400
  711BOLB   C2B17050   6.760  24.790  14.200
  711BOLB   C3B17051   6.920  24.830  13.770
  711BOLB   C4B17052   7.030  25.110  13.390
  711BOLB   NC217053   7.180  27.960  13.820
  711BOLB   PO217054   7.060  27.530  13.980
  711BOLB   GL317055   7.290  27.280  13.720
  711BOLB   GL417056   7.550  27.510  13.770
  711BOLB   C1C17057   7.440  26.830  13.780
  711BOLB   C2C17058   7.520  26.500  13.750
  711BOLB   C3C17059   7.810  26.110  13.820
  711BOLB   C4C17060   7.860  25.840  13.600
  711BOLB   C1D17061   7.860  27.430  13.500
  711BOLB   C2D17062   8.230  27.640  13.410
  711BOLB   C3D17063   8.640  27.590  13.350
  711BOLB   C4D17064   8.810  27.170  13.360
  712BOLB   NC117065  23.790  28.830  12.460
  712BOLB   PO117066  24.010  28.540  12.170
  712BOLB   GL117067  24.210  28.900  12.140
  712BOLB   GL217068  24.050  29.080  12.110
  712BOLB   C1A17069  24.630  29.020  12.390
  712BOLB   C2A17070  25.050  29.150  12.560
  712BOLB   C3A17071  25.400  29.390  12.690
  712BOLB   C4A17072  25.900  29.510  12.770
  712BOLB   C1B17073  24.440  29.300  12.030
  712BOLB   C2B17074  24.800  29.650  12.020
  712BOLB   C3B17075  24.850  29.890  11.940
  712BOLB   C4B17076  24.540  30.290  11.920
  712BOLB   NC217077  27.440  30.790  12.640
  712BOLB   PO217078  27.210  31.160  12.800
  712BOLB   GL317079  26.880  30.780  12.900
  712BOLB   GL417080  27.030  30.540  12.790
  712BOLB   C1C17081  26.580  30.630  13.210
  712BOLB   C2C17082  26.490  30.230  13.280
  712BOLB   C3C17083  26.410  29.940  13.060
  712BOLB   C4C17084  26.300  29.700  12.740
  712BOLB   C1D17085  26.540  30.380  12.790
  712BOLB   C2D17086  26.240  30.200  12.640
  712BOLB   C3D17087  25.760  30.040  12.740
  712BOLB   C4D17088  25.360  29.810  12.900
  713BOLB   NC117089   9.100  24.180  12.320
  713BOLB   PO117090   9.300  24.070  12.700
  713BOLB   GL117091   9.080  24.520  12.780
  713BOLB   GL217092   9.100  24.630  13.060
  713BOLB   C1A17093   8.760  24.930  12.630
  713BOLB   C2A17094   8.450  24.990  12.600
  713BOLB   C3A17095   7.970  25.030  12.600
  713BOLB   C4A17096   7.500  24.950  12.750
  713BOLB   C1B17097   8.810  24.870  13.140
  713BOLB   C2B17098   8.520  25.190  13.100
  713BOLB   C3B17099   8.320  25.560  13.150
  713BOLB   C4B17100   8.090  25.840  13.050
  713BOLB   NC217101   5.470  26.160  11.540
  713BOLB   PO217102   5.720  26.260  11.830
  713BOLB   GL317103   6.030  26.160  12.170
  713BOLB   GL417104   6.300  26.340  12.140
  713BOLB   C1C17105   6.240  25.930  12.410
  713BOLB   C2C17106   6.440  25.570  12.570
  713BOLB   C3C17107   6.710  25.260  12.530
  713BOLB   C4C17108   7.120  24.990  12.490
  713BOLB   C1D17109   6.680  26.170  12.420
  713BOLB   C2D17110   6.910  25.710  12.520
  713BOLB   C3D17111   6.980  25.580  12.900
  713BOLB   C4D17112   7.290  25.350  13.050
  714BOLB   NC117113  10.910  21.340  17.080
  714BOLB   PO117114  10.580  21.330  17.500
  714BOLB   GL117115  10.300  21.510  17.720
  714BOLB   GL217116  10.370  21.670  18.030
  714BOLB   C1A17117   9.920  21.770  17.840
  714BOLB   C2A17118   9.550  21.950  18.070
  714BOLB   C3A17119   9.130  21.900  18.080
  714BOLB   C4A17120   8.700  21.940  17.860
  714BOLB   C1B17121  10.420  21.830  18.420
  714BOLB   C2B17122  10.410  22.210  18.750
  714BOLB   C3B17123  10.730  22.510  18.810
  714BOLB   C4B17124  11.010  22.610  19.170
  714BOLB   NC217125   6.320  22.410  18.810
  714BOLB   PO217126   6.460  22.160  19.040
  714BOLB   GL317127   6.800  22.170  18.760
  714BOLB   GL417128   7.050  22.140  18.810
  714BOLB   C1C17129   6.910  22.260  18.310
  714BOLB   C2C17130   7.380  22.040  18.070
  714BOLB   C3C17131   7.860  21.870  18.030
  714BOLB   C4C17132   8.260  21.980  17.940
  714BOLB   C1D17133   7.380  21.910  18.560
  714BOLB   C2D17134   7.460  21.590  18.120
  714BOLB   C3D17135   7.660  21.070  18.040
  714BOLB   C4D17136   7.790  20.710  18.410
  715BOLB   NC117137  20.360  26.200  19.700
  715BOLB   PO117138  20.560  25.800  19.780
  715BOLB   GL117139  20.470  26.050  20.210
  715BOLB   GL217140  20.310  26.040  20.400
  715BOLB   C1A17141  20.350  26.560  20.360
  715BOLB   C2A17142  20.190  26.730  20.690
  715BOLB   C3A17143  19.840  27.020  20.720
  715BOLB   C4A17144  19.630  27.210  21.010
  715BOLB   C1B17145  20.370  26.310  20.910
  715BOLB   C2B17146  20.540  26.540  21.210
  715BOLB   C3B17147  20.720  26.460  21.620
  715BOLB   C4B17148  20.740  26.450  22.070
  715BOLB   NC217149  19.430  27.260  23.540
  715BOLB   PO217150  19.280  27.480  23.170
  715BOLB   GL317151  19.480  27.650  22.850
  715BOLB   GL417152  19.820  27.610  22.830
  715BOLB   C1C17153  19.630  27.810  22.390
  715BOLB   C2C17154  19.850  27.760  22.060
  715BOLB   C3C17155  19.650  27.530  21.730
  715BOLB   C4C17156  19.590  27.380  21.360
  715BOLB   C1D17157  19.820  27.330  22.390
  715BOLB   C2D17158  19.520  27.230  22.130
  715BOLB   C3D17159  19.230  27.460  22.020
  715BOLB   C4D17160  18.890  27.700  22.100
  716BOLB   NC117161  24.590  27.040  14.210
  716BOLB   PO117162  24.830  27.410  14.060
  716BOLB   GL117163  25.290  27.600  14.260
  716BOLB   GL217164  25.090  27.920  14.230
  716BOLB   C1A17165  25.700  27.900  14.400
  716BOLB   C2A17166  26.110  27.830  14.410
  716BOLB   C3A17167  26.490  28.050  14.260
  716BOLB   C4A17168  26.850  27.990  14.190
  716BOLB   C1B17169  25.360  28.240  14.290
  716BOLB   C2B17170  25.820  28.400  14.280
  716BOLB   C3B17171  26.200  28.570  14.300
  716BOLB   C4B17172  26.680  28.660  14.300
  716BOLB   NC217173  28.980  28.910  15.280
  716BOLB   PO217174  28.990  28.550  15.020
  716BOLB   GL317175  28.570  28.630  15.100
  716BOLB   GL417176  28.440  28.640  15.400
  716BOLB   C1C17177  28.110  28.650  14.790
  716BOLB   C2C17178  27.910  28.290  14.460
  716BOLB   C3C17179  27.720  27.940  14.450
  716BOLB   C4C17180  27.300  27.990  14.320
  716BOLB   C1D17181  28.350  28.260  15.300
  716BOLB   C2D17182  28.350  27.840  15.270
  716BOLB   C3D17183  28.100  27.530  15.220
  716BOLB   C4D17184  27.710  27.530  15.080
  717BOLB   NC117185   8.690  23.080  13.110
  717BOLB   PO117186   8.610  23.170  13.520
  717BOLB   GL117187   8.180  23.270  13.470
  717BOLB   GL217188   8.190  23.260  13.160
  717BOLB   C1A17189   7.720  23.300  13.550
  717BOLB   C2A17190   7.300  23.470  13.470
  717BOLB   C3A17191   7.200  23.860  13.580
  717BOLB   C4A17192   7.250  24.260  13.700
  717BOLB   C1B17193   8.100  23.750  13.280
  717BOLB   C2B17194   8.070  24.190  13.040
  717BOLB   C3B17195   7.690  24.410  12.890
  717BOLB   C4B17196   7.330  24.320  12.600
  717BOLB   NC217197   6.450  26.160  15.300
  717BOLB   PO217198   6.320  25.720  15.420
  717BOLB   GL317199   6.610  25.440  15.190
  717BOLB   GL417200   6.570  25.250  15.470
  717BOLB   C1C17201   6.860  25.320  14.940
  717BOLB   C2C17202   7.010  25.040  14.660
  717BOLB   C3C17203   7.260  24.760  14.330
  717BOLB   C4C17204   7.290  24.580  14.010
  717BOLB   C1D17205   6.860  25.040  15.430
  717BOLB   C2D17206   7.100  24.910  15.200
  717BOLB   C3D17207   7.440  24.760  15.000
  717BOLB   C4D17208   7.490  24.310  15.010
  718BOLB   NC117209  21.300  28.590  16.960
  718BOLB   PO117210  21.270  28.920  16.660
  718BOLB   GL117211  21.470  29.080  16.970
  718BOLB   GL217212  21.850  28.990  16.890
  718BOLB   C1A17213  21.400  29.290  17.330
  718BOLB   C2A17214  21.750  29.500  17.660
  718BOLB   C3A17215  21.790  29.510  18.080
  718BOLB   C4A17216  21.950  29.510  18.440
  718BOLB   C1B17217  22.040  29.280  17.240
  718BOLB   C2B17218  22.220  29.680  17.460
  718BOLB   C3B17219  22.380  29.660  17.850
  718BOLB   C4B17220  22.630  29.960  18.170
  718BOLB   NC217221  23.070  30.780  20.150
  718BOLB   PO217222  22.640  30.990  20.050
  718BOLB   GL317223  22.790  30.900  19.670
  718BOLB   GL417224  23.120  30.720  19.670
  718BOLB   C1C17225  22.680  30.540  19.510
  718BOLB   C2C17226  22.710  30.320  19.070
  718BOLB   C3C17227  22.550  30.080  18.700
  718BOLB   C4C17228  22.320  29.770  18.530
  718BOLB   C1D17229  23.080  30.790  19.220
  718BOLB   C2D17230  22.690  30.800  19.130
  718BOLB   C3D17231  22.490  30.670  18.810
  718BOLB   C4D17232  22.500  30.480  18.300
  719BOLB   NC117233   8.600  26.100  18.940
  719BOLB   PO117234   8.780  25.740  19.130
  719BOLB   GL117235   8.820  25.750  18.670
  719BOLB   GL217236   9.150  25.950  18.850
  719BOLB   C1A17237   9.000  25.510  18.340
  719BOLB   C2A17238   9.370  25.450  18.020
  719BOLB   C3A17239   9.690  25.250  17.780
  719BOLB   C4A17240   9.910  24.990  17.550
  719BOLB   C1B17241   9.400  25.500  18.610
  719BOLB   C2B17242   9.710  25.310  18.380
  719BOLB   C3B17243  10.040  24.980  18.250
  719BOLB   C4B17244  10.270  24.750  17.940
  719BOLB   NC217245  11.810  23.780  16.820
  719BOLB   PO217246  11.760  23.740  17.250
  719BOLB   GL317247  11.570  23.920  17.520
  719BOLB   GL417248  11.510  24.230  17.370
  719BOLB   C1C17249  11.160  23.980  17.610
  719BOLB   C2C17250  10.760  23.910  17.480
  719BOLB   C3C17251  10.290  24.160  17.630
  719BOLB   C4C17252  10.170  24.600  17.420
  719BOLB   C1D17253  11.350  24.470  17.740
  719BOLB   C2D17254  11.260  24.790  18.150
  719BOLB   C3D17255  11.110  25.280  18.330
  719BOLB   C4D17256  10.810  25.540  18.240
  720BOLB   NC117257  10.710  24.530  11.010
  720BOLB   PO117258  10.240  24.590  10.890
  720BOLB   GL117259   9.980  24.940  10.600
  720BOLB   GL217260   9.660  24.850  10.490
  720BOLB   C1A17261   9.940  25.320  10.420
  720BOLB   C2A17262   9.670  25.640  10.320
  720BOLB   C3A17263   9.390  26.040  10.290
  720BOLB   C4A17264   9.060  26.250  10.020
  720BOLB   C1B17265   9.450  25.200  10.180
  720BOLB   C2B17266   9.430  25.540   9.900
  720BOLB   C3B17267   9.230  25.870   9.820
  720BOLB   C4B17268   8.780  25.900   9.730
  720BOLB   NC217269   7.530  28.120  10.550
  720BOLB   PO217270   7.710  27.940  10.130
  720BOLB   GL317271   7.940  27.670  10.370
  720BOLB   GL417272   7.870  27.720  10.620
  720BOLB   C1C17273   7.950  27.250  10.340
  720BOLB   C2C17274   7.990  26.830  10.420
  720BOLB   C3C17275   8.430  26.580  10.300
  720BOLB   C4C17276   8.710  26.380   9.920
  720BOLB   C1D17277   8.250  27.460  10.670
  720BOLB   C2D17278   8.520  27.380  10.960
  720BOLB   C3D17279   8.560  27.080  11.290
  720BOLB   C4D17280   8.540  26.810  11.650
  721BOLB   NC117281   9.360  23.960  10.710
  721BOLB   PO117282   9.780  23.880  10.510
  721BOLB   GL117283   9.510  23.990  10.140
  721BOLB   GL217284   9.220  23.960  10.210
  721BOLB   C1A17285   9.570  24.190   9.710
  721BOLB   C2A17286   9.210  24.240   9.510
  721BOLB   C3A17287   8.770  24.320   9.410
  721BOLB   C4A17288   8.370  24.410   9.450
  721BOLB   C1B17289   8.990  24.200   9.960
  721BOLB   C2B17290   8.710  24.660   9.850
  721BOLB   C3B17291   8.470  25.040   9.680
  721BOLB   C4B17292   8.090  25.250   9.590
  721BOLB   NC217293   7.310  25.080   7.390
  721BOLB   PO217294   7.290  25.410   7.730
  721BOLB   GL317295   7.400  25.030   7.940
  721BOLB   GL417296   7.620  24.720   7.770
  721BOLB   C1C17297   7.600  24.870   8.310
  721BOLB   C2C17298   7.680  24.630   8.640
  721BOLB   C3C17299   7.960  24.390   8.810
  721BOLB   C4C17300   8.100  24.370   9.090
  721BOLB   C1D17301   7.920  24.590   7.950
  721BOLB   C2D17302   8.080  24.420   8.340
  721BOLB   C3D17303   8.450  24.470   8.550
  721BOLB   C4D17304   8.560  24.210   8.980
  722BOLB   NC117305  24.150  27.240  16.950
  722BOLB   PO117306  23.800  27.310  17.110
  722BOLB   GL117307  24.220  27.720  17.150
  722BOLB   GL217308  24.150  28.010  17.250
  722BOLB   C1A17309  24.630  27.940  17.240
  722BOLB   C2A17310  24.980  28.040  17.310
  722BOLB   C3A17311  25.430  28.220  17.190
  722BOLB   C4A17312  25.600  28.390  16.970
  722BOLB   C1B17313  24.400  28.370  17.170
  722BOLB   C2B17314  24.630  28.840  17.130
  722BOLB   C3B17315  24.700  29.210  17.390
  722BOLB   C4B17316  24.560  29.510  17.570
  722BOLB   NC217317  26.760  30.250  17.820
  722BOLB   PO217318  26.580  29.920  17.720
  722BOLB   GL317319  26.300  29.730  17.650
  722BOLB   GL417320  26.120  30.000  17.480
  722BOLB   C1C17321  25.870  29.600  17.590
  722BOLB   C2C17322  25.540  29.460  17.280
  722BOLB   C3C17323  25.550  29.260  16.890
  722BOLB   C4C17324  25.630  28.840  16.810
  722BOLB   C1D17325  25.960  29.810  17.160
  722BOLB   C2D17326  25.660  29.760  16.910
  722BOLB   C3D17327  25.300  29.830  16.790
  722BOLB   C4D17328  24.910  29.970  16.640
  723BOLB   NC117329  18.970  30.260  13.040
  723BOLB   PO117330  18.680  30.090  12.680
  723BOLB   GL117331  18.730  30.540  12.510
  723BOLB   GL217332  18.590  30.550  12.890
  723BOLB   C1A17333  18.850  30.920  12.690
  723BOLB   C2A17334  18.900  31.410  12.830
  723BOLB   C3A17335  18.880  31.850  13.050
  723BOLB   C4A17336  18.970  32.230  13.150
  723BOLB   C1B17337  18.520  30.900  13.120
  723BOLB   C2B17338  18.570  31.360  13.270
  723BOLB   C3B17339  18.450  31.630  13.570
  723BOLB   C4B17340  18.670  31.830  13.880
  723BOLB   NC217341  18.070  34.340  14.270
  723BOLB   PO217342  18.220  34.120  13.950
  723BOLB   GL317343  18.330  33.710  13.820
  723BOLB   GL417344  18.020  33.670  13.780
  723BOLB   C1C17345  18.290  33.340  14.040
  723BOLB   C2C17346  18.350  32.900  13.940
  723BOLB   C3C17347  18.560  32.510  13.760
  723BOLB   C4C17348  18.820  32.490  13.460
  723BOLB   C1D17349  18.140  33.280  13.530
  723BOLB   C2D17350  18.140  32.830  13.510
  723BOLB   C3D17351  18.350  32.510  13.300
  723BOLB   C4D17352  18.480  32.080  13.340
  724BOLB   NC117353  17.410  27.520  17.830
  724BOLB   PO117354  16.970  27.380  18.020
  724BOLB   GL117355  16.770  27.420  18.530
  724BOLB   GL217356  16.460  27.490  18.490
  724BOLB   C1A17357  16.790  27.710  18.760
  724BOLB   C2A17358  16.760  28.050  19.040
  724BOLB   C3A17359  16.660  28.460  19.390
  724BOLB   C4A17360  16.510  28.720  19.390
  724BOLB   C1B17361  16.300  27.810  18.860
  724BOLB   C2B17362  16.060  28.170  19.020
  724BOLB   C3B17363  15.820  28.520  19.070
  724BOLB   C4B17364  15.500  28.760  19.100
  724BOLB   NC217365  14.510  29.600  21.160
  724BOLB   PO217366  14.970  29.650  21.100
  724BOLB   GL317367  15.310  29.510  20.860
  724BOLB   GL417368  15.540  29.330  20.940
  724BOLB   C1C17369  15.680  29.430  20.480
  724BOLB   C2C17370  15.980  29.480  20.140
  724BOLB   C3C17371  16.300  29.310  19.810
  724BOLB   C4C17372  16.460  29.150  19.420
  724BOLB   C1D17373  15.440  28.990  20.630
  724BOLB   C2D17374  15.420  28.810  20.330
  724BOLB   C3D17375  15.090  28.520  20.090
  724BOLB   C4D17376  15.170  28.060  20.220
  725BOLB   NC117377  25.620  20.190  14.710
  725BOLB   PO117378  25.610  19.880  14.460
  725BOLB   GL117379  25.980  19.820  14.540
  725BOLB   GL217380  26.220  19.980  14.760
  725BOLB   C1A17381  26.410  19.600  14.550
  725BOLB   C2A17382  26.560  19.430  14.960
  725BOLB   C3A17383  26.890  19.410  15.210
  725BOLB   C4A17384  27.260  19.110  15.390
  725BOLB   C1B17385  26.690  19.980  14.720
  725BOLB   C2B17386  26.940  19.850  15.020
  725BOLB   C3B17387  27.380  19.960  15.160
  725BOLB   C4B17388  27.560  20.180  15.430
  725BOLB   NC217389  29.160  18.100  14.730
  725BOLB   PO217390  28.940  17.720  14.630
  725BOLB   GL317391  28.560  17.600  14.670
  725BOLB   GL417392  28.490  17.350  14.800
  725BOLB   C1C17393  28.260  17.900  14.790
  725BOLB   C2C17394  28.000  18.090  15.100
  725BOLB   C3C17395  27.670  18.340  15.250
  725BOLB   C4C17396  27.250  18.570  15.260
  725BOLB   C1D17397  28.090  17.240  14.860
  725BOLB   C2D17398  27.860  17.070  14.430
  725BOLB   C3D17399  27.670  17.090  14.020
  725BOLB   C4D17400  27.340  16.950  13.820
  726BOLB   NC117401  23.450  28.450  15.010
  726BOLB   PO117402  23.930  28.390  15.150
  726BOLB   GL117403  24.140  28.690  14.850
  726BOLB   GL217404  24.180  28.620  14.480
  726BOLB   C1A17405  24.360  29.100  14.860
  726BOLB   C2A17406  24.540  29.630  14.810
  726BOLB   C3A17407  24.380  30.030  15.030
  726BOLB   C4A17408  24.200  30.560  15.050
  726BOLB   C1B17409  24.520  28.730  14.570
  726BOLB   C2B17410  24.800  29.110  14.700
  726BOLB   C3B17411  24.990  29.440  14.720
  726BOLB   C4B17412  25.280  29.700  14.980
  726BOLB   NC217413  25.240  32.100  15.630
  726BOLB   PO217414  25.560  32.170  15.330
  726BOLB   GL317415  25.080  32.220  15.150
  726BOLB   GL417416  24.950  31.840  15.270
  726BOLB   C1C17417  24.610  32.190  15.260
  726BOLB   C2C17418  24.300  31.760  15.170
  726BOLB   C3C17419  24.040  31.410  15.000
  726BOLB   C4C17420  24.030  30.930  15.000
  726BOLB   C1D17421  24.760  31.460  15.020
  726BOLB   C2D17422  24.820  31.220  14.740
  726BOLB   C3D17423  24.940  31.420  14.360
  726BOLB   C4D17424  25.270  31.720  14.180
  727BOLB   NC117425  22.380  29.230  11.720
  727BOLB   PO117426  22.800  29.250  11.490
  727BOLB   GL117427  22.990  29.640  11.410
  727BOLB   GL217428  22.950  29.700  11.100
  727BOLB   C1A17429  23.130  30.040  11.530
  727BOLB   C2A17430  23.020  30.420  11.550
  727BOLB   C3A17431  23.250  30.770  11.870
  727BOLB   C4A17432  23.750  30.970  11.770
  727BOLB   C1B17433  23.370  29.880  10.920
  727BOLB   C2B17434  23.500  29.900  10.510
  727BOLB   C3B17435  23.740  30.110  10.280
  727BOLB   C4B17436  23.940  30.350   9.970
  727BOLB   NC217437  25.330  32.520  11.000
  727BOLB   PO217438  25.390  32.240  11.430
  727BOLB   GL317439  25.400  31.750  11.480
  727BOLB   GL417440  25.570  31.580  11.290
  727BOLB   C1C17441  25.200  31.380  11.580
  727BOLB   C2C17442  24.890  31.050  11.600
  727BOLB   C3C17443  24.670  30.830  11.830
  727BOLB   C4C17444  24.200  31.000  11.700
  727BOLB   C1D17445  25.800  31.170  11.330
  727BOLB   C2D17446  26.000  30.930  11.520
  727BOLB   C3D17447  26.030  30.420  11.340
  727BOLB   C4D17448  26.400  30.110  11.440
  728BOLB   NC117449  18.860  29.320  11.620
  728BOLB   PO117450  18.650  29.830  11.520
  728BOLB   GL117451  18.740  30.290  11.610
  728BOLB   GL217452  18.530  30.500  11.800
  728BOLB   C1A17453  19.020  30.680  11.580
  728BOLB   C2A17454  19.000  31.120  11.390
  728BOLB   C3A17455  18.670  31.430  11.170
  728BOLB   C4A17456  18.670  31.880  11.170
  728BOLB   C1B17457  18.560  30.940  11.630
  728BOLB   C2B17458  18.350  31.320  11.560
  728BOLB   C3B17459  18.150  31.640  11.210
  728BOLB   C4B17460  17.950  32.190  11.170
  728BOLB   NC217461  19.060  34.120   9.940
  728BOLB   PO217462  18.880  33.840  10.260
  728BOLB   GL317463  18.740  33.430  10.340
  728BOLB   GL417464  18.620  33.330  10.020
  728BOLB   C1C17465  18.860  33.150  10.560
  728BOLB   C2C17466  18.920  32.850  10.890
  728BOLB   C3C17467  18.790  32.540  11.150
  728BOLB   C4C17468  18.450  32.260  11.220
  728BOLB   C1D17469  18.650  33.240   9.580
  728BOLB   C2D17470  18.270  33.090   9.370
  728BOLB   C3D17471  18.110  33.020   9.000
  728BOLB   C4D17472  17.890  32.870   8.690
  729BOLB   NC117473  12.110  26.160  10.160
  729BOLB   PO117474  11.900  26.090  10.570
  729BOLB   GL117475  11.730  26.380  10.350
  729BOLB   GL217476  11.600  26.670  10.420
  729BOLB   C1A17477  11.500  26.650   9.900
  729BOLB   C2A17478  11.240  26.900   9.640
  729BOLB   C3A17479  10.840  27.180   9.640
  729BOLB   C4A17480  10.640  27.390   9.460
  729BOLB   C1B17481  11.190  26.910  10.470
  729BOLB   C2B17482  10.890  27.280  10.440
  729BOLB   C3B17483  10.780  27.670  10.350
  729BOLB   C4B17484  10.510  27.900  10.620
  729BOLB   NC217485   9.680  29.850   9.180
  729BOLB   PO217486   9.710  29.680   8.810
  729BOLB   GL317487   9.930  29.410   9.000
  729BOLB   GL417488  10.010  29.440   9.240
  729BOLB   C1C17489  10.040  29.040   8.810
  729BOLB   C2C17490  10.190  28.640   8.970
  729BOLB   C3C17491  10.370  28.250   9.220
  729BOLB   C4C17492  10.560  27.850   9.400
  729BOLB   C1D17493  10.400  29.250   9.190
  729BOLB   C2D17494  10.540  28.920   9.470
  729BOLB   C3D17495  10.300  28.590   9.630
  729BOLB   C4D17496  10.350  28.250   9.800
  730BOLB   NC117497   7.400  27.960  15.120
  730BOLB   PO117498   7.700  27.630  15.240
  730BOLB   GL117499   8.000  27.440  15.180
  730BOLB   GL217500   8.100  27.160  15.430
  730BOLB   C1A17501   8.570  27.380  15.290
  730BOLB   C2A17502   8.880  27.460  14.910
  730BOLB   C3A17503   9.160  27.430  14.620
  730BOLB   C4A17504   9.480  27.290  14.420
  730BOLB   C1B17505   7.970  26.750  15.400
  730BOLB   C2B17506   8.060  26.370  15.650
  730BOLB   C3B17507   8.190  25.990  15.520
  730BOLB   C4B17508   8.480  25.630  15.430
  730BOLB   NC217509  11.130  25.900  14.460
  730BOLB   PO217510  11.370  26.220  14.450
  730BOLB   GL317511  11.320  26.610  14.290
  730BOLB   GL417512  11.610  26.940  14.360
  730BOLB   C1C17513  10.920  26.780  14.340
  730BOLB   C2C17514  10.590  27.060  14.140
  730BOLB   C3C17515  10.110  26.990  14.050
  730BOLB   C4C17516   9.750  27.060  14.340
  730BOLB   C1D17517  11.780  27.200  14.570
  730BOLB   C2D17518  11.570  27.460  14.840
  730BOLB   C3D17519  11.560  27.940  14.800
  730BOLB   C4D17520  11.570  28.300  14.670
  731BOLB   NC117521  26.110  24.180  11.530
  731BOLB   PO117522  26.290  23.880  11.290
  731BOLB   GL117523  26.670  24.110  11.180
  731BOLB   GL217524  26.800  24.080  11.440
  731BOLB   C1A17525  26.980  24.370  10.950
  731BOLB   C2A17526  27.250  24.630  10.790
  731BOLB   C3A17527  27.590  24.680  10.530
  731BOLB   C4A17528  28.070  24.610  10.420
  731BOLB   C1B17529  27.120  24.010  11.680
  731BOLB   C2B17530  27.540  23.880  11.470
  731BOLB   C3B17531  27.950  23.700  11.550
  731BOLB   C4B17532  28.250  23.610  11.820
  731BOLB   NC217533  30.130  24.540  10.680
  731BOLB   PO217534  30.210  24.320  10.390
  731BOLB   GL317535  29.950  24.010  10.620
  731BOLB   GL417536  29.820  24.060  10.950
  731BOLB   C1C17537  29.490  23.970  10.550
  731BOLB   C2C17538  29.250  24.350  10.340
  731BOLB   C3C17539  28.840  24.640  10.180
  731BOLB   C4C17540  28.380  24.590  10.200
  731BOLB   C1D17541  29.440  23.870  11.080
  731BOLB   C2D17542  29.080  23.980  11.300
  731BOLB   C3D17543  28.710  23.820  11.390
  731BOLB   C4D17544  28.350  23.780  11.230
  732BOLB   NC117545  21.000  25.980  19.890
  732BOLB   PO117546  20.830  26.320  19.560
  732BOLB   GL117547  20.970  26.510  19.900
  732BOLB   GL217548  20.820  26.390  20.140
  732BOLB   C1A17549  21.160  26.690  20.270
  732BOLB   C2A17550  21.190  26.800  20.700
  732BOLB   C3A17551  21.150  26.660  21.080
  732BOLB   C4A17552  21.240  26.590  21.500
  732BOLB   C1B17553  20.820  26.480  20.630
  732BOLB   C2B17554  20.680  26.840  20.780
  732BOLB   C3B17555  20.750  27.000  21.210
  732BOLB   C4B17556  20.530  27.040  21.540
  732BOLB   NC217557  23.000  27.780  23.080
  732BOLB   PO217558  23.210  27.510  22.700
  732BOLB   GL317559  23.000  27.200  22.480
  732BOLB   GL417560  22.910  26.960  22.610
  732BOLB   C1C17561  22.550  27.200  22.340
  732BOLB   C2C17562  22.080  27.060  22.340
  732BOLB   C3C17563  21.700  26.840  22.040
  732BOLB   C4C17564  21.340  26.640  21.910
  732BOLB   C1D17565  22.800  26.770  22.270
  732BOLB   C2D17566  22.860  26.390  21.950
  732BOLB   C3D17567  22.780  26.350  21.550
  732BOLB   C4D17568  22.440  26.150  21.480
  733BOLB   NC117569  15.360  28.220  13.640
  733BOLB   PO117570  15.250  28.620  13.850
  733BOLB   GL117571  15.150  28.990  14.020
  733BOLB   GL217572  15.140  28.980  14.380
  733BOLB   C1A17573  14.850  29.320  14.070
  733BOLB   C2A17574  14.680  29.670  14.310
  733BOLB   C3A17575  14.580  29.980  14.610
  733BOLB   C4A17576  14.290  30.170  14.960
  733BOLB   C1B17577  14.760  29.210  14.520
  733BOLB   C2B17578  14.400  29.300  14.690
  733BOLB   C3B17579  14.280  29.670  14.920
  733BOLB   C4B17580  14.060  29.780  15.180
  733BOLB   NC217581  12.860  32.250  15.170
  733BOLB   PO217582  12.650  31.890  15.040
  733BOLB   GL317583  12.960  31.590  14.970
  733BOLB   GL417584  13.230  31.760  15.200
  733BOLB   C1C17585  13.220  31.350  14.910
  733BOLB   C2C17586  13.460  31.000  14.980
  733BOLB   C3C17587  13.550  30.610  14.980
  733BOLB   C4C17588  13.890  30.500  15.060
  733BOLB   C1D17589  13.560  31.480  15.220
  733BOLB   C2D17590  13.920  31.340  15.120
  733BOLB   C3D17591  14.050  30.940  14.880
  733BOLB   C4D17592  14.320  30.610  14.740
  734BOLB   NC117593  21.780  29.700  12.000
  734BOLB   PO117594  22.140  29.400  12.150
  734BOLB   GL117595  22.270  29.820  12.250
  734BOLB   GL217596  22.450  29.730  12.360
  734BOLB   C1A17597  22.250  30.220  12.160
  734BOLB   C2A17598  22.390  30.570  12.020
  734BOLB   C3A17599  22.330  30.970  11.790
  734BOLB   C4A17600  22.510  31.380  11.620
  734BOLB   C1B17601  22.680  30.180  12.410
  734BOLB   C2B17602  22.760  30.520  12.650
  734BOLB   C3B17603  22.740  30.910  12.690
  734BOLB   C4B17604  22.890  31.310  12.470
  734BOLB   NC217605  23.280  33.210  11.090
  734BOLB   PO217606  23.270  33.320  10.580
  734BOLB   GL317607  23.360  32.940  10.660
  734BOLB   GL417608  23.270  32.800  10.370
  734BOLB   C1C17609  23.450  32.570  10.890
  734BOLB   C2C17610  23.080  32.410  11.130
  734BOLB   C3C17611  22.980  32.090  11.510
  734BOLB   C4C17612  22.760  31.710  11.460
  734BOLB   C1D17613  23.400  32.390  10.420
  734BOLB   C2D17614  23.310  32.150  10.720
  734BOLB   C3D17615  23.150  31.890  11.020
  734BOLB   C4D17616  23.170  31.460  11.180
  735BOLB   NC117617  21.000  27.960  17.230
  735BOLB   PO117618  21.070  28.210  17.710
  735BOLB   GL117619  21.210  28.380  18.170
  735BOLB   GL217620  21.440  28.250  18.280
  735BOLB   C1A17621  21.010  28.650  18.420
  735BOLB   C2A17622  21.110  28.900  18.750
  735BOLB   C3A17623  21.320  29.060  19.190
  735BOLB   C4A17624  21.620  29.020  19.590
  735BOLB   C1B17625  21.330  28.360  18.700
  735BOLB   C2B17626  21.270  28.310  19.190
  735BOLB   C3B17627  21.220  28.610  19.530
  735BOLB   C4B17628  21.140  29.020  19.730
  735BOLB   NC217629  23.190  30.130  20.870
  735BOLB   PO217630  23.390  29.800  21.090
  735BOLB   GL317631  23.110  29.560  21.060
  735BOLB   GL417632  22.880  29.770  20.950
  735BOLB   C1C17633  22.690  29.300  20.920
  735BOLB   C2C17634  22.320  29.270  20.600
  735BOLB   C3C17635  21.990  29.020  20.390
  735BOLB   C4C17636  21.630  29.080  20.060
  735BOLB   C1D17637  22.710  29.610  20.550
  735BOLB   C2D17638  22.510  29.510  20.090
  735BOLB   C3D17639  22.150  29.390  19.950
  735BOLB   C4D17640  21.840  29.490  20.290
  736BOLB   NC117641  11.790  32.190  11.360
  736BOLB   PO117642  11.600  31.900  11.730
  736BOLB   GL117643  11.790  31.420  11.890
  736BOLB   GL217644  12.100  31.380  11.940
  736BOLB   C1A17645  11.560  31.030  11.750
  736BOLB   C2A17646  11.800  30.730  11.480
  736BOLB   C3A17647  11.950  30.300  11.410
  736BOLB   C4A17648  12.110  29.990  11.690
  736BOLB   C1B17649  12.310  31.120  12.310
  736BOLB   C2B17650  12.790  31.020  12.390
  736BOLB   C3B17651  13.180  30.740  12.250
  736BOLB   C4B17652  13.490  30.410  12.280
  736BOLB   NC217653  13.690  27.840  12.200
  736BOLB   PO217654  13.450  28.020  11.900
  736BOLB   GL317655  13.330  28.480  11.600
  736BOLB   GL417656  13.260  28.500  11.310
  736BOLB   C1C17657  13.240  28.940  11.670
  736BOLB   C2C17658  12.920  29.220  11.670
  736BOLB   C3C17659  12.470  29.350  11.700
  736BOLB   C4C17660  12.210  29.650  11.630
  736BOLB   C1D17661  12.940  28.840  11.250
  736BOLB   C2D17662  12.700  29.190  11.220
  736BOLB   C3D17663  12.410  29.550  11.200
  736BOLB   C4D17664  11.930  29.770  11.230
  737BOLB   NC117665  13.240  26.060  16.810
  737BOLB   PO117666  13.350  26.460  16.590
  737BOLB   GL117667  13.250  26.710  16.910
  737BOLB   GL217668  13.420  26.750  17.120
  737BOLB   C1A17669  12.910  26.810  17.070
  737BOLB   C2A17670  12.500  26.860  17.000
  737BOLB   C3A17671  12.280  27.120  17.270
  737BOLB   C4A17672  11.950  27.460  17.210
  737BOLB   C1B17673  13.270  27.220  17.210
  737BOLB   C2B17674  13.150  27.630  17.320
  737BOLB   C3B17675  12.900  27.920  17.520
  737BOLB   C4B17676  12.820  28.320  17.730
  737BOLB   NC217677  10.470  29.070  18.430
  737BOLB   PO217678  10.890  28.940  18.520
  737BOLB   GL317679  11.050  28.970  18.140
  737BOLB   GL417680  10.760  28.710  18.110
  737BOLB   C1C17681  11.130  28.800  17.750
  737BOLB   C2C17682  11.330  28.430  17.620
  737BOLB   C3C17683  11.340  28.160  17.340
  737BOLB   C4C17684  11.700  27.790  17.310
  737BOLB   C1D17685  11.060  28.450  18.080
  737BOLB   C2D17686  11.100  28.090  17.940
  737BOLB   C3D17687  11.160  27.640  17.630
  737BOLB   C4D17688  11.320  27.200  17.580
  738BOLB   NC117689  15.740  26.250  17.560
  738BOLB   PO117690  15.440  26.600  17.610
  738BOLB   GL117691  15.210  26.900  18.040
  738BOLB   GL217692  14.990  26.900  18.350
  738BOLB   C1A17693  14.980  27.310  17.970
  738BOLB   C2A17694  15.120  27.470  18.350
  738BOLB   C3A17695  15.190  27.800  18.790
  738BOLB   C4A17696  14.890  28.030  19.110
  738BOLB   C1B17697  14.720  27.000  18.780
  738BOLB   C2B17698  14.590  27.170  19.110
  738BOLB   C3B17699  14.160  27.300  19.150
  738BOLB   C4B17700  14.030  27.670  19.100
  738BOLB   NC217701  13.360  28.750  20.980
  738BOLB   PO217702  13.620  28.400  21.080
  738BOLB   GL317703  13.670  28.170  20.760
  738BOLB   GL417704  13.510  28.450  20.560
  738BOLB   C1C17705  13.980  28.060  20.440
  738BOLB   C2C17706  14.160  28.200  20.060
  738BOLB   C3C17707  14.360  28.380  19.590
  738BOLB   C4C17708  14.560  28.190  19.310
  738BOLB   C1D17709  13.580  28.130  20.170
  738BOLB   C2D17710  13.510  28.020  19.730
  738BOLB   C3D17711  13.680  28.040  19.350
  738BOLB   C4D17712  14.000  28.300  19.270
  739BOLB   NC117713  19.170  27.220  18.340
  739BOLB   PO117714  19.630  27.420  18.480
  739BOLB   GL117715  19.660  27.810  18.910
  739BOLB   GL217716  19.600  28.140  18.830
  739BOLB   C1A17717  19.660  27.950  19.330
  739BOLB   C2A17718  19.640  28.110  19.660
  739BOLB   C3A17719  19.460  28.410  19.970
  739BOLB   C4A17720  19.540  28.470  20.410
  739BOLB   C1B17721  19.980  28.450  19.180
  739BOLB   C2B17722  20.230  28.750  19.100
  739BOLB   C3B17723  20.290  29.070  18.690
  739BOLB   C4B17724  20.480  29.500  18.610
  739BOLB   NC217725  19.250  30.050  22.050
  739BOLB   PO217726  18.890  29.730  22.120
  739BOLB   GL317727  18.720  29.450  21.830
  739BOLB   GL417728  18.610  29.580  21.640
  739BOLB   C1C17729  18.720  29.000  21.700
  739BOLB   C2C17730  19.110  28.820  21.470
  739BOLB   C3C17731  19.380  28.460  21.220
  739BOLB   C4C17732  19.540  28.300  20.870
  739BOLB   C1D17733  18.720  29.770  21.150
  739BOLB   C2D17734  18.590  30.010  20.740
  739BOLB   C3D17735  18.520  30.200  20.380
  739BOLB   C4D17736  18.510  30.530  20.090
  740BOLB   NC117737  11.970  25.190   9.010
  740BOLB   PO117738  12.220  25.550   8.820
  740BOLB   GL117739  11.830  25.650   8.600
  740BOLB   GL217740  11.550  25.410   8.500
  740BOLB   C1A17741  11.890  25.950   8.180
  740BOLB   C2A17742  11.750  26.290   7.980
  740BOLB   C3A17743  11.930  26.790   7.850
  740BOLB   C4A17744  12.200  27.070   7.950
  740BOLB   C1B17745  11.380  25.720   8.250
  740BOLB   C2B17746  11.270  26.060   8.010
  740BOLB   C3B17747  11.130  26.200   7.600
  740BOLB   C4B17748  10.790  26.080   7.300
  740BOLB   NC217749  11.370  29.580   6.230
  740BOLB   PO217750  11.480  29.160   6.190
  740BOLB   GL317751  11.630  28.830   6.540
  740BOLB   GL417752  11.660  28.460   6.500
  740BOLB   C1C17753  11.650  28.470   6.970
  740BOLB   C2C17754  11.630  28.260   7.520
  740BOLB   C3C17755  11.790  27.870   7.630
  740BOLB   C4C17756  12.030  27.510   7.760
  740BOLB   C1D17757  11.700  28.070   6.750
  740BOLB   C2D17758  11.840  27.690   6.920
  740BOLB   C3D17759  11.680  27.570   7.240
  740BOLB   C4D17760  11.740  27.190   7.560
  741BOLB   NC117761  16.140  29.380  14.120
  741BOLB   PO117762  15.860  29.020  13.940
  741BOLB   GL117763  15.590  29.300  13.710
  741BOLB   GL217764  15.700  29.600  13.860
  741BOLB   C1A17765  15.190  29.330  13.650
  741BOLB   C2A17766  14.890  29.710  13.630
  741BOLB   C3A17767  15.030  30.220  13.890
  741BOLB   C4A17768  14.800  30.630  13.970
  741BOLB   C1B17769  15.730  29.930  14.110
  741BOLB   C2B17770  15.500  30.290  14.260
  741BOLB   C3B17771  15.260  30.610  14.230
  741BOLB   C4B17772  14.940  31.100  14.270
  741BOLB   NC217773  13.950  32.870  13.780
  741BOLB   PO217774  13.610  32.590  13.610
  741BOLB   GL317775  13.850  32.290  13.540
  741BOLB   GL417776  14.040  32.560  13.300
  741BOLB   C1C17777  13.980  31.890  13.630
  741BOLB   C2C17778  14.110  31.700  14.000
  741BOLB   C3C17779  14.320  31.410  14.140
  741BOLB   C4C17780  14.510  30.950  14.140
  741BOLB   C1D17781  14.380  32.170  13.290
  741BOLB   C2D17782  14.570  31.950  12.940
  741BOLB   C3D17783  14.810  31.630  12.820
  741BOLB   C4D17784  15.070  31.300  12.830
  742BOLB   NC117785  17.920  29.870  15.700
  742BOLB   PO117786  17.990  29.940  15.380
  742BOLB   GL117787  18.120  30.370  15.170
  742BOLB   GL217788  17.760  30.320  15.100
  742BOLB   C1A17789  18.130  30.780  15.220
  742BOLB   C2A17790  17.780  31.070  15.400
  742BOLB   C3A17791  17.740  31.540  15.550
  742BOLB   C4A17792  17.560  31.950  15.560
  742BOLB   C1B17793  17.660  30.730  15.050
  742BOLB   C2B17794  17.880  31.130  14.910
  742BOLB   C3B17795  17.790  31.570  15.070
  742BOLB   C4B17796  17.760  32.030  15.090
  742BOLB   NC217797  17.630  34.310  15.370
  742BOLB   PO217798  17.390  34.100  15.510
  742BOLB   GL317799  17.460  33.740  15.380
  742BOLB   GL417800  17.840  33.660  15.300
  742BOLB   C1C17801  17.290  33.400  15.540
  742BOLB   C2C17802  17.290  32.960  15.470
  742BOLB   C3C17803  17.440  32.750  15.710
  742BOLB   C4C17804  17.580  32.340  15.550
  742BOLB   C1D17805  17.970  33.340  15.010
  742BOLB   C2D17806  17.860  33.070  14.710
  742BOLB   C3D17807  17.900  32.670  14.570
  742BOLB   C4D17808  17.890  32.250  14.380
  743BOLB   NC117809   9.820  24.360  14.230
  743BOLB   PO117810   9.890  24.200  14.630
  743BOLB   GL117811   9.700  24.570  14.760
  743BOLB   GL217812   9.770  24.800  15.030
  743BOLB   C1A17813   9.330  24.780  14.710
  743BOLB   C2A17814   8.950  25.000  14.510
  743BOLB   C3A17815   8.680  25.230  14.500
  743BOLB   C4A17816   8.260  25.200  14.530
  743BOLB   C1B17817   9.650  25.130  14.870
  743BOLB   C2B17818   9.290  25.300  14.920
  743BOLB   C3B17819   9.000  25.030  15.040
  743BOLB   C4B17820   8.610  25.010  14.980
  743BOLB   NC217821   6.850  27.160  15.350
  743BOLB   PO217822   7.150  27.070  15.630
  743BOLB   GL317823   7.400  26.610  15.630
  743BOLB   GL417824   7.620  26.530  15.870
  743BOLB   C1C17825   7.280  26.300  15.380
  743BOLB   C2C17826   7.430  25.980  15.060
  743BOLB   C3C17827   7.750  25.720  14.770
  743BOLB   C4C17828   7.920  25.440  14.620
  743BOLB   C1D17829   7.610  26.150  15.830
  743BOLB   C2D17830   7.690  25.950  15.490
  743BOLB   C3D17831   7.950  25.610  15.260
  743BOLB   C4D17832   8.210  25.270  15.120
  744BOLB   NC117833  24.040  28.240  13.260
  744BOLB   PO117834  24.380  28.170  12.910
  744BOLB   GL117835  24.480  28.540  13.220
  744BOLB   GL217836  24.640  28.520  13.590
  744BOLB   C1A17837  24.780  28.970  13.270
  744BOLB   C2A17838  25.000  29.300  13.500
  744BOLB   C3A17839  25.060  29.580  13.890
  744BOLB   C4A17840  25.150  29.870  14.230
  744BOLB   C1B17841  24.930  28.840  13.750
  744BOLB   C2B17842  25.280  29.040  13.800
  744BOLB   C3B17843  25.700  29.110  13.610
  744BOLB   C4B17844  26.030  29.230  13.500
  744BOLB   NC217845  27.130  31.510  14.790
  744BOLB   PO217846  26.920  31.350  14.500
  744BOLB   GL317847  26.640  31.010  14.530
  744BOLB   GL417848  26.410  31.130  14.400
  744BOLB   C1C17849  26.500  30.690  14.660
  744BOLB   C2C17850  26.110  30.620  14.610
  744BOLB   C3C17851  25.830  30.290  14.770
  744BOLB   C4C17852  25.510  30.030  14.480
  744BOLB   C1D17853  26.120  30.920  14.100
  744BOLB   C2D17854  25.820  30.940  13.830
  744BOLB   C3D17855  25.400  30.940  13.570
  744BOLB   C4D17856  25.040  31.070  13.360
  745BOLB   NC117857  25.220  27.140  14.170
  745BOLB   PO117858  25.260  27.240  14.670
  745BOLB   GL117859  25.610  27.460  14.670
  745BOLB   GL217860  25.790  27.440  14.380
  745BOLB   C1A17861  25.880  27.770  14.850
  745BOLB   C2A17862  26.110  28.050  14.840
  745BOLB   C3A17863  26.560  28.190  14.860
  745BOLB   C4A17864  26.890  28.470  14.720
  745BOLB   C1B17865  26.190  27.330  14.560
  745BOLB   C2B17866  26.680  27.270  14.580
  745BOLB   C3B17867  26.970  27.440  14.760
  745BOLB   C4B17868  27.350  27.550  14.690
  745BOLB   NC217869  28.260  30.580  15.430
  745BOLB   PO217870  28.360  30.210  15.250
  745BOLB   GL317871  28.010  29.840  14.990
  745BOLB   GL417872  27.910  29.670  15.290
  745BOLB   C1C17873  27.600  29.700  14.910
  745BOLB   C2C17874  27.500  29.410  15.280
  745BOLB   C3C17875  27.290  29.060  15.190
  745BOLB   C4C17876  27.120  28.830  14.800
  745BOLB   C1D17877  28.030  29.180  15.190
  745BOLB   C2D17878  27.740  28.960  14.970
  745BOLB   C3D17879  27.630  28.570  14.770
  745BOLB   C4D17880  27.400  28.460  14.520
  746BOLB   NC117881  15.400  24.170   6.470
  746BOLB   PO117882  15.140  23.720   6.270
  746BOLB   GL117883  14.860  23.940   5.910
  746BOLB   GL217884  14.560  23.720   5.840
  746BOLB   C1A17885  14.940  24.150   5.510
  746BOLB   C2A17886  15.380  24.210   5.470
  746BOLB   C3A17887  15.450  24.280   5.080
  746BOLB   C4A17888  15.430  24.690   4.730
  746BOLB   C1B17889  14.470  23.970   5.470
  746BOLB   C2B17890  14.160  23.970   5.160
  746BOLB   C3B17891  13.850  24.130   5.020
  746BOLB   C4B17892  13.380  24.300   4.870
  746BOLB   NC217893  14.360  26.520   3.100
  746BOLB   PO217894  14.760  26.270   3.080
  746BOLB   GL317895  14.970  25.900   3.090
  746BOLB   GL417896  14.910  25.570   3.030
  746BOLB   C1C17897  15.200  25.560   3.430
  746BOLB   C2C17898  15.350  25.310   3.640
  746BOLB   C3C17899  15.270  24.910   4.000
  746BOLB   C4C17900  15.240  24.740   4.410
  746BOLB   C1D17901  14.900  25.130   3.230
  746BOLB   C2D17902  14.930  24.970   3.590
  746BOLB   C3D17903  14.930  24.520   3.780
  746BOLB   C4D17904  14.870  24.310   4.170
  747BOLB   NC117905  24.890  24.300  17.740
  747BOLB   PO117906  25.170  23.960  17.800
  747BOLB   GL117907  25.240  24.100  18.290
  747BOLB   GL217908  24.960  24.200  18.610
  747BOLB   C1A17909  25.620  24.440  18.400
  747BOLB   C2A17910  26.080  24.440  18.340
  747BOLB   C3A17911  26.420  24.260  18.690
  747BOLB   C4A17912  26.470  23.880  18.820
  747BOLB   C1B17913  25.190  24.210  18.820
  747BOLB   C2B17914  25.450  24.390  19.020
  747BOLB   C3B17915  25.740  24.370  19.290
  747BOLB   C4B17916  26.000  24.240  19.610
  747BOLB   NC217917  27.880  22.740  20.840
  747BOLB   PO217918  27.570  23.100  20.820
  747BOLB   GL317919  27.390  22.980  20.440
  747BOLB   GL417920  27.500  23.120  20.130
  747BOLB   C1C17921  26.970  23.240  20.190
  747BOLB   C2C17922  26.840  23.430  19.830
  747BOLB   C3C17923  26.560  23.270  19.580
  747BOLB   C4C17924  26.350  23.540  19.170
  747BOLB   C1D17925  27.260  23.100  19.790
  747BOLB   C2D17926  27.040  23.170  19.430
  747BOLB   C3D17927  26.870  23.550  19.290
  747BOLB   C4D17928  26.890  24.030  19.180
  748BOLB   NC117929   5.020  24.680  12.500
  748BOLB   PO117930   4.950  24.460  12.180
  748BOLB   GL117931   5.330  24.290  12.250
  748BOLB   GL217932   5.510  24.430  12.550
  748BOLB   C1A17933   5.800  24.260  12.210
  748BOLB   C2A17934   6.110  24.360  11.880
  748BOLB   C3A17935   6.510  24.310  11.900
  748BOLB   C4A17936   6.740  23.860  11.830
  748BOLB   C1B17937   5.680  24.320  12.910
  748BOLB   C2B17938   6.050  24.380  13.240
  748BOLB   C3B17939   6.450  24.400  13.370
  748BOLB   C4B17940   6.900  24.500  13.340
  748BOLB   NC217941   4.730  23.270  11.060
  748BOLB   PO217942   4.870  23.700  11.150
  748BOLB   GL317943   5.240  23.380  11.130
  748BOLB   GL417944   5.210  23.110  11.420
  748BOLB   C1C17945   5.680  23.260  11.210
  748BOLB   C2C17946   6.010  23.080  11.540
  748BOLB   C3C17947   6.470  23.150  11.630
  748BOLB   C4C17948   6.670  23.420  11.910
  748BOLB   C1D17949   5.520  22.800  11.350
  748BOLB   C2D17950   5.850  22.570  11.450
  748BOLB   C3D17951   6.230  22.520  11.590
  748BOLB   C4D17952   6.620  22.640  11.750
  749BOLB   NC117953  20.620  29.530  10.640
  749BOLB   PO117954  20.450  29.450  10.200
  749BOLB   GL117955  20.500  29.930  10.370
  749BOLB   GL217956  20.840  30.000  10.450
  749BOLB   C1A17957  20.420  30.340  10.310
  749BOLB   C2A17958  20.560  30.730  10.430
  749BOLB   C3A17959  20.800  31.010  10.250
  749BOLB   C4A17960  20.890  31.370  10.140
  749BOLB   C1B17961  20.880  30.460  10.480
  749BOLB   C2B17962  21.030  30.890  10.670
  749BOLB   C3B17963  21.100  31.330  10.580
  749BOLB   C4B17964  20.820  31.660  10.720
  749BOLB   NC217965  22.010  33.590   9.900
  749BOLB   PO217966  22.380  33.510   9.710
  749BOLB   GL317967  22.190  33.140   9.770
  749BOLB   GL417968  22.290  32.980   9.550
  749BOLB   C1C17969  22.020  32.830   9.980
  749BOLB   C2C17970  21.590  32.650  10.100
  749BOLB   C3C17971  21.320  32.290  10.070
  749BOLB   C4C17972  21.110  31.890  10.110
  749BOLB   C1D17973  22.210  32.570   9.570
  749BOLB   C2D17974  21.890  32.320   9.780
  749BOLB   C3D17975  22.100  31.900   9.900
  749BOLB   C4D17976  22.340  31.530   9.790
  750BOLB   NC117977  21.830  29.210  10.270
  750BOLB   PO117978  22.210  29.040  10.310
  750BOLB   GL117979  22.410  29.340  10.360
  750BOLB   GL217980  22.190  29.540  10.090
  750BOLB   C1A17981  22.590  29.720  10.300
  750BOLB   C2A17982  22.760  30.080   9.980
  750BOLB   C3A17983  23.070  30.420   9.810
  750BOLB   C4A17984  23.440  30.540  10.070
  750BOLB   C1B17985  22.320  29.760   9.800
  750BOLB   C2B17986  22.400  30.130   9.570
  750BOLB   C3B17987  22.250  30.480   9.420
  750BOLB   C4B17988  21.960  30.750   9.270
  750BOLB   NC217989  24.260  32.880   9.780
  750BOLB   PO217990  24.220  32.860  10.180
  750BOLB   GL317991  24.190  32.410  10.330
  750BOLB   GL417992  24.320  32.150  10.550
  750BOLB   C1C17993  24.040  32.020  10.120
  750BOLB   C2C17994  24.040  31.550  10.320
  750BOLB   C3C17995  24.030  31.160  10.310
  750BOLB   C4C17996  23.800  30.720  10.270
  750BOLB   C1D17997  24.100  31.750  10.760
  750BOLB   C2D17998  24.040  31.310  10.830
  750BOLB   C3D17999  24.190  30.890  10.710
  750BOLB   C4D18000  24.230  30.460  10.400
  751BOLB   NC118001  20.720  29.950  11.330
  751BOLB   PO118002  20.930  29.860  10.900
  751BOLB   GL118003  20.990  30.280  10.960
  751BOLB   GL218004  20.960  30.450  11.240
  751BOLB   C1A18005  21.330  30.480  10.810
  751BOLB   C2A18006  21.520  30.780  10.420
  751BOLB   C3A18007  21.780  30.950  10.130
  751BOLB   C4A18008  22.000  30.840   9.810
  751BOLB   C1B18009  21.210  30.800  11.160
  751BOLB   C2B18010  21.510  30.960  10.890
  751BOLB   C3B18011  21.580  31.280  10.580
  751BOLB   C4B18012  21.380  31.480  10.220
  751BOLB   NC218013  24.280  31.820   8.140
  751BOLB   PO218014  23.930  32.080   8.350
  751BOLB   GL318015  23.860  31.820   8.690
  751BOLB   GL418016  24.010  31.480   8.610
  751BOLB   C1C18017  23.600  31.560   8.860
  751BOLB   C2C18018  23.280  31.260   9.180
  751BOLB   C3C18019  22.780  31.170   9.270
  751BOLB   C4C18020  22.370  30.970   9.480
  751BOLB   C1D18021  24.270  31.260   8.780
  751BOLB   C2D18022  24.360  30.940   9.080
  751BOLB   C3D18023  24.140  30.920   9.460
  751BOLB   C4D18024  23.750  30.750   9.730
  752BOLB   NC118025  12.070  15.030  15.550
  752BOLB   PO118026  11.830  15.340  15.950
  752BOLB   GL118027  11.680  15.410  15.550
  752BOLB   GL218028  11.910  15.530  15.370
  752BOLB   C1A18029  11.450  15.470  15.170
  752BOLB   C2A18030  11.140  15.170  14.910
  752BOLB   C3A18031  10.850  14.900  14.710
  752BOLB   C4A18032  10.500  14.690  14.750
  752BOLB   C1B18033  11.850  15.520  14.950
  752BOLB   C2B18034  11.530  15.870  14.780
  752BOLB   C3B18035  11.150  16.070  14.620
  752BOLB   C4B18036  10.710  15.880  14.570
  752BOLB   NC218037   8.180  14.620  14.620
  752BOLB   PO218038   8.270  14.110  14.640
  752BOLB   GL318039   8.650  14.470  14.680
  752BOLB   GL418040   8.620  14.640  14.990
  752BOLB   C1C18041   9.100  14.830  14.840
  752BOLB   C2C18042   9.480  14.800  14.860
  752BOLB   C3C18043   9.870  14.870  15.050
  752BOLB   C4C18044  10.160  14.570  15.110
  752BOLB   C1D18045   8.790  14.950  15.240
  752BOLB   C2D18046   9.190  15.180  15.190
  752BOLB   C3D18047   9.280  15.600  15.330
  752BOLB   C4D18048   9.600  15.840  15.210
  753BOLB   NC118049  12.350  30.400  18.830
  753BOLB   PO118050  12.360  30.640  18.420
  753BOLB   GL118051  12.730  30.330  18.200
  753BOLB   GL218052  12.550  30.010  18.230
  753BOLB   C1A18053  13.060  30.050  18.100
  753BOLB   C2A18054  13.460  29.790  18.130
  753BOLB   C3A18055  13.520  29.390  17.870
  753BOLB   C4A18056  13.330  29.150  17.630
  753BOLB   C1B18057  12.640  29.670  18.040
  753BOLB   C2B18058  12.860  29.440  17.760
  753BOLB   C3B18059  12.860  29.200  17.330
  753BOLB   C4B18060  13.230  29.050  17.120
  753BOLB   NC218061  11.780  30.140  19.430
  753BOLB   PO218062  11.470  29.820  19.060
  753BOLB   GL318063  11.740  29.500  18.760
  753BOLB   GL418064  12.000  29.600  18.740
  753BOLB   C1C18065  11.850  29.190  18.410
  753BOLB   C2C18066  12.110  28.890  18.150
  753BOLB   C3C18067  12.610  28.670  18.110
  753BOLB   C4C18068  13.000  28.880  17.830
  753BOLB   C1D18069  12.350  29.510  18.490
  753BOLB   C2D18070  12.830  29.640  18.560
  753BOLB   C3D18071  13.220  29.850  18.510
  753BOLB   C4D18072  13.620  29.910  18.690
  754BOLB   NC118073  25.340  26.100  11.900
  754BOLB   PO118074  25.610  25.970  11.550
  754BOLB   GL118075  25.900  26.370  11.490
  754BOLB   GL218076  26.090  26.450  11.760
  754BOLB   C1A18077  26.320  26.540  11.220
  754BOLB   C2A18078  26.650  26.840  11.360
  754BOLB   C3A18079  27.030  26.800  11.310
  754BOLB   C4A18080  27.260  26.950  11.000
  754BOLB   C1B18081  26.540  26.410  11.690
  754BOLB   C2B18082  26.960  26.360  11.490
  754BOLB   C3B18083  27.300  26.380  11.110
  754BOLB   C4B18084  27.440  26.530  10.770
  754BOLB   NC218085  28.750  28.290   9.880
  754BOLB   PO218086  28.760  28.550  10.270
  754BOLB   GL318087  28.300  28.480  10.480
  754BOLB   GL418088  28.280  28.180  10.130
  754BOLB   C1C18089  27.950  28.240  10.530
  754BOLB   C2C18090  27.570  27.930  10.590
  754BOLB   C3C18091  27.270  27.540  10.460
  754BOLB   C4C18092  27.180  27.270  10.610
  754BOLB   C1D18093  27.870  28.050  10.050
  754BOLB   C2D18094  27.420  28.020  10.090
  754BOLB   C3D18095  27.100  28.140  10.330
  754BOLB   C4D18096  26.830  28.240  10.680
  755BOLB   NC118097  16.450  29.120  15.120
  755BOLB   PO118098  16.110  29.190  15.050
  755BOLB   GL118099  16.020  29.510  14.740
  755BOLB   GL218100  16.210  29.640  14.570
  755BOLB   C1A18101  15.900  29.960  14.920
  755BOLB   C2A18102  15.690  30.260  14.710
  755BOLB   C3A18103  15.500  30.600  14.670
  755BOLB   C4A18104  15.390  31.040  14.720
  755BOLB   C1B18105  16.080  30.070  14.450
  755BOLB   C2B18106  15.950  30.610  14.400
  755BOLB   C3B18107  15.680  31.020  14.250
  755BOLB   C4B18108  15.830  31.470  14.320
  755BOLB   NC218109  14.520  33.110  14.520
  755BOLB   PO218110  14.570  33.080  14.060
  755BOLB   GL318111  14.740  32.740  14.210
  755BOLB   GL418112  14.860  32.620  14.460
  755BOLB   C1C18113  14.730  32.410  14.000
  755BOLB   C2C18114  14.800  32.010  14.090
  755BOLB   C3C18115  15.110  31.650  14.250
  755BOLB   C4C18116  15.420  31.470  14.610
  755BOLB   C1D18117  15.130  32.320  14.480
  755BOLB   C2D18118  15.150  31.930  14.650
  755BOLB   C3D18119  15.000  31.690  14.890
  755BOLB   C4D18120  14.950  31.280  14.720
  756BOLB   NC118121  24.530  23.500  17.590
  756BOLB   PO118122  24.850  23.530  17.780
  756BOLB   GL118123  25.100  23.520  18.020
  756BOLB   GL218124  25.480  23.540  17.920
  756BOLB   C1A18125  25.110  23.410  18.430
  756BOLB   C2A18126  25.370  23.630  18.810
  756BOLB   C3A18127  25.480  23.870  19.100
  756BOLB   C4A18128  25.850  23.830  19.280
  756BOLB   C1B18129  25.610  23.540  18.350
  756BOLB   C2B18130  25.670  24.010  18.640
  756BOLB   C3B18131  25.900  24.190  18.860
  756BOLB   C4B18132  26.240  24.270  19.130
  756BOLB   NC218133  27.810  24.160  21.170
  756BOLB   PO218134  27.730  24.550  20.820
  756BOLB   GL318135  27.480  24.440  20.480
  756BOLB   GL418136  27.500  24.630  20.150
  756BOLB   C1C18137  27.290  24.130  20.170
  756BOLB   C2C18138  27.050  23.990  19.730
  756BOLB   C3C18139  26.640  23.880  19.670
  756BOLB   C4C18140  26.180  23.740  19.570
  756BOLB   C1D18141  27.070  24.720  20.050
  756BOLB   C2D18142  26.670  24.750  20.280
  756BOLB   C3D18143  26.360  24.770  20.550
  756BOLB   C4D18144  26.090  24.940  20.870
  757BOLB   NC118145  22.120  28.500  15.010
  757BOLB   PO118146  21.930  28.860  15.320
  757BOLB   GL118147  21.910  29.270  15.540
  757BOLB   GL218148  21.910  29.310  15.910
  757BOLB   C1A18149  22.010  29.780  15.530
  757BOLB   C2A18150  22.060  30.100  15.830
  757BOLB   C3A18151  21.940  30.350  16.150
  757BOLB   C4A18152  22.040  30.630  16.330
  757BOLB   C1B18153  21.840  29.630  16.070
  757BOLB   C2B18154  21.820  29.890  16.510
  757BOLB   C3B18155  22.020  30.210  16.630
  757BOLB   C4B18156  21.920  30.550  16.800
  757BOLB   NC218157  22.650  33.300  15.800
  757BOLB   PO218158  22.870  32.880  15.960
  757BOLB   GL318159  22.690  32.440  15.970
  757BOLB   GL418160  22.940  32.390  15.740
  757BOLB   C1C18161  22.390  32.160  15.990
  757BOLB   C2C18162  22.240  31.800  16.050
  757BOLB   C3C18163  22.300  31.440  16.300
  757BOLB   C4C18164  22.140  31.040  16.370
  757BOLB   C1D18165  22.770  31.980  15.780
  757BOLB   C2D18166  22.650  31.550  15.840
  757BOLB   C3D18167  22.630  31.160  15.540
  757BOLB   C4D18168  22.580  30.740  15.400
  758BOLB   NC118169  25.180  25.250  10.570
  758BOLB   PO118170  25.030  25.450  11.020
  758BOLB   GL118171  25.500  25.650  10.900
  758BOLB   GL218172  25.660  25.680  11.150
  758BOLB   C1A18173  25.890  25.800  10.740
  758BOLB   C2A18174  26.140  26.130  10.450
  758BOLB   C3A18175  26.330  26.240  10.010
  758BOLB   C4A18176  26.750  26.440  10.050
  758BOLB   C1B18177  26.050  25.590  11.210
  758BOLB   C2B18178  26.510  25.630  11.060
  758BOLB   C3B18179  26.860  25.890  10.990
  758BOLB   C4B18180  27.070  26.180  10.690
  758BOLB   NC218181  29.310  27.270   9.890
  758BOLB   PO218182  29.280  26.990   9.510
  758BOLB   GL318183  28.910  26.980   9.770
  758BOLB   GL418184  28.830  27.160   9.960
  758BOLB   C1C18185  28.470  26.770   9.720
  758BOLB   C2C18186  28.120  26.920   9.850
  758BOLB   C3C18187  27.650  26.720   9.850
  758BOLB   C4C18188  27.180  26.450  10.010
  758BOLB   C1D18189  28.630  27.030  10.290
  758BOLB   C2D18190  28.380  26.650  10.550
  758BOLB   C3D18191  28.030  26.470  10.680
  758BOLB   C4D18192  27.670  26.120  10.740
  759BOLB   NC118193  26.450  22.000  13.580
  759BOLB   PO118194  26.700  22.320  13.440
  759BOLB   GL118195  27.060  22.460  13.330
  759BOLB   GL218196  27.080  22.740  13.600
  759BOLB   C1A18197  27.470  22.540  13.290
  759BOLB   C2A18198  27.760  22.730  12.950
  759BOLB   C3A18199  27.990  22.910  12.580
  759BOLB   C4A18200  28.520  22.830  12.460
  759BOLB   C1B18201  27.190  22.470  13.840
  759BOLB   C2B18202  27.520  22.250  13.670
  759BOLB   C3B18203  28.020  22.380  13.510
  759BOLB   C4B18204  28.300  22.670  13.610
  759BOLB   NC218205  30.650  23.110  13.320
  759BOLB   PO218206  30.760  23.490  13.080
  759BOLB   GL318207  30.350  23.410  13.070
  759BOLB   GL418208  30.310  23.630  13.290
  759BOLB   C1C18209  30.000  23.200  13.090
  759BOLB   C2C18210  29.820  23.060  12.860
  759BOLB   C3C18211  29.440  23.120  12.640
  759BOLB   C4C18212  28.970  23.090  12.650
  759BOLB   C1D18213  29.830  23.690  13.200
  759BOLB   C2D18214  29.400  23.850  13.080
  759BOLB   C3D18215  28.950  24.040  12.990
  759BOLB   C4D18216  28.620  23.700  13.010
  760BOLB   NC118217  23.210  29.290  12.980
  760BOLB   PO118218  23.410  29.030  12.710
  760BOLB   GL118219  23.820  29.260  12.690
  760BOLB   GL218220  24.080  29.200  12.920
  760BOLB   C1A18221  24.240  29.330  12.480
  760BOLB   C2A18222  24.640  29.530  12.470
  760BOLB   C3A18223  24.950  29.830  12.700
  760BOLB   C4A18224  25.010  30.270  12.840
  760BOLB   C1B18225  24.050  29.710  12.770
  760BOLB   C2B18226  23.860  30.050  12.930
  760BOLB   C3B18227  24.070  30.400  13.070
  760BOLB   C4B18228  24.000  30.830  13.100
  760BOLB   NC218229  24.820  33.160  12.360
  760BOLB   PO218230  25.010  32.900  12.670
  760BOLB   GL318231  25.050  32.460  12.610
  760BOLB   GL418232  24.760  32.270  12.540
  760BOLB   C1C18233  25.260  31.910  12.470
  760BOLB   C2C18234  25.260  31.510  12.610
  760BOLB   C3C18235  25.150  31.110  12.770
  760BOLB   C4C18236  25.060  30.670  12.780
  760BOLB   C1D18237  24.740  31.790  12.550
  760BOLB   C2D18238  24.630  31.440  12.350
  760BOLB   C3D18239  24.640  31.410  11.920
  760BOLB   C4D18240  24.590  31.480  11.570
  761BOLB   NC118241   9.020  21.480  14.550
  761BOLB   PO118242   8.720  21.260  14.280
  761BOLB   GL118243   8.470  20.910  14.430
  761BOLB   GL218244   8.530  20.670  14.290
  761BOLB   C1A18245   8.060  20.620  14.560
  761BOLB   C2A18246   7.850  20.290  14.470
  761BOLB   C3A18247   7.710  19.870  14.480
  761BOLB   C4A18248   7.670  19.420  14.410
  761BOLB   C1B18249   8.370  20.280  14.380
  761BOLB   C2B18250   8.180  19.960  14.160
  761BOLB   C3B18251   7.890  19.790  14.040
  761BOLB   C4B18252   7.450  19.950  14.090
  761BOLB   NC218253   5.760  18.180  14.560
  761BOLB   PO218254   5.630  18.080  14.220
  761BOLB   GL318255   6.070  18.320  14.090
  761BOLB   GL418256   6.180  18.700  14.040
  761BOLB   C1C18257   6.530  18.260  14.230
  761BOLB   C2C18258   6.950  18.380  14.520
  761BOLB   C3C18259   7.190  18.750  14.830
  761BOLB   C4C18260   7.580  19.070  14.660
  761BOLB   C1D18261   6.530  18.750  14.180
  761BOLB   C2D18262   6.880  18.860  14.410
  761BOLB   C3D18263   7.180  19.190  14.470
  761BOLB   C4D18264   7.190  19.610  14.390
  762BOLB   NC118265  27.360  30.060  18.620
  762BOLB   PO118266  27.220  29.770  18.870
  762BOLB   GL118267  26.980  29.550  18.610
  762BOLB   GL218268  26.760  29.740  18.570
  762BOLB   C1A18269  26.810  29.450  18.180
  762BOLB   C2A18270  26.450  29.350  18.050
  762BOLB   C3A18271  26.160  29.190  17.650
  762BOLB   C4A18272  25.670  29.150  17.660
  762BOLB   C1B18273  26.440  29.400  18.610
  762BOLB   C2B18274  26.380  28.980  18.850
  762BOLB   C3B18275  26.020  28.640  19.020
  762BOLB   C4B18276  25.680  28.540  18.870
  762BOLB   NC218277  25.840  30.510  18.990
  762BOLB   PO218278  25.500  30.330  19.250
  762BOLB   GL318279  25.180  30.120  19.010
  762BOLB   GL418280  25.330  30.090  18.720
  762BOLB   C1C18281  24.890  29.880  18.700
  762BOLB   C2C18282  25.060  29.610  18.310
  762BOLB   C3C18283  25.070  29.400  17.920
  762BOLB   C4C18284  25.240  29.240  17.600
  762BOLB   C1D18285  25.490  29.800  18.420
  762BOLB   C2D18286  25.570  29.320  18.210
  762BOLB   C3D18287  25.410  28.960  18.060
  762BOLB   C4D18288  25.240  28.530  18.190
  763BOLB   NC118289  17.350  29.650  13.350
  763BOLB   PO118290  16.950  29.670  13.170
  763BOLB   GL118291  17.060  30.160  13.170
  763BOLB   GL218292  17.310  30.300  13.300
  763BOLB   C1A18293  16.900  30.480  12.900
  763BOLB   C2A18294  16.730  30.860  12.870
  763BOLB   C3A18295  16.380  31.040  12.550
  763BOLB   C4A18296  16.000  31.140  12.590
  763BOLB   C1B18297  16.980  30.650  13.430
  763BOLB   C2B18298  16.550  30.870  13.360
  763BOLB   C3B18299  16.370  31.310  13.530
  763BOLB   C4B18300  16.170  31.650  13.770
  763BOLB   NC218301  13.960  32.800  12.490
  763BOLB   PO218302  14.350  32.990  12.500
  763BOLB   GL318303  14.530  32.580  12.610
  763BOLB   GL418304  14.280  32.460  12.360
  763BOLB   C1C18305  14.880  32.280  12.620
  763BOLB   C2C18306  15.050  31.940  12.460
  763BOLB   C3C18307  15.260  31.610  12.430
  763BOLB   C4C18308  15.560  31.400  12.650
  763BOLB   C1D18309  14.510  32.020  12.360
  763BOLB   C2D18310  14.560  31.610  12.320
  763BOLB   C3D18311  14.870  31.320  12.350
  763BOLB   C4D18312  15.200  30.970  12.450
  764BOLB   NC118313  14.130  13.390  10.960
  764BOLB   PO118314  13.700  13.390  11.030
  764BOLB   GL118315  13.450  13.160  10.860
  764BOLB   GL218316  13.500  12.720  10.830
  764BOLB   C1A18317  13.030  13.070  10.830
  764BOLB   C2A18318  12.610  13.130  10.990
  764BOLB   C3A18319  12.230  13.160  10.930
  764BOLB   C4A18320  11.840  13.120  10.940
  764BOLB   C1B18321  13.160  12.630  10.580
  764BOLB   C2B18322  12.680  12.420  10.340
  764BOLB   C3B18323  12.510  12.180   9.960
  764BOLB   C4B18324  12.180  12.000   9.780
  764BOLB   NC218325   9.810  14.180  10.970
  764BOLB   PO218326   9.910  13.860  10.660
  764BOLB   GL318327  10.280  14.040  10.510
  764BOLB   GL418328  10.290  14.200  10.190
  764BOLB   C1C18329  10.740  13.950  10.380
  764BOLB   C2C18330  11.100  13.660  10.330
  764BOLB   C3C18331  11.370  13.250  10.230
  764BOLB   C4C18332  11.490  13.030  10.650
  764BOLB   C1D18333  10.640  14.300  10.070
  764BOLB   C2D18334  10.940  14.370  10.200
  764BOLB   C3D18335  11.300  14.520  10.380
  764BOLB   C4D18336  11.670  14.510  10.570
  765BOLB   NC118337  15.160  26.340  17.940
  765BOLB   PO118338  14.890  26.560  17.710
  765BOLB   GL118339  14.660  26.800  18.000
  765BOLB   GL218340  14.600  27.030  17.810
  765BOLB   C1A18341  14.470  26.950  18.300
  765BOLB   C2A18342  14.110  27.100  18.430
  765BOLB   C3A18343  13.890  27.370  18.750
  765BOLB   C4A18344  13.530  27.570  18.950
  765BOLB   C1B18345  14.380  27.370  18.000
  765BOLB   C2B18346  14.470  27.510  18.420
  765BOLB   C3B18347  14.150  27.790  18.640
  765BOLB   C4B18348  13.770  28.050  18.730
  765BOLB   NC218349  11.880  28.120  20.350
  765BOLB   PO218350  12.170  27.860  20.720
  765BOLB   GL318351  12.530  27.620  20.490
  765BOLB   GL418352  12.810  27.600  20.700
  765BOLB   C1C18353  12.740  27.580  20.120
  765BOLB   C2C18354  12.760  27.680  19.650
  765BOLB   C3C18355  12.910  27.760  19.340
  765BOLB   C4C18356  13.270  27.810  19.200
  765BOLB   C1D18357  13.090  27.400  20.380
  765BOLB   C2D18358  13.150  27.340  20.080
  765BOLB   C3D18359  13.470  27.170  19.750
  765BOLB   C4D18360  13.310  26.820  19.500
  766BOLB   NC118361  18.680  23.830  20.210
  766BOLB   PO118362  19.100  23.800  20.540
  766BOLB   GL118363  19.080  23.850  21.000
  766BOLB   GL218364  18.970  23.630  21.310
  766BOLB   C1A18365  19.160  24.140  21.290
  766BOLB   C2A18366  19.110  24.370  21.610
  766BOLB   C3A18367  19.100  24.860  21.670
  766BOLB   C4A18368  19.470  25.100  21.860
  766BOLB   C1B18369  19.140  23.820  21.670
  766BOLB   C2B18370  19.130  23.740  22.110
  766BOLB   C3B18371  19.150  23.990  22.440
  766BOLB   C4B18372  19.150  23.840  22.820
  766BOLB   NC218373  19.510  25.360  24.580
  766BOLB   PO218374  19.750  25.140  24.240
  766BOLB   GL318375  19.850  25.240  23.930
  766BOLB   GL418376  19.870  25.540  23.780
  766BOLB   C1C18377  19.790  25.210  23.460
  766BOLB   C2C18378  19.810  25.070  23.060
  766BOLB   C3C18379  19.730  25.130  22.690
  766BOLB   C4C18380  19.540  25.300  22.200
  766BOLB   C1D18381  20.270  25.280  23.660
  766BOLB   C2D18382  20.180  24.920  23.640
  766BOLB   C3D18383  20.080  24.710  23.220
  766BOLB   C4D18384  19.920  24.510  22.930
  767BOLB   NC118385  19.140  30.120  12.440
  767BOLB   PO118386  19.620  30.150  12.280
  767BOLB   GL118387  19.710  30.540  12.410
  767BOLB   GL218388  19.740  30.650  12.730
  767BOLB   C1A18389  19.780  30.910  12.270
  767BOLB   C2A18390  19.730  31.320  12.360
  767BOLB   C3A18391  19.720  31.800  12.420
  767BOLB   C4A18392  19.390  32.030  12.400
  767BOLB   C1B18393  19.980  31.110  12.690
  767BOLB   C2B18394  20.190  31.560  12.630
  767BOLB   C3B18395  20.180  31.920  12.490
  767BOLB   C4B18396  20.150  32.380  12.680
  767BOLB   NC218397  18.930  34.190  11.500
  767BOLB   PO218398  19.110  34.390  11.840
  767BOLB   GL318399  19.290  33.970  11.860
  767BOLB   GL418400  19.020  33.940  12.100
  767BOLB   C1C18401  19.190  33.570  11.790
  767BOLB   C2C18402  19.060  33.150  11.850
  767BOLB   C3C18403  19.160  32.790  12.010
  767BOLB   C4C18404  19.370  32.420  12.250
  767BOLB   C1D18405  19.330  33.810  12.410
  767BOLB   C2D18406  19.680  33.540  12.550
  767BOLB   C3D18407  19.990  33.230  12.640
  767BOLB   C4D18408  20.260  32.890  12.530
  768BOLB   NC118409  13.220  27.170  15.630
  768BOLB   PO118410  13.460  27.410  16.050
  768BOLB   GL118411  13.300  27.410  16.440
  768BOLB   GL218412  13.260  27.150  16.670
  768BOLB   C1A18413  13.150  27.660  16.770
  768BOLB   C2A18414  12.800  27.730  16.940
  768BOLB   C3A18415  12.460  27.910  17.130
  768BOLB   C4A18416  12.390  28.240  17.490
  768BOLB   C1B18417  12.850  27.260  16.860
  768BOLB   C2B18418  12.740  27.300  17.290
  768BOLB   C3B18419  12.380  27.530  17.560
  768BOLB   C4B18420  12.090  27.750  17.770
  768BOLB   NC218421  11.210  29.090  19.660
  768BOLB   PO218422  11.160  28.920  19.210
  768BOLB   GL318423  11.390  28.630  19.040
  768BOLB   GL418424  11.260  28.220  18.960
  768BOLB   C1C18425  11.570  28.640  18.580
  768BOLB   C2C18426  11.620  28.720  18.170
  768BOLB   C3C18427  11.730  28.650  17.800
  768BOLB   C4C18428  12.100  28.520  17.550
  768BOLB   C1D18429  11.380  27.840  18.980
  768BOLB   C2D18430  11.520  27.330  18.920
  768BOLB   C3D18431  11.830  27.200  18.550
  768BOLB   C4D18432  12.070  27.430  18.230
  769BOLB   NC118433  21.340  29.790  13.260
  769BOLB   PO118434  21.510  30.160  13.460
  769BOLB   GL118435  21.640  30.470  13.530
  769BOLB   GL218436  21.460  30.670  13.720
  769BOLB   C1A18437  21.770  30.980  13.550
  769BOLB   C2A18438  21.870  31.360  13.720
  769BOLB   C3A18439  22.160  31.360  13.950
  769BOLB   C4A18440  22.590  31.430  14.010
  769BOLB   C1B18441  21.650  31.000  14.080
  769BOLB   C2B18442  21.400  31.400  14.240
  769BOLB   C3B18443  21.040  31.680  14.360
  769BOLB   C4B18444  20.710  31.610  14.700
  769BOLB   NC218445  23.370  32.780  15.910
  769BOLB   PO218446  23.610  33.000  15.490
  769BOLB   GL318447  23.240  32.700  15.390
  769BOLB   GL418448  22.930  32.840  15.450
  769BOLB   C1C18449  23.040  32.550  15.060
  769BOLB   C2C18450  22.960  32.570  14.580
  769BOLB   C3C18451  22.860  32.250  14.250
  769BOLB   C4C18452  22.770  31.810  14.040
  769BOLB   C1D18453  22.620  32.390  15.370
  769BOLB   C2D18454  22.760  32.030  15.230
  769BOLB   C3D18455  22.990  31.750  14.950
  769BOLB   C4D18456  23.020  31.370  14.850
  770BOLB   NC118457  24.310  28.170  14.780
  770BOLB   PO118458  24.220  28.170  14.230
  770BOLB   GL118459  24.460  28.450  14.150
  770BOLB   GL218460  24.420  28.740  14.020
  770BOLB   C1A18461  24.930  28.610  14.190
  770BOLB   C2A18462  25.420  28.720  14.160
  770BOLB   C3A18463  25.840  28.950  14.230
  770BOLB   C4A18464  25.980  29.290  14.000
  770BOLB   C1B18465  24.660  29.040  14.160
  770BOLB   C2B18466  25.080  29.100  14.280
  770BOLB   C3B18467  25.450  29.360  14.140
  770BOLB   C4B18468  25.700  29.760  14.120
  770BOLB   NC218469  27.970  30.660  14.140
  770BOLB   PO218470  28.010  30.640  14.530
  770BOLB   GL318471  27.770  30.300  14.410
  770BOLB   GL418472  27.640  30.130  14.690
  770BOLB   C1C18473  27.430  30.140  14.160
  770BOLB   C2C18474  26.980  29.940  14.160
  770BOLB   C3C18475  26.630  29.810  14.040
  770BOLB   C4C18476  26.220  29.710  14.030
  770BOLB   C1D18477  27.270  30.050  14.670
  770BOLB   C2D18478  26.830  29.860  14.660
  770BOLB   C3D18479  26.480  29.610  14.500
  770BOLB   C4D18480  26.380  29.140  14.290
  771BOLB   NC118481  20.020  29.540  16.370
  771BOLB   PO118482  20.060  29.240  16.670
  771BOLB   GL118483  20.190  29.610  16.840
  771BOLB   GL218484  20.260  29.930  16.620
  771BOLB   C1A18485  20.540  29.790  17.130
  771BOLB   C2A18486  20.640  30.190  17.310
  771BOLB   C3A18487  20.700  30.660  17.400
  771BOLB   C4A18488  20.950  30.900  17.650
  771BOLB   C1B18489  20.490  30.250  16.810
  771BOLB   C2B18490  20.280  30.480  17.110
  771BOLB   C3B18491  19.780  30.560  17.310
  771BOLB   C4B18492  19.680  30.690  17.730
  771BOLB   NC218493  20.880  32.500  19.830
  771BOLB   PO218494  21.130  32.140  19.650
  771BOLB   GL318495  21.150  31.740  19.420
  771BOLB   GL418496  21.530  31.810  19.340
  771BOLB   C1C18497  21.070  31.630  18.990
  771BOLB   C2C18498  21.130  31.730  18.550
  771BOLB   C3C18499  20.910  31.500  18.290
  771BOLB   C4C18500  20.990  31.110  18.020
  771BOLB   C1D18501  21.490  31.360  19.410
  771BOLB   C2D18502  21.150  31.250  19.250
  771BOLB   C3D18503  20.740  31.030  19.340
  771BOLB   C4D18504  20.550  30.850  19.020
  772BOLB   NC118505  10.280  21.990   8.910
  772BOLB   PO118506  10.000  21.890   8.770
  772BOLB   GL118507   9.570  21.990   8.720
  772BOLB   GL218508   9.560  22.390   8.670
  772BOLB   C1A18509   9.110  21.910   8.710
  772BOLB   C2A18510   8.860  21.940   8.420
  772BOLB   C3A18511   8.590  22.240   8.190
  772BOLB   C4A18512   8.320  22.530   8.290
  772BOLB   C1B18513   9.190  22.740   8.550
  772BOLB   C2B18514   8.700  22.830   8.480
  772BOLB   C3B18515   8.530  22.970   8.080
  772BOLB   C4B18516   8.300  23.240   7.800
  772BOLB   NC218517   6.800  23.390   7.260
  772BOLB   PO218518   6.450  23.670   7.380
  772BOLB   GL318519   6.700  23.440   7.780
  772BOLB   GL418520   7.010  23.280   7.730
  772BOLB   C1C18521   6.890  23.570   8.180
  772BOLB   C2C18522   7.340  23.370   8.250
  772BOLB   C3C18523   7.770  23.200   8.130
  772BOLB   C4C18524   8.010  22.760   8.180
  772BOLB   C1D18525   7.440  23.370   7.700
  772BOLB   C2D18526   7.830  23.130   7.650
  772BOLB   C3D18527   8.150  22.760   7.680
  772BOLB   C4D18528   8.140  22.320   7.760
  773BOLB   NC118529  23.030  28.020  14.350
  773BOLB   PO118530  23.400  28.330  14.450
  773BOLB   GL118531  23.590  28.730  14.410
  773BOLB   GL218532  23.720  28.750  14.650
  773BOLB   C1A18533  23.790  29.160  14.290
  773BOLB   C2A18534  24.210  29.090  14.310
  773BOLB   C3A18535  24.440  29.440  14.330
  773BOLB   C4A18536  24.650  29.870  14.130
  773BOLB   C1B18537  23.930  29.140  14.730
  773BOLB   C2B18538  24.040  29.570  14.880
  773BOLB   C3B18539  24.270  29.600  15.240
  773BOLB   C4B18540  24.720  29.260  15.200
  773BOLB   NC218541  26.000  31.890  13.730
  773BOLB   PO218542  25.980  31.720  14.140
  773BOLB   GL318543  25.790  31.350  14.090
  773BOLB   GL418544  25.640  31.530  13.800
  773BOLB   C1C18545  25.390  31.260  14.170
  773BOLB   C2C18546  25.260  30.790  14.060
  773BOLB   C3C18547  25.050  30.460  13.890
  773BOLB   C4C18548  24.770  30.230  13.930
  773BOLB   C1D18549  25.690  31.460  13.410
  773BOLB   C2D18550  25.580  31.340  12.960
  773BOLB   C3D18551  25.830  31.080  12.740
  773BOLB   C4D18552  26.110  31.240  12.400
  774BOLB   NC118553  25.470  27.100  11.910
  774BOLB   PO118554  25.330  26.820  11.600
  774BOLB   GL118555  25.770  26.880  11.540
  774BOLB   GL218556  25.630  27.140  11.350
  774BOLB   C1A18557  26.090  26.850  11.530
  774BOLB   C2A18558  26.490  27.000  11.760
  774BOLB   C3A18559  26.940  27.190  11.720
  774BOLB   C4A18560  27.350  27.340  11.500
  774BOLB   C1B18561  25.990  27.420  11.300
  774BOLB   C2B18562  26.190  27.730  11.180
  774BOLB   C3B18563  26.390  28.040  10.890
  774BOLB   C4B18564  26.450  28.510  10.820
  774BOLB   NC218565  28.940  27.930   9.420
  774BOLB   PO218566  29.020  27.850   9.820
  774BOLB   GL318567  28.850  27.840  10.250
  774BOLB   GL418568  28.550  27.630  10.170
  774BOLB   C1C18569  28.470  27.990  10.560
  774BOLB   C2C18570  28.100  27.940  10.870
  774BOLB   C3C18571  27.860  27.610  10.960
  774BOLB   C4C18572  27.450  27.490  10.990
  774BOLB   C1D18573  28.070  27.770  10.400
  774BOLB   C2D18574  27.730  27.480  10.530
  774BOLB   C3D18575  27.560  27.130  10.220
  774BOLB   C4D18576  27.100  27.090  10.070
  775BOLB   NC118577   7.110  25.590   8.160
  775BOLB   PO118578   7.260  25.970   8.400
  775BOLB   GL118579   7.630  25.700   8.490
  775BOLB   GL218580   7.570  25.340   8.430
  775BOLB   C1A18581   8.050  25.710   8.710
  775BOLB   C2A18582   8.200  25.750   9.060
  775BOLB   C3A18583   7.890  25.720   9.410
  775BOLB   C4A18584   7.690  25.460   9.810
  775BOLB   C1B18585   7.940  25.090   8.570
  775BOLB   C2B18586   8.130  24.860   8.840
  775BOLB   C3B18587   8.080  24.840   9.330
  775BOLB   C4B18588   8.060  24.610   9.750
  775BOLB   NC218589   9.490  24.690  11.730
  775BOLB   PO218590   9.170  24.470  11.470
  775BOLB   GL318591   8.900  24.590  11.230
  775BOLB   GL418592   9.040  24.410  10.960
  775BOLB   C1C18593   8.450  24.820  11.130
  775BOLB   C2C18594   8.100  24.790  10.860
  775BOLB   C3C18595   7.930  24.830  10.380
  775BOLB   C4C18596   7.690  25.130  10.150
  775BOLB   C1D18597   8.990  24.800  10.740
  775BOLB   C2D18598   8.770  25.100  10.930
  775BOLB   C3D18599   8.390  25.310  11.090
  775BOLB   C4D18600   8.100  25.650  10.960
  776BOLB   NC118601  22.400  28.960  15.530
  776BOLB   PO118602  22.330  28.960  15.010
  776BOLB   GL118603  22.390  29.400  15.320
  776BOLB   GL218604  22.670  29.510  15.120
  776BOLB   C1A18605  22.460  29.670  15.580
  776BOLB   C2A18606  22.640  30.010  15.860
  776BOLB   C3A18607  22.900  30.380  16.040
  776BOLB   C4A18608  22.980  30.770  16.280
  776BOLB   C1B18609  22.820  29.880  15.280
  776BOLB   C2B18610  23.090  30.260  15.220
  776BOLB   C3B18611  23.230  30.620  15.190
  776BOLB   C4B18612  23.090  31.080  15.340
  776BOLB   NC218613  23.950  32.510  16.410
  776BOLB   PO218614  24.270  32.490  16.720
  776BOLB   GL318615  24.360  31.980  16.750
  776BOLB   GL418616  24.650  31.800  16.820
  776BOLB   C1C18617  24.070  31.640  16.490
  776BOLB   C2C18618  23.820  31.290  16.470
  776BOLB   C3C18619  23.620  31.070  16.150
  776BOLB   C4C18620  23.210  31.120  16.070
  776BOLB   C1D18621  24.480  31.400  16.530
  776BOLB   C2D18622  24.250  31.090  16.270
  776BOLB   C3D18623  24.080  30.820  16.080
  776BOLB   C4D18624  23.800  30.610  15.830
  777BOLB   NC118625  26.210  25.240  13.750
  777BOLB   PO118626  26.370  24.920  13.990
  777BOLB   GL118627  26.800  24.970  13.850
  777BOLB   GL218628  26.840  24.700  13.940
  777BOLB   C1A18629  27.050  25.310  14.040
  777BOLB   C2A18630  27.370  25.580  14.200
  777BOLB   C3A18631  27.700  25.540  14.490
  777BOLB   C4A18632  28.050  25.610  14.410
  777BOLB   C1B18633  27.340  24.660  14.010
  777BOLB   C2B18634  27.630  24.350  14.120
  777BOLB   C3B18635  27.870  24.130  14.400
  777BOLB   C4B18636  28.100  24.290  14.750
  777BOLB   NC218637  30.270  25.060  14.100
  777BOLB   PO218638  30.500  24.700  14.330
  777BOLB   GL318639  30.090  24.740  14.510
  777BOLB   GL418640  29.890  24.780  14.190
  777BOLB   C1C18641  29.610  25.100  14.520
  777BOLB   C2C18642  29.250  25.310  14.330
  777BOLB   C3C18643  28.800  25.270  14.380
  777BOLB   C4C18644  28.520  25.580  14.470
  777BOLB   C1D18645  29.640  24.500  14.010
  777BOLB   C2D18646  29.350  24.270  14.090
  777BOLB   C3D18647  29.050  24.250  14.270
  777BOLB   C4D18648  28.560  24.280  14.230
  778BOLB   NC118649  11.580  22.540   7.580
  778BOLB   PO118650  11.310  22.940   7.530
  778BOLB   GL118651  11.040  22.810   7.190
  778BOLB   GL218652  11.120  22.530   7.160
  778BOLB   C1A18653  10.930  23.050   6.870
  778BOLB   C2A18654  10.670  22.650   6.720
  778BOLB   C3A18655  10.340  22.540   6.570
  778BOLB   C4A18656  10.040  22.660   6.080
  778BOLB   C1B18657  10.760  22.280   7.060
  778BOLB   C2B18658  10.400  22.030   6.850
  778BOLB   C3B18659  10.100  21.790   6.570
  778BOLB   C4B18660  10.000  21.680   6.130
  778BOLB   NC218661   8.410  22.930   4.540
  778BOLB   PO218662   8.830  23.140   4.510
  778BOLB   GL318663   9.280  22.970   4.500
  778BOLB   GL418664   9.450  23.080   4.290
  778BOLB   C1C18665   9.750  22.750   4.580
  778BOLB   C2C18666  10.060  22.890   5.000
  778BOLB   C3C18667  10.020  23.000   5.490
  778BOLB   C4C18668   9.910  22.670   5.800
  778BOLB   C1D18669   9.940  23.060   4.260
  778BOLB   C2D18670  10.280  23.210   4.420
  778BOLB   C3D18671  10.360  23.220   4.810
  778BOLB   C4D18672  10.230  23.390   5.220
  779BOLB   NC118673  23.990  28.030  15.670
  779BOLB   PO118674  24.210  27.710  15.680
  779BOLB   GL118675  24.530  28.000  15.730
  779BOLB   GL218676  24.420  28.300  15.900
  779BOLB   C1A18677  24.940  28.150  15.840
  779BOLB   C2A18678  25.240  28.150  16.250
  779BOLB   C3A18679  25.550  28.420  16.350
  779BOLB   C4A18680  25.670  28.840  16.330
  779BOLB   C1B18681  24.670  28.640  15.880
  779BOLB   C2B18682  24.840  29.100  16.100
  779BOLB   C3B18683  25.260  29.370  15.940
  779BOLB   C4B18684  25.410  29.770  15.970
  779BOLB   NC218685  26.300  30.970  17.810
  779BOLB   PO218686  26.470  30.520  17.590
  779BOLB   GL318687  26.150  30.370  17.120
  779BOLB   GL418688  26.400  30.480  16.950
  779BOLB   C1C18689  25.810  30.190  16.830
  779BOLB   C2C18690  25.840  29.940  16.490
  779BOLB   C3C18691  25.560  29.630  16.380
  779BOLB   C4C18692  25.590  29.180  16.430
  779BOLB   C1D18693  26.080  30.820  16.900
  779BOLB   C2D18694  25.660  30.640  16.990
  779BOLB   C3D18695  25.280  30.340  16.880
  779BOLB   C4D18696  24.850  30.060  17.130
  780BOLB   NC118697  24.680  28.010  14.000
  780BOLB   PO118698  24.700  28.110  14.500
  780BOLB   GL118699  24.840  28.400  14.710
  780BOLB   GL218700  24.690  28.480  14.970
  780BOLB   C1A18701  25.110  28.670  14.710
  780BOLB   C2A18702  25.520  28.840  14.660
  780BOLB   C3A18703  25.930  28.910  14.690
  780BOLB   C4A18704  26.300  28.650  14.880
  780BOLB   C1B18705  25.000  28.750  15.200
  780BOLB   C2B18706  25.250  29.160  15.030
  780BOLB   C3B18707  25.700  29.360  14.950
  780BOLB   C4B18708  25.910  29.430  14.490
  780BOLB   NC218709  28.140  30.010  15.640
  780BOLB   PO218710  27.780  30.280  15.820
  780BOLB   GL318711  27.610  29.860  15.780
  780BOLB   GL418712  27.330  30.010  15.960
  780BOLB   C1C18713  27.460  29.480  15.770
  780BOLB   C2C18714  27.150  29.130  15.640
  780BOLB   C3C18715  26.970  28.760  15.420
  780BOLB   C4C18716  26.700  28.750  15.050
  780BOLB   C1D18717  27.030  29.660  15.820
  780BOLB   C2D18718  26.980  29.420  15.370
  780BOLB   C3D18719  27.080  29.430  14.970
  780BOLB   C4D18720  27.440  29.180  14.680
  781BOLB   NC118721  18.430  29.390  12.350
  781BOLB   PO118722  18.230  29.840  12.420
  781BOLB   GL118723  18.070  30.200  12.360
  781BOLB   GL218724  17.920  30.220  12.550
  781BOLB   C1A18725  18.110  30.680  12.410
  781BOLB   C2A18726  18.290  30.980  12.620
  781BOLB   C3A18727  18.350  31.270  12.830
  781BOLB   C4A18728  18.370  31.710  13.000
  781BOLB   C1B18729  17.640  30.620  12.310
  781BOLB   C2B18730  17.670  31.000  12.210
  781BOLB   C3B18731  17.550  31.350  12.020
  781BOLB   C4B18732  17.210  31.650  12.100
  781BOLB   NC218733  16.870  34.020  14.060
  781BOLB   PO218734  17.270  33.970  13.810
  781BOLB   GL318735  17.480  33.600  13.660
  781BOLB   GL418736  17.380  33.420  13.370
  781BOLB   C1C18737  17.690  33.190  13.670
  781BOLB   C2C18738  17.680  32.740  13.630
  781BOLB   C3C18739  17.830  32.380  13.360
  781BOLB   C4C18740  17.990  31.970  13.190
  781BOLB   C1D18741  17.290  32.970  13.400
  781BOLB   C2D18742  17.250  32.490  13.570
  781BOLB   C3D18743  16.990  32.110  13.500
  781BOLB   C4D18744  16.680  31.750  13.660
  782BOLB   NC118745  20.530  29.030  16.720
  782BOLB   PO118746  20.830  29.100  16.500
  782BOLB   GL118747  20.910  29.320  16.850
  782BOLB   GL218748  20.690  29.330  17.140
  782BOLB   C1A18749  21.090  29.650  17.120
  782BOLB   C2A18750  21.360  29.990  17.290
  782BOLB   C3A18751  21.550  30.390  17.310
  782BOLB   C4A18752  21.550  30.820  17.290
  782BOLB   C1B18753  20.430  29.500  17.540
  782BOLB   C2B18754  20.520  29.950  17.700
  782BOLB   C3B18755  20.540  30.330  17.780
  782BOLB   C4B18756  20.180  30.630  17.550
  782BOLB   NC218757  22.740  32.830  16.980
  782BOLB   PO218758  22.650  32.690  16.500
  782BOLB   GL318759  22.360  32.520  16.480
  782BOLB   GL418760  22.080  32.710  16.450
  782BOLB   C1C18761  22.010  32.240  16.580
  782BOLB   C2C18762  21.850  31.840  16.370
  782BOLB   C3C18763  21.710  31.460  16.700
  782BOLB   C4C18764  21.420  31.130  16.940
  782BOLB   C1D18765  22.000  32.460  16.100
  782BOLB   C2D18766  21.840  32.130  15.860
  782BOLB   C3D18767  21.840  31.770  15.770
  782BOLB   C4D18768  21.470  31.430  15.640
  783BOLB   NC118769  10.010  17.480  18.020
  783BOLB   PO118770   9.780  17.820  17.860
  783BOLB   GL118771   9.520  17.390  17.970
  783BOLB   GL218772   9.680  17.110  18.010
  783BOLB   C1A18773   9.210  17.180  17.750
  783BOLB   C2A18774   8.910  16.950  17.450
  783BOLB   C3A18775   8.980  16.650  17.190
  783BOLB   C4A18776   8.800  16.180  17.050
  783BOLB   C1B18777   9.320  16.890  18.260
  783BOLB   C2B18778   8.970  16.830  18.500
  783BOLB   C3B18779   9.020  16.610  18.930
  783BOLB   C4B18780   9.060  16.630  19.350
  783BOLB   NC218781   7.160  14.580  17.240
  783BOLB   PO218782   7.400  14.200  17.040
  783BOLB   GL318783   7.810  14.240  17.050
  783BOLB   GL418784   8.080  14.190  16.740
  783BOLB   C1C18785   8.160  14.610  17.040
  783BOLB   C2C18786   8.440  15.010  17.210
  783BOLB   C3C18787   8.410  15.410  17.450
  783BOLB   C4C18788   8.620  15.830  17.280
  783BOLB   C1D18789   8.550  14.350  16.830
  783BOLB   C2D18790   8.770  14.670  17.000
  783BOLB   C3D18791   8.910  15.090  17.030
  783BOLB   C4D18792   8.950  15.460  16.770
  784BOLB   NC118793  22.260  26.060  18.650
  784BOLB   PO118794  22.350  26.130  19.110
  784BOLB   GL118795  22.630  26.090  19.310
  784BOLB   GL218796  22.600  26.500  19.490
  784BOLB   C1A18797  22.760  26.090  19.790
  784BOLB   C2A18798  22.820  25.980  20.190
  784BOLB   C3A18799  23.030  25.920  20.650
  784BOLB   C4A18800  23.200  26.300  20.910
  784BOLB   C1B18801  22.730  26.650  19.870
  784BOLB   C2B18802  22.540  26.580  20.240
  784BOLB   C3B18803  22.600  26.380  20.690
  784BOLB   C4B18804  22.730  26.220  20.980
  784BOLB   NC218805  23.460  26.990  23.040
  784BOLB   PO218806  23.880  26.990  22.910
  784BOLB   GL318807  23.680  27.030  22.570
  784BOLB   GL418808  23.600  27.300  22.410
  784BOLB   C1C18809  23.480  26.810  22.350
  784BOLB   C2C18810  23.340  26.690  22.050
  784BOLB   C3C18811  23.420  26.420  21.740
  784BOLB   C4C18812  23.270  26.330  21.380
  784BOLB   C1D18813  23.600  27.350  21.980
  784BOLB   C2D18814  23.340  27.260  21.650
  784BOLB   C3D18815  23.190  27.190  21.250
  784BOLB   C4D18816  22.870  27.340  20.970
  785BOLB   NC118817  22.770  29.150  14.810
  785BOLB   PO118818  22.720  29.180  14.390
  785BOLB   GL118819  22.780  29.620  14.590
  785BOLB   GL218820  23.040  29.630  14.370
  785BOLB   C1A18821  23.060  29.900  14.830
  785BOLB   C2A18822  23.410  30.170  14.820
  785BOLB   C3A18823  23.750  30.530  14.790
  785BOLB   C4A18824  24.070  30.560  14.560
  785BOLB   C1B18825  23.450  29.600  14.290
  785BOLB   C2B18826  23.930  29.570  14.320
  785BOLB   C3B18827  24.090  29.310  13.930
  785BOLB   C4B18828  24.440  29.390  13.730
  785BOLB   NC218829  25.860  32.810  14.930
  785BOLB   PO218830  25.860  32.410  14.550
  785BOLB   GL318831  25.480  32.180  14.820
  785BOLB   GL418832  25.490  31.860  14.970
  785BOLB   C1C18833  25.100  31.790  14.690
  785BOLB   C2C18834  24.670  31.830  14.610
  785BOLB   C3C18835  24.350  31.490  14.630
  785BOLB   C4C18836  24.120  31.080  14.530
  785BOLB   C1D18837  25.490  31.520  14.600
  785BOLB   C2D18838  25.320  31.090  14.720
  785BOLB   C3D18839  25.000  30.730  14.670
  785BOLB   C4D18840  25.030  30.410  14.380
  786BOLB   NC118841  23.090  24.820  18.910
  786BOLB   PO118842  23.390  24.500  19.000
  786BOLB   GL118843  23.600  24.400  19.250
  786BOLB   GL218844  23.860  24.600  19.190
  786BOLB   C1A18845  23.600  24.640  19.590
  786BOLB   C2A18846  23.870  24.790  19.990
  786BOLB   C3A18847  24.160  25.110  20.210
  786BOLB   C4A18848  24.200  25.020  20.570
  786BOLB   C1B18849  24.120  24.610  19.530
  786BOLB   C2B18850  24.390  24.650  19.930
  786BOLB   C3B18851  24.440  24.510  20.380
  786BOLB   C4B18852  24.580  24.710  20.740
  786BOLB   NC218853  25.910  26.580  22.070
  786BOLB   PO218854  25.420  26.640  22.100
  786BOLB   GL318855  25.290  26.280  21.930
  786BOLB   GL418856  25.490  26.300  21.770
  786BOLB   C1C18857  24.950  26.120  21.540
  786BOLB   C2C18858  24.730  25.820  21.350
  786BOLB   C3C18859  24.490  25.530  21.170
  786BOLB   C4C18860  24.500  25.200  20.900
  786BOLB   C1D18861  25.380  25.960  21.550
  786BOLB   C2D18862  25.240  25.870  21.160
  786BOLB   C3D18863  25.130  26.000  20.760
  786BOLB   C4D18864  25.260  26.390  20.660
  787BOLB   NC118865  25.830  24.940  14.110
  787BOLB   PO118866  25.940  25.260  14.240
  787BOLB   GL118867  26.320  25.540  14.200
  787BOLB   GL218868  26.580  25.350  14.090
  787BOLB   C1A18869  26.470  25.850  14.590
  787BOLB   C2A18870  26.720  25.840  14.840
  787BOLB   C3A18871  26.960  26.080  15.270
  787BOLB   C4A18872  27.250  26.270  15.560
  787BOLB   C1B18873  26.830  25.670  14.310
  787BOLB   C2B18874  27.180  25.870  14.590
  787BOLB   C3B18875  27.660  26.040  14.540
  787BOLB   C4B18876  28.110  26.110  14.540
  787BOLB   NC218877  29.690  27.330  16.580
  787BOLB   PO218878  29.600  27.030  16.300
  787BOLB   GL318879  29.290  26.700  16.300
  787BOLB   GL418880  29.230  26.600  16.590
  787BOLB   C1C18881  28.900  26.500  16.170
  787BOLB   C2C18882  28.540  26.400  15.990
  787BOLB   C3C18883  28.180  26.360  15.560
  787BOLB   C4C18884  27.730  26.360  15.610
  787BOLB   C1D18885  28.820  26.480  16.670
  787BOLB   C2D18886  28.420  26.410  16.540
  787BOLB   C3D18887  28.160  26.190  16.330
  787BOLB   C4D18888  27.960  25.830  16.220
  788BOLB   NC118889  22.950  16.400  15.320
  788BOLB   PO118890  23.260  16.370  14.980
  788BOLB   GL118891  23.520  16.090  15.120
  788BOLB   GL218892  23.570  16.080  15.420
  788BOLB   C1A18893  23.730  15.770  15.110
  788BOLB   C2A18894  24.100  15.510  15.150
  788BOLB   C3A18895  24.410  15.290  15.170
  788BOLB   C4A18896  24.490  14.910  15.240
  788BOLB   C1B18897  23.880  15.840  15.570
  788BOLB   C2B18898  24.090  15.700  15.980
  788BOLB   C3B18899  24.160  15.430  16.340
  788BOLB   C4B18900  24.480  15.240  16.530
  788BOLB   NC218901  26.480  13.660  16.760
  788BOLB   PO218902  26.450  13.790  16.380
  788BOLB   GL318903  26.170  14.120  16.150
  788BOLB   GL418904  26.020  13.860  16.110
  788BOLB   C1C18905  25.800  14.290  15.860
  788BOLB   C2C18906  25.340  14.280  15.690
  788BOLB   C3C18907  24.990  14.240  15.450
  788BOLB   C4C18908  24.680  14.560  15.350
  788BOLB   C1D18909  25.590  13.940  16.500
  788BOLB   C2D18910  25.630  14.220  16.840
  788BOLB   C3D18911  25.540  14.430  17.150
  788BOLB   C4D18912  25.310  14.700  17.260
  789BOLB   NC118913  25.180  18.950  15.260
  789BOLB   PO118914  25.400  19.030  15.660
  789BOLB   GL118915  25.850  18.900  15.610
  789BOLB   GL218916  26.070  19.160  15.540
  789BOLB   C1A18917  26.240  18.830  15.960
  789BOLB   C2A18918  26.520  18.760  16.320
  789BOLB   C3A18919  26.810  18.470  16.360
  789BOLB   C4A18920  27.110  18.440  16.660
  789BOLB   C1B18921  26.340  19.030  15.240
  789BOLB   C2B18922  26.780  18.960  15.090
  789BOLB   C3B18923  27.050  18.940  14.740
  789BOLB   C4B18924  27.270  18.710  14.520
  789BOLB   NC218925  28.790  18.060  17.260
  789BOLB   PO218926  28.970  18.240  17.630
  789BOLB   GL318927  28.600  18.380  17.640
  789BOLB   GL418928  28.370  18.280  17.450
  789BOLB   C1C18929  28.400  18.790  17.550
  789BOLB   C2C18930  27.980  18.810  17.410
  789BOLB   C3C18931  27.880  18.800  16.940
  789BOLB   C4C18932  27.480  18.690  16.830
  789BOLB   C1D18933  28.030  18.400  17.190
  789BOLB   C2D18934  27.830  18.320  16.830
  789BOLB   C3D18935  27.900  18.490  16.490
  789BOLB   C4D18936  27.890  18.280  16.150
  790BOLB   NC118937  14.490  14.040  17.480
  790BOLB   PO118938  14.650  14.420  17.790
  790BOLB   GL118939  14.630  14.310  18.150
  790BOLB   GL218940  14.270  14.350  18.390
  790BOLB   C1A18941  14.900  14.220  18.610
  790BOLB   C2A18942  15.010  14.000  18.910
  790BOLB   C3A18943  15.050  13.810  19.300
  790BOLB   C4A18944  15.160  13.410  19.520
  790BOLB   C1B18945  14.470  14.060  18.770
  790BOLB   C2B18946  14.570  13.820  19.120
  790BOLB   C3B18947  14.640  13.740  19.650
  790BOLB   C4B18948  14.920  13.680  20.010
  790BOLB   NC218949  14.410  12.320  21.090
  790BOLB   PO218950  14.590  12.420  21.420
  790BOLB   GL318951  14.660  12.810  21.230
  790BOLB   GL418952  14.970  12.840  21.180
  790BOLB   C1C18953  14.780  12.980  20.760
  790BOLB   C2C18954  14.760  12.830  20.340
  790BOLB   C3C18955  14.740  13.080  20.060
  790BOLB   C4C18956  14.940  13.220  19.810
  790BOLB   C1D18957  15.300  13.140  21.050
  790BOLB   C2D18958  15.750  13.070  21.070
  790BOLB   C3D18959  16.110  13.100  20.890
  790BOLB   C4D18960  16.200  13.160  20.480
  791BOLB   NC118961  15.670   9.340  19.720
  791BOLB   PO118962  15.430   9.640  19.410
  791BOLB   GL118963  15.480   9.770  18.900
  791BOLB   GL218964  15.630   9.820  18.460
  791BOLB   C1A18965  15.110   9.880  18.570
  791BOLB   C2A18966  14.870  10.220  18.360
  791BOLB   C3A18967  14.880  10.560  18.010
  791BOLB   C4A18968  15.110  10.670  17.660
  791BOLB   C1B18969  15.480  10.200  18.340
  791BOLB   C2B18970  15.450  10.690  18.230
  791BOLB   C3B18971  15.580  11.010  17.970
  791BOLB   C4B18972  15.390  11.030  17.520
  791BOLB   NC218973  15.590   8.840  17.370
  791BOLB   PO218974  15.940   8.720  17.170
  791BOLB   GL318975  15.990   9.100  17.010
  791BOLB   GL418976  15.990   8.950  16.670
  791BOLB   C1C18977  15.720   9.330  17.030
  791BOLB   C2C18978  15.630   9.820  17.000
  791BOLB   C3C18979  15.530  10.260  17.150
  791BOLB   C4C18980  15.320  10.560  17.250
  791BOLB   C1D18981  15.710   9.280  16.560
  791BOLB   C2D18982  15.700   9.620  16.340
  791BOLB   C3D18983  15.620   9.970  16.040
  791BOLB   C4D18984  15.600  10.450  15.960
  792BOLB   NC118985  21.980   9.670  13.340
  792BOLB   PO118986  21.950   9.420  13.570
  792BOLB   GL118987  21.740   9.700  13.930
  792BOLB   GL218988  21.610   9.890  13.650
  792BOLB   C1A18989  21.620  10.090  14.080
  792BOLB   C2A18990  21.620  10.600  14.180
  792BOLB   C3A18991  21.450  10.940  14.540
  792BOLB   C4A18992  21.190  11.240  14.630
  792BOLB   C1B18993  21.490  10.320  13.620
  792BOLB   C2B18994  21.400  10.760  13.730
  792BOLB   C3B18995  21.320  11.070  14.020
  792BOLB   C4B18996  21.180  11.390  14.140
  792BOLB   NC218997  20.550  13.530  13.650
  792BOLB   PO218998  20.320  13.390  13.930
  792BOLB   GL318999  20.610  13.030  13.920
  792BOLB   GL419000  21.000  13.100  13.940
  792BOLB   C1C19001  20.550  12.630  13.910
  792BOLB   C2C19002  20.770  12.250  14.070
  792BOLB   C3C19003  20.810  12.040  14.450
  792BOLB   C4C19004  20.940  11.620  14.650
  792BOLB   C1D19005  20.940  12.770  14.190
  792BOLB   C2D19006  21.180  12.380  14.230
  792BOLB   C3D19007  21.170  11.950  14.060
  792BOLB   C4D19008  21.520  11.670  13.920
  793BOLB   NC119009  29.230  24.080   8.370
  793BOLB   PO119010  29.230  24.000   8.840
  793BOLB   GL119011  28.930  23.830   9.120
  793BOLB   GL219012  28.690  23.550   9.000
  793BOLB   C1A19013  28.510  23.680   9.440
  793BOLB   C2A19014  28.260  23.430   9.660
  793BOLB   C3A19015  27.860  23.180   9.650
  793BOLB   C4A19016  27.670  22.960   9.380
  793BOLB   C1B19017  28.370  23.350   8.980
  793BOLB   C2B19018  28.070  23.170   9.190
  793BOLB   C3B19019  28.170  22.760   9.340
  793BOLB   C4B19020  28.580  22.610   9.530
  793BOLB   NC219021  28.670  21.430   8.390
  793BOLB   PO219022  28.740  21.700   7.990
  793BOLB   GL319023  28.440  21.910   8.160
  793BOLB   GL419024  28.420  21.830   8.470
  793BOLB   C1C19025  28.050  22.200   8.220
  793BOLB   C2C19026  27.740  22.440   8.470
  793BOLB   C3C19027  27.410  22.450   8.790
  793BOLB   C4C19028  27.380  22.730   9.130
  793BOLB   C1D19029  28.280  21.760   8.860
  793BOLB   C2D19030  27.960  21.940   9.180
  793BOLB   C3D19031  27.620  22.160   9.240
  793BOLB   C4D19032  27.240  22.280   9.260
  794BOLB   NC119033  28.950  17.310  10.600
  794BOLB   PO119034  29.120  17.640  10.380
  794BOLB   GL119035  28.650  17.640  10.400
  794BOLB   GL219036  28.500  17.460  10.620
  794BOLB   C1A19037  28.420  17.990  10.550
  794BOLB   C2A19038  28.110  18.140  10.860
  794BOLB   C3A19039  28.140  18.200  11.160
  794BOLB   C4A19040  27.830  18.360  11.410
  794BOLB   C1B19041  28.100  17.610  10.500
  794BOLB   C2B19042  27.760  17.880  10.640
  794BOLB   C3B19043  27.440  18.110  10.780
  794BOLB   C4B19044  26.990  18.010  10.640
  794BOLB   NC219045  25.410  19.290  12.350
  794BOLB   PO219046  25.450  19.600  11.960
  794BOLB   GL319047  25.820  19.330  11.790
  794BOLB   GL419048  25.900  19.050  11.880
  794BOLB   C1C19049  26.330  19.400  11.980
  794BOLB   C2C19050  26.680  19.060  11.810
  794BOLB   C3C19051  27.110  18.960  11.610
  794BOLB   C4C19052  27.500  18.660  11.530
  794BOLB   C1D19053  26.210  18.920  12.010
  794BOLB   C2D19054  26.510  18.550  11.710
  794BOLB   C3D19055  26.980  18.500  11.560
  794BOLB   C4D19056  27.260  18.190  11.780
  795BOLB   NC119057  15.550  13.270   8.060
  795BOLB   PO119058  15.970  13.080   8.250
  795BOLB   GL119059  15.830  12.810   7.940
  795BOLB   GL219060  15.550  12.790   7.790
  795BOLB   C1A19061  15.720  12.320   7.970
  795BOLB   C2A19062  15.360  12.160   7.730
  795BOLB   C3A19063  15.130  11.750   7.730
  795BOLB   C4A19064  14.620  11.670   7.800
  795BOLB   C1B19065  15.630  12.480   7.500
  795BOLB   C2B19066  15.960  12.570   7.150
  795BOLB   C3B19067  16.300  12.610   6.890
  795BOLB   C4B19068  16.290  12.900   6.520
  795BOLB   NC219069  12.720  10.630   7.070
  795BOLB   PO219070  13.060  10.660   6.740
  795BOLB   GL319071  13.320  10.960   6.850
  795BOLB   GL419072  13.600  10.940   6.900
  795BOLB   C1C19073  13.480  11.410   6.790
  795BOLB   C2C19074  13.480  11.610   7.140
  795BOLB   C3C19075  13.840  11.540   7.530
  795BOLB   C4C19076  14.200  11.750   7.720
  795BOLB   C1D19077  13.610  11.160   7.330
  795BOLB   C2D19078  13.430  11.420   7.670
  795BOLB   C3D19079  13.590  11.770   7.980
  795BOLB   C4D19080  13.950  11.890   8.220
  796BOLB   NC119081  19.120  23.490   5.720
  796BOLB   PO119082  19.430  23.080   5.530
  796BOLB   GL119083  19.550  23.280   5.170
  796BOLB   GL219084  19.820  23.660   5.210
  796BOLB   C1A19085  19.790  23.340   4.780
  796BOLB   C2A19086  20.190  23.310   4.690
  796BOLB   C3A19087  20.460  23.540   4.510
  796BOLB   C4A19088  20.550  23.660   4.070
  796BOLB   C1B19089  19.620  23.870   4.890
  796BOLB   C2B19090  19.780  23.860   4.480
  796BOLB   C3B19091  19.780  24.270   4.250
  796BOLB   C4B19092  19.710  24.430   3.780
  796BOLB   NC219093  21.080  24.870   1.730
  796BOLB   PO219094  21.410  24.600   1.810
  796BOLB   GL319095  21.390  24.490   2.300
  796BOLB   GL419096  21.510  24.720   2.460
  796BOLB   C1C19097  21.360  24.260   2.630
  796BOLB   C2C19098  21.150  23.990   2.970
  796BOLB   C3C19099  20.960  23.910   3.500
  796BOLB   C4C19100  20.550  23.850   3.750
  796BOLB   C1D19101  21.120  24.710   2.690
  796BOLB   C2D19102  20.860  24.470   2.890
  796BOLB   C3D19103  20.690  24.190   3.190
  796BOLB   C4D19104  20.370  23.900   3.320
  797BOLB   NC119105  28.940  19.520   9.870
  797BOLB   PO119106  29.060  19.150  10.250
  797BOLB   GL119107  28.610  19.150  10.230
  797BOLB   GL219108  28.590  18.830  10.100
  797BOLB   C1A19109  28.220  19.410  10.310
  797BOLB   C2A19110  28.050  19.680  10.620
  797BOLB   C3A19111  28.130  19.800  11.040
  797BOLB   C4A19112  28.260  19.950  11.410
  797BOLB   C1B19113  28.150  18.940  10.090
  797BOLB   C2B19114  28.010  18.760  10.440
  797BOLB   C3B19115  27.750  18.500  10.660
  797BOLB   C4B19116  27.470  18.570  10.960
  797BOLB   NC219117  30.040  20.870  12.030
  797BOLB   PO219118  29.840  21.170  11.780
  797BOLB   GL319119  29.450  21.310  11.850
  797BOLB   GL419120  29.450  21.470  11.560
  797BOLB   C1C19121  28.970  21.250  11.940
  797BOLB   C2C19122  28.510  21.060  11.890
  797BOLB   C3C19123  28.280  20.700  11.740
  797BOLB   C4C19124  28.390  20.300  11.630
  797BOLB   C1D19125  29.070  21.520  11.410
  797BOLB   C2D19126  28.740  21.820  11.270
  797BOLB   C3D19127  28.280  21.820  11.310
  797BOLB   C4D19128  27.920  21.740  11.220
  798BOLB   NC119129  19.930  15.640  17.950
  798BOLB   PO119130  19.750  15.530  18.380
  798BOLB   GL119131  19.860  15.400  18.740
  798BOLB   GL219132  20.110  15.310  18.730
  798BOLB   C1A19133  20.000  15.240  19.220
  798BOLB   C2A19134  20.350  14.990  19.480
  798BOLB   C3A19135  20.540  14.880  19.900
  798BOLB   C4A19136  20.450  14.840  20.360
  798BOLB   C1B19137  20.300  14.970  18.940
  798BOLB   C2B19138  20.270  14.470  19.060
  798BOLB   C3B19139  20.310  13.980  19.080
  798BOLB   C4B19140  20.240  13.640  19.400
  798BOLB   NC219141  20.280  14.120  22.660
  798BOLB   PO219142  20.480  13.790  22.400
  798BOLB   GL319143  20.380  14.170  22.100
  798BOLB   GL419144  20.250  14.460  22.310
  798BOLB   C1C19145  20.210  14.350  21.780
  798BOLB   C2C19146  20.210  14.530  21.400
  798BOLB   C3C19147  20.110  14.800  21.000
  798BOLB   C4C19148  20.170  15.010  20.680
  798BOLB   C1D19149  20.000  14.760  22.010
  798BOLB   C2D19150  19.860  14.800  21.560
  798BOLB   C3D19151  19.390  14.780  21.330
  798BOLB   C4D19152  19.130  14.900  21.080
  799BOLB   NC119153  21.810  14.150  13.860
  799BOLB   PO119154  21.680  14.070  13.410
  799BOLB   GL119155  22.010  14.140  13.350
  799BOLB   GL219156  22.210  14.250  13.620
  799BOLB   C1A19157  22.240  13.800  13.140
  799BOLB   C2A19158  22.250  13.360  13.030
  799BOLB   C3A19159  22.230  12.970  12.920
  799BOLB   C4A19160  22.490  12.620  12.970
  799BOLB   C1B19161  22.400  13.910  13.630
  799BOLB   C2B19162  22.490  13.610  13.500
  799BOLB   C3B19163  22.550  13.170  13.450
  799BOLB   C4B19164  22.770  13.020  13.060
  799BOLB   NC219165  23.380  10.600  12.770
  799BOLB   PO219166  23.380  10.330  13.090
  799BOLB   GL319167  23.280  10.710  13.410
  799BOLB   GL419168  23.030  10.690  13.140
  799BOLB   C1C19169  23.180  11.140  13.410
  799BOLB   C2C19170  22.850  11.540  13.370
  799BOLB   C3C19171  22.610  11.910  13.430
  799BOLB   C4C19172  22.750  12.260  13.080
  799BOLB   C1D19173  22.790  10.990  13.190
  799BOLB   C2D19174  22.610  11.250  12.820
  799BOLB   C3D19175  22.540  11.650  12.830
  799BOLB   C4D19176  22.390  12.000  12.760
  800BOLB   NC119177  29.230  19.610  17.880
  800BOLB   PO119178  28.960  19.900  18.210
  800BOLB   GL119179  28.580  19.860  17.910
  800BOLB   GL219180  28.620  19.750  17.630
  800BOLB   C1A19181  28.110  19.800  17.890
  800BOLB   C2A19182  27.720  19.760  17.600
  800BOLB   C3A19183  27.420  19.510  17.450
  800BOLB   C4A19184  27.280  19.170  17.510
  800BOLB   C1B19185  28.330  20.030  17.530
  800BOLB   C2B19186  28.060  20.120  17.230
  800BOLB   C3B19187  27.950  20.480  16.970
  800BOLB   C4B19188  27.930  20.510  16.510
  800BOLB   NC219189  27.940  17.610  19.000
  800BOLB   PO219190  27.680  17.460  18.780
  800BOLB   GL319191  27.550  17.830  18.500
  800BOLB   GL419192  27.220  17.980  18.630
  800BOLB   C1C19193  27.400  17.970  18.050
  800BOLB   C2C19194  27.320  18.070  17.570
  800BOLB   C3C19195  27.570  18.470  17.350
  800BOLB   C4C19196  27.510  18.810  17.260
  800BOLB   C1D19197  26.910  17.720  18.530
  800BOLB   C2D19198  26.640  17.740  18.140
  800BOLB   C3D19199  26.160  17.810  18.050
  800BOLB   C4D19200  25.850  17.660  17.770
  801BOLB   NC119201  21.110  30.300  13.990
  801BOLB   PO119202  21.240  30.500  14.350
  801BOLB   GL119203  21.090  30.950  14.220
  801BOLB   GL219204  20.840  30.900  14.260
  801BOLB   C1A19205  20.920  31.350  13.960
  801BOLB   C2A19206  20.880  31.770  13.830
  801BOLB   C3A19207  20.590  32.110  13.840
  801BOLB   C4A19208  20.740  32.440  14.060
  801BOLB   C1B19209  20.520  31.170  14.230
  801BOLB   C2B19210  20.540  31.640  14.250
  801BOLB   C3B19211  20.560  32.130  14.390
  801BOLB   C4B19212  20.940  32.150  14.550
  801BOLB   NC219213  20.950  34.310  14.830
  801BOLB   PO219214  20.470  34.150  14.940
  801BOLB   GL319215  20.390  33.800  14.750
  801BOLB   GL419216  20.570  33.640  14.820
  801BOLB   C1C19217  19.990  33.510  14.810
  801BOLB   C2C19218  19.960  33.100  14.800
  801BOLB   C3C19219  20.160  32.890  14.460
  801BOLB   C4C19220  20.510  32.770  14.280
  801BOLB   C1D19221  20.410  33.290  14.870
  801BOLB   C2D19222  20.560  32.880  14.890
  801BOLB   C3D19223  20.340  32.480  14.680
  801BOLB   C4D19224  20.030  32.410  14.340
  802BOLB   NC119225  22.180  15.450  12.140
  802BOLB   PO119226  22.490  15.170  12.470
  802BOLB   GL119227  22.720  14.740  12.610
  802BOLB   GL219228  22.860  14.760  12.840
  802BOLB   C1A19229  22.950  14.420  12.410
  802BOLB   C2A19230  23.160  13.930  12.350
  802BOLB   C3A19231  23.500  13.590  12.500
  802BOLB   C4A19232  23.550  13.210  12.420
  802BOLB   C1B19233  23.020  14.260  12.840
  802BOLB   C2B19234  23.300  13.890  13.030
  802BOLB   C3B19235  23.540  13.460  13.080
  802BOLB   C4B19236  23.350  13.040  13.020
  802BOLB   NC219237  24.300  10.910  12.560
  802BOLB   PO219238  23.800  10.910  12.640
  802BOLB   GL319239  23.600  11.290  12.580
  802BOLB   GL419240  23.230  11.190  12.660
  802BOLB   C1C19241  23.430  11.640  12.410
  802BOLB   C2C19242  23.350  12.080  12.320
  802BOLB   C3C19243  23.490  12.460  12.140
  802BOLB   C4C19244  23.470  12.860  12.310
  802BOLB   C1D19245  22.930  11.250  12.490
  802BOLB   C2D19246  22.600  11.530  12.310
  802BOLB   C3D19247  22.560  11.890  12.070
  802BOLB   C4D19248  22.220  12.260  12.150
  803BOLB   NC119249  21.360  14.360  11.450
  803BOLB   PO119250  21.570  14.290  11.730
  803BOLB   GL119251  21.940  13.950  11.890
  803BOLB   GL219252  22.330  13.970  11.840
  803BOLB   C1A19253  22.120  13.590  12.060
  803BOLB   C2A19254  22.390  13.310  12.050
  803BOLB   C3A19255  22.460  13.000  12.150
  803BOLB   C4A19256  22.610  12.500  12.000
  803BOLB   C1B19257  22.260  13.710  11.470
  803BOLB   C2B19258  22.490  13.410  11.180
  803BOLB   C3B19259  22.710  13.450  10.910
  803BOLB   C4B19260  22.750  13.350  10.500
  803BOLB   NC219261  24.780  11.250  10.940
  803BOLB   PO219262  24.400  11.510  10.830
  803BOLB   GL319263  24.290  11.760  11.090
  803BOLB   GL419264  24.280  12.080  11.130
  803BOLB   C1C19265  24.000  11.850  11.490
  803BOLB   C2C19266  23.540  11.930  11.590
  803BOLB   C3C19267  23.250  12.180  11.820
  803BOLB   C4C19268  22.960  12.230  12.090
  803BOLB   C1D19269  24.040  12.290  10.920
  803BOLB   C2D19270  23.610  12.320  10.720
  803BOLB   C3D19271  23.290  12.250  10.440
  803BOLB   C4D19272  22.880  12.100  10.670
  804BOLB   NC119273  25.620  32.100  11.800
  804BOLB   PO119274  25.960  32.090  12.100
  804BOLB   GL119275  25.680  31.800  12.280
  804BOLB   GL219276  25.460  31.680  11.990
  804BOLB   C1A19277  25.580  31.290  12.320
  804BOLB   C2A19278  25.350  30.840  12.380
  804BOLB   C3A19279  25.050  30.580  12.040
  804BOLB   C4A19280  24.980  30.320  11.700
  804BOLB   C1B19281  25.100  31.480  12.090
  804BOLB   C2B19282  25.010  31.110  12.170
  804BOLB   C3B19283  24.820  30.850  12.390
  804BOLB   C4B19284  24.590  30.560  12.400
  804BOLB   NC219285  26.240  32.130  10.340
  804BOLB   PO219286  26.520  31.770  10.540
  804BOLB   GL319287  26.060  31.620  10.590
  804BOLB   GL419288  25.870  31.670  10.310
  804BOLB   C1C19289  25.820  31.240  10.610
  804BOLB   C2C19290  25.510  30.830  10.630
  804BOLB   C3C19291  25.240  30.490  10.850
  804BOLB   C4C19292  25.080  30.200  11.270
  804BOLB   C1D19293  25.520  31.620  10.570
  804BOLB   C2D19294  25.370  31.410  10.920
  804BOLB   C3D19295  25.320  31.010  11.040
  804BOLB   C4D19296  25.050  30.740  11.250
  805BOLB   NC119297  29.710  26.790  16.670
  805BOLB   PO119298  29.480  27.080  17.060
  805BOLB   GL119299  29.210  27.100  16.710
  805BOLB   GL219300  29.140  27.440  16.630
  805BOLB   C1A19301  28.810  26.950  16.500
  805BOLB   C2A19302  28.390  26.840  16.760
  805BOLB   C3A19303  27.990  26.660  16.730
  805BOLB   C4A19304  27.590  26.630  16.480
  805BOLB   C1B19305  28.700  27.400  16.740
  805BOLB   C2B19306  28.320  27.310  16.510
  805BOLB   C3B19307  27.850  27.170  16.390
  805BOLB   C4B19308  27.480  27.050  16.230
  805BOLB   NC219309  25.350  25.900  16.200
  805BOLB   PO219310  25.620  25.750  15.900
  805BOLB   GL319311  25.900  25.990  15.730
  805BOLB   GL419312  25.830  26.230  15.500
  805BOLB   C1C19313  26.190  26.260  15.840
  805BOLB   C2C19314  26.500  26.560  16.040
  805BOLB   C3C19315  26.710  26.720  16.360
  805BOLB   C4C19316  27.100  26.680  16.450
  805BOLB   C1D19317  26.210  26.540  15.360
  805BOLB   C2D19318  26.520  26.750  15.500
  805BOLB   C3D19319  26.620  27.110  15.760
  805BOLB   C4D19320  26.750  27.500  15.860
  806BOLB   NC119321  25.690  22.260  12.550
  806BOLB   PO119322  26.070  22.460  12.550
  806BOLB   GL119323  26.390  22.450  12.480
  806BOLB   GL219324  26.520  22.160  12.510
  806BOLB   C1A19325  26.780  22.480  12.150
  806BOLB   C2A19326  27.070  22.630  11.820
  806BOLB   C3A19327  27.440  22.550  11.580
  806BOLB   C4A19328  27.770  22.370  11.660
  806BOLB   C1B19329  26.870  22.040  12.440
  806BOLB   C2B19330  27.330  22.120  12.710
  806BOLB   C3B19331  27.630  22.340  12.610
  806BOLB   C4B19332  28.010  22.450  12.310
  806BOLB   NC219333  30.660  21.790  11.800
  806BOLB   PO219334  30.350  21.940  11.550
  806BOLB   GL319335  30.040  22.120  11.730
  806BOLB   GL419336  29.760  22.300  11.420
  806BOLB   C1C19337  29.550  21.990  11.840
  806BOLB   C2C19338  29.130  21.970  11.750
  806BOLB   C3C19339  28.630  22.060  11.730
  806BOLB   C4C19340  28.250  22.270  11.820
  806BOLB   C1D19341  29.320  22.260  11.390
  806BOLB   C2D19342  28.870  22.350  11.270
  806BOLB   C3D19343  28.400  22.360  11.330
  806BOLB   C4D19344  27.960  22.310  11.180
  807BOLB   NC119345  20.520  13.910  15.970
  807BOLB   PO119346  20.430  13.790  15.590
  807BOLB   GL119347  20.480  13.360  15.520
  807BOLB   GL219348  20.280  13.370  15.160
  807BOLB   C1A19349  20.730  13.050  15.400
  807BOLB   C2A19350  20.990  12.880  15.170
  807BOLB   C3A19351  21.220  12.610  15.170
  807BOLB   C4A19352  21.070  12.200  15.300
  807BOLB   C1B19353  20.240  12.920  15.170
  807BOLB   C2B19354  20.470  12.560  15.090
  807BOLB   C3B19355  20.570  12.260  15.260
  807BOLB   C4B19356  20.720  12.000  15.000
  807BOLB   NC219357  21.900  10.000  15.770
  807BOLB   PO219358  22.230  10.330  15.960
  807BOLB   GL319359  22.080  10.700  16.010
  807BOLB   GL419360  22.090  10.860  16.290
  807BOLB   C1C19361  21.730  11.000  15.900
  807BOLB   C2C19362  21.410  11.230  15.710
  807BOLB   C3C19363  21.140  11.500  15.650
  807BOLB   C4C19364  21.080  11.930  15.610
  807BOLB   C1D19365  21.690  11.000  16.390
  807BOLB   C2D19366  21.350  11.200  16.230
  807BOLB   C3D19367  21.100  11.660  16.170
  807BOLB   C4D19368  20.730  11.920  16.290
  808BOLB   NC119369  28.820  29.270  11.890
  808BOLB   PO119370  28.980  29.130  12.370
  808BOLB   GL119371  28.700  28.980  12.570
  808BOLB   GL219372  28.770  28.860  12.860
  808BOLB   C1A19373  28.280  28.820  12.750
  808BOLB   C2A19374  28.130  28.430  12.780
  808BOLB   C3A19375  28.120  28.060  13.110
  808BOLB   C4A19376  27.860  27.770  13.350
  808BOLB   C1B19377  28.680  28.450  12.770
  808BOLB   C2B19378  28.450  28.410  12.460
  808BOLB   C3B19379  27.900  28.290  12.390
  808BOLB   C4B19380  27.540  28.050  12.130
  808BOLB   NC219381  28.630  29.880  14.050
  808BOLB   PO219382  28.650  29.380  13.830
  808BOLB   GL319383  28.460  29.010  13.930
  808BOLB   GL419384  28.590  28.770  14.070
  808BOLB   C1C19385  28.200  28.730  13.860
  808BOLB   C2C19386  27.980  28.300  13.970
  808BOLB   C3C19387  27.700  27.980  13.940
  808BOLB   C4C19388  27.660  27.640  13.640
  808BOLB   C1D19389  28.390  28.490  14.340
  808BOLB   C2D19390  28.360  28.100  14.630
  808BOLB   C3D19391  28.080  28.100  14.910
  808BOLB   C4D19392  27.640  28.080  14.950
  809BOLB   NC119393  22.060  14.710  14.260
  809BOLB   PO119394  22.430  14.970  14.540
  809BOLB   GL119395  22.870  14.940  14.540
  809BOLB   GL219396  22.970  15.160  14.710
  809BOLB   C1A19397  23.220  14.650  14.510
  809BOLB   C2A19398  23.590  14.630  14.220
  809BOLB   C3A19399  23.900  14.340  14.070
  809BOLB   C4A19400  24.050  13.920  14.260
  809BOLB   C1B19401  23.090  14.890  14.980
  809BOLB   C2B19402  23.470  14.680  15.180
  809BOLB   C3B19403  23.470  14.300  15.400
  809BOLB   C4B19404  23.170  13.990  15.670
  809BOLB   NC219405  25.840  12.690  15.200
  809BOLB   PO219406  25.870  13.120  15.410
  809BOLB   GL319407  25.440  12.960  15.080
  809BOLB   GL419408  25.250  12.810  15.290
  809BOLB   C1C19409  25.080  13.060  14.830
  809BOLB   C2C19410  24.680  13.030  14.820
  809BOLB   C3C19411  24.420  13.090  14.420
  809BOLB   C4C19412  24.190  13.510  14.260
  809BOLB   C1D19413  24.770  12.900  15.300
  809BOLB   C2D19414  24.390  13.180  15.300
  809BOLB   C3D19415  23.940  13.330  15.210
  809BOLB   C4D19416  23.710  13.360  15.610
  810BOLB   NC119417  23.560  16.800  14.760
  810BOLB   PO119418  23.890  17.210  14.820
  810BOLB   GL119419  24.190  16.790  14.730
  810BOLB   GL219420  24.030  16.570  14.940
  810BOLB   C1A19421  24.610  16.700  14.420
  810BOLB   C2A19422  24.920  16.670  14.470
  810BOLB   C3A19423  25.090  16.370  14.480
  810BOLB   C4A19424  25.450  16.250  14.600
  810BOLB   C1B19425  24.020  16.190  15.200
  810BOLB   C2B19426  24.360  15.880  15.370
  810BOLB   C3B19427  24.570  15.680  15.690
  810BOLB   C4B19428  24.680  15.480  16.140
  810BOLB   NC219429  26.970  14.110  15.170
  810BOLB   PO219430  27.130  14.460  15.200
  810BOLB   GL319431  26.720  14.520  15.230
  810BOLB   GL419432  26.420  14.300  15.150
  810BOLB   C1C19433  26.530  14.940  15.160
  810BOLB   C2C19434  26.370  15.310  14.960
  810BOLB   C3C19435  26.150  15.660  14.800
  810BOLB   C4C19436  25.660  15.840  14.800
  810BOLB   C1D19437  25.960  14.380  14.980
  810BOLB   C2D19438  25.660  14.520  14.580
  810BOLB   C3D19439  25.420  14.710  14.240
  810BOLB   C4D19440  25.370  14.880  13.870
  811BOLB   NC119441  23.630  11.560   9.700
  811BOLB   PO119442  23.170  11.650   9.560
  811BOLB   GL119443  22.840  11.960   9.620
  811BOLB   GL219444  23.030  12.240   9.760
  811BOLB   C1A19445  22.750  12.280   9.350
  811BOLB   C2A19446  22.430  12.570   9.430
  811BOLB   C3A19447  22.280  12.760   9.770
  811BOLB   C4A19448  22.170  12.670  10.200
  811BOLB   C1B19449  23.030  12.560  10.110
  811BOLB   C2B19450  22.880  12.740  10.430
  811BOLB   C3B19451  22.540  12.920  10.610
  811BOLB   C4B19452  22.540  12.930  10.960
  811BOLB   NC219453  23.080  10.770   9.870
  811BOLB   PO219454  22.600  10.840   9.740
  811BOLB   GL319455  22.520  11.180  10.030
  811BOLB   GL419456  22.780  11.330   9.860
  811BOLB   C1C19457  22.170  11.390  10.240
  811BOLB   C2C19458  21.880  11.670  10.480
  811BOLB   C3C19459  21.650  12.100  10.470
  811BOLB   C4C19460  21.820  12.470  10.240
  811BOLB   C1D19461  22.450  11.720   9.870
  811BOLB   C2D19462  22.230  12.040   9.740
  811BOLB   C3D19463  21.970  12.400   9.740
  811BOLB   C4D19464  21.640  12.630   9.800
  812BOLB   NC119465  15.130  12.190  11.430
  812BOLB   PO119466  14.800  11.870  11.400
  812BOLB   GL119467  14.920  11.410  11.630
  812BOLB   GL219468  14.770  11.310  12.030
  812BOLB   C1A19469  14.970  11.050  11.530
  812BOLB   C2A19470  14.760  10.640  11.460
  812BOLB   C3A19471  14.590  10.300  11.280
  812BOLB   C4A19472  14.560   9.970  10.950
  812BOLB   C1B19473  14.820  10.850  12.070
  812BOLB   C2B19474  14.710  10.350  12.000
  812BOLB   C3B19475  14.620   9.910  12.060
  812BOLB   C4B19476  14.800   9.570  12.240
  812BOLB   NC219477  15.690   8.310   9.440
  812BOLB   PO219478  15.420   8.660   9.560
  812BOLB   GL319479  15.480   8.950   9.790
  812BOLB   GL419480  15.730   8.900  10.020
  812BOLB   C1C19481  15.300   9.250  10.040
  812BOLB   C2C19482  15.280   9.740  10.060
  812BOLB   C3C19483  15.300   9.880  10.510
  812BOLB   C4C19484  14.940   9.810  10.790
  812BOLB   C1D19485  15.740   9.440   9.880
  812BOLB   C2D19486  15.740   9.820  10.110
  812BOLB   C3D19487  15.980  10.270  10.210
  812BOLB   C4D19488  16.200  10.550  10.600
  813BOLB   NC119489  24.580  19.100  17.300
  813BOLB   PO119490  24.360  19.400  17.600
  813BOLB   GL119491  24.730  19.190  17.820
  813BOLB   GL219492  24.700  18.860  17.710
  813BOLB   C1A19493  24.970  19.080  18.110
  813BOLB   C2A19494  25.330  18.770  18.340
  813BOLB   C3A19495  25.570  18.410  18.480
  813BOLB   C4A19496  25.430  17.960  18.670
  813BOLB   C1B19497  24.790  18.490  17.840
  813BOLB   C2B19498  25.220  18.300  17.970
  813BOLB   C3B19499  25.450  17.970  18.130
  813BOLB   C4B19500  25.750  17.710  18.390
  813BOLB   NC219501  27.500  16.480  18.910
  813BOLB   PO219502  27.280  16.690  19.190
  813BOLB   GL319503  27.140  17.050  18.930
  813BOLB   GL419504  27.240  17.230  18.740
  813BOLB   C1C19505  26.750  17.300  18.740
  813BOLB   C2C19506  26.380  17.140  18.770
  813BOLB   C3C19507  25.990  17.280  18.740
  813BOLB   C4C19508  25.700  17.630  18.870
  813BOLB   C1D19509  27.030  17.200  18.350
  813BOLB   C2D19510  26.750  17.220  17.980
  813BOLB   C3D19511  26.350  17.250  17.740
  813BOLB   C4D19512  26.040  17.230  17.500
  814BOLB   NC119513  14.360  13.840  17.050
  814BOLB   PO119514  14.320  13.570  17.330
  814BOLB   GL119515  14.390  13.250  17.550
  814BOLB   GL219516  14.160  13.130  17.670
  814BOLB   C1A19517  14.630  12.980  17.920
  814BOLB   C2A19518  14.490  12.680  18.190
  814BOLB   C3A19519  14.780  12.260  18.190
  814BOLB   C4A19520  15.090  12.050  18.360
  814BOLB   C1B19521  14.160  13.040  18.090
  814BOLB   C2B19522  14.080  12.800  18.490
  814BOLB   C3B19523  14.350  12.420  18.620
  814BOLB   C4B19524  14.660  12.320  18.680
  814BOLB   NC219525  16.290  10.170  19.950
  814BOLB   PO219526  15.930  10.370  19.890
  814BOLB   GL319527  15.740  10.660  19.630
  814BOLB   GL419528  15.870  10.570  19.370
  814BOLB   C1C19529  15.670  11.030  19.500
  814BOLB   C2C19530  15.660  11.260  19.190
  814BOLB   C3C19531  15.610  11.580  18.900
  814BOLB   C4C19532  15.410  11.820  18.560
  814BOLB   C1D19533  15.990  10.870  19.120
  814BOLB   C2D19534  16.350  10.980  18.850
  814BOLB   C3D19535  16.390  11.340  18.490
  814BOLB   C4D19536  16.290  11.670  18.240
  815BOLB   NC119537  24.560  11.360  11.880
  815BOLB   PO119538  24.700  11.210  12.310
  815BOLB   GL119539  24.460  11.450  12.610
  815BOLB   GL219540  24.490  11.770  12.480
  815BOLB   C1A19541  24.220  11.470  12.810
  815BOLB   C2A19542  23.840  11.400  13.120
  815BOLB   C3A19543  23.410  11.500  13.180
  815BOLB   C4A19544  23.080  11.640  12.920
  815BOLB   C1B19545  24.400  11.970  12.900
  815BOLB   C2B19546  24.320  11.900  13.330
  815BOLB   C3B19547  24.350  11.960  13.750
  815BOLB   C4B19548  24.010  12.280  13.860
  815BOLB   NC219549  24.790  11.720  11.040
  815BOLB   PO219550  24.480  11.430  11.360
  815BOLB   GL319551  24.170  11.210  11.530
  815BOLB   GL419552  24.050  11.490  11.890
  815BOLB   C1C19553  23.700  11.290  11.700
  815BOLB   C2C19554  23.440  11.540  11.910
  815BOLB   C3C19555  23.040  11.710  12.120
  815BOLB   C4C19556  22.910  11.860  12.550
  815BOLB   C1D19557  23.830  11.820  11.980
  815BOLB   C2D19558  24.050  12.090  12.220
  815BOLB   C3D19559  24.020  12.200  12.590
  815BOLB   C4D19560  23.990  12.210  13.070
  816BOLB   NC119561  24.520  20.440   9.620
  816BOLB   PO119562  24.420  20.870   9.350
  816BOLB   GL119563  24.720  20.740   9.280
  816BOLB   GL219564  24.870  20.390   9.320
  816BOLB   C1A19565  25.020  20.760   8.930
  816BOLB   C2A19566  25.330  20.370   8.740
  816BOLB   C3A19567  25.560  20.030   8.470
  816BOLB   C4A19568  25.770  19.610   8.290
  816BOLB   C1B19569  25.150  19.980   9.200
  816BOLB   C2B19570  25.570  19.870   9.040
  816BOLB   C3B19571  25.780  19.450   9.150
  816BOLB   C4B19572  26.090  19.050   9.010
  816BOLB   NC219573  28.600  19.770   8.080
  816BOLB   PO219574  28.050  19.740   8.180
  816BOLB   GL319575  27.830  20.040   8.310
  816BOLB   GL419576  27.970  19.910   8.660
  816BOLB   C1C19577  27.360  20.260   8.310
  816BOLB   C2C19578  27.010  20.170   8.270
  816BOLB   C3C19579  26.660  19.890   8.140
  816BOLB   C4C19580  26.290  19.680   8.260
  816BOLB   C1D19581  27.690  20.250   8.790
  816BOLB   C2D19582  27.260  20.270   8.860
  816BOLB   C3D19583  26.950  20.550   8.600
  816BOLB   C4D19584  26.530  20.440   8.400
  817BOLB   NC119585  24.640  19.990  10.990
  817BOLB   PO119586  24.820  20.230  11.280
  817BOLB   GL119587  25.250  20.120  11.080
  817BOLB   GL219588  25.440  20.340  11.080
  817BOLB   C1A19589  25.600  19.840  11.020
  817BOLB   C2A19590  25.950  19.740  10.640
  817BOLB   C3A19591  26.250  19.840  10.260
  817BOLB   C4A19592  26.480  19.650   9.840
  817BOLB   C1B19593  25.790  20.270  10.830
  817BOLB   C2B19594  26.060  20.180  10.520
  817BOLB   C3B19595  26.490  20.240  10.490
  817BOLB   C4B19596  26.880  20.330  10.450
  817BOLB   NC219597  28.310  19.590   8.550
  817BOLB   PO219598  28.680  19.400   8.880
  817BOLB   GL319599  28.280  19.450   9.000
  817BOLB   GL419600  28.030  19.160   9.020
  817BOLB   C1C19601  28.020  19.850   9.130
  817BOLB   C2C19602  27.560  20.020   9.210
  817BOLB   C3C19603  27.130  20.010   9.350
  817BOLB   C4C19604  26.840  19.900   9.640
  817BOLB   C1D19605  27.560  19.090   9.240
  817BOLB   C2D19606  27.060  19.000   9.120
  817BOLB   C3D19607  26.740  19.040   8.850
  817BOLB   C4D19608  26.700  19.480   8.560
  818BOLB   NC119609  26.340  24.100  13.280
  818BOLB   PO119610  26.380  23.840  12.950
  818BOLB   GL119611  26.860  23.730  13.000
  818BOLB   GL219612  27.030  23.950  13.200
  818BOLB   C1A19613  27.200  23.690  12.740
  818BOLB   C2A19614  27.640  23.720  12.690
  818BOLB   C3A19615  27.960  23.940  12.920
  818BOLB   C4A19616  28.160  24.330  12.680
  818BOLB   C1B19617  27.470  23.930  13.100
  818BOLB   C2B19618  27.830  24.110  13.350
  818BOLB   C3B19619  27.810  24.400  13.680
  818BOLB   C4B19620  27.720  24.800  13.780
  818BOLB   NC219621  26.640  23.690  13.470
  818BOLB   PO219622  26.690  24.100  13.640
  818BOLB   GL319623  27.040  24.400  13.530
  818BOLB   GL419624  26.890  24.730  13.420
  818BOLB   C1C19625  27.390  24.490  13.430
  818BOLB   C2C19626  27.600  24.830  13.260
  818BOLB   C3C19627  27.810  24.970  12.960
  818BOLB   C4C19628  28.010  24.740  12.630
  818BOLB   C1D19629  27.200  24.940  13.580
  818BOLB   C2D19630  27.430  25.260  13.610
  818BOLB   C3D19631  27.860  25.200  13.570
  818BOLB   C4D19632  28.160  24.940  13.490
  819BOLB   NC119633  23.790  20.140   9.090
  819BOLB   PO119634  24.110  20.130   9.390
  819BOLB   GL119635  24.280  19.900   9.230
  819BOLB   GL219636  24.540  19.970   9.460
  819BOLB   C1A19637  24.610  19.800   8.960
  819BOLB   C2A19638  25.040  19.920   8.710
  819BOLB   C3A19639  25.210  19.650   8.440
  819BOLB   C4A19640  25.450  19.230   8.250
  819BOLB   C1B19641  24.760  19.600   9.480
  819BOLB   C2B19642  25.220  19.360   9.450
  819BOLB   C3B19643  25.400  19.020   9.260
  819BOLB   C4B19644  25.660  18.890   8.980
  819BOLB   NC219645  23.690  19.500  10.490
  819BOLB   PO219646  24.060  19.350  10.190
  819BOLB   GL319647  24.360  19.260   9.800
  819BOLB   GL419648  24.670  19.220   9.920
  819BOLB   C1C19649  24.670  19.060   9.450
  819BOLB   C2C19650  24.800  18.850   9.030
  819BOLB   C3C19651  25.210  18.880   8.730
  819BOLB   C4C19652  25.410  18.880   8.410
  819BOLB   C1D19653  25.090  19.020   9.800
  819BOLB   C2D19654  25.420  18.710   9.710
  819BOLB   C3D19655  25.810  18.550   9.330
  819BOLB   C4D19656  26.070  18.540   8.930
  820BOLB   NC119657  25.380  23.230  15.530
  820BOLB   PO119658  25.260  22.890  15.220
  820BOLB   GL119659  24.960  23.030  14.930
  820BOLB   GL219660  24.840  23.370  14.850
  820BOLB   C1A19661  24.900  23.080  14.480
  820BOLB   C2A19662  24.740  23.090  13.890
  820BOLB   C3A19663  24.700  23.370  13.530
  820BOLB   C4A19664  24.260  23.500  13.360
  820BOLB   C1B19665  24.350  23.400  14.870
  820BOLB   C2B19666  24.340  22.970  14.770
  820BOLB   C3B19667  24.300  22.510  14.640
  820BOLB   C4B19668  24.280  22.200  14.890
  820BOLB   NC219669  25.050  24.700  14.720
  820BOLB   PO219670  24.900  25.030  15.060
  820BOLB   GL319671  24.520  24.810  14.780
  820BOLB   GL419672  24.480  24.580  15.060
  820BOLB   C1C19673  24.260  24.620  14.370
  820BOLB   C2C19674  23.940  24.470  14.030
  820BOLB   C3C19675  23.840  24.010  13.890
  820BOLB   C4C19676  23.950  23.620  13.650
  820BOLB   C1D19677  24.430  24.280  15.320
  820BOLB   C2D19678  24.300  23.990  15.600
  820BOLB   C3D19679  23.980  23.950  15.950
  820BOLB   C4D19680  23.830  24.180  16.370
  821BOLB   NC119681  21.160  14.950  10.900
  821BOLB   PO119682  21.320  14.940  10.490
  821BOLB   GL119683  21.690  14.680  10.340
  821BOLB   GL219684  22.010  14.680  10.570
  821BOLB   C1A19685  21.970  14.530  10.040
  821BOLB   C2A19686  22.330  14.350   9.850
  821BOLB   C3A19687  22.530  13.970   9.790
  821BOLB   C4A19688  22.890  13.760   9.790
  821BOLB   C1B19689  22.020  14.270  10.420
  821BOLB   C2B19690  21.960  13.820  10.430
  821BOLB   C3B19691  21.880  13.530  10.320
  821BOLB   C4B19692  22.270  13.280  10.230
  821BOLB   NC219693  24.940  12.440  10.400
  821BOLB   PO219694  25.290  12.740  10.320
  821BOLB   GL319695  24.900  13.020  10.420
  821BOLB   GL419696  24.610  12.820  10.330
  821BOLB   C1C19697  24.530  13.380  10.260
  821BOLB   C2C19698  24.060  13.500  10.180
  821BOLB   C3C19699  23.700  13.600   9.910
  821BOLB   C4C19700  23.290  13.540   9.790
  821BOLB   C1D19701  24.190  13.040  10.280
  821BOLB   C2D19702  24.110  13.230  10.560
  821BOLB   C3D19703  23.700  13.220  10.780
  821BOLB   C4D19704  23.530  13.290  11.230
  822BOLB   NC119705  24.050  28.150   4.810
  822BOLB   PO119706  24.420  28.110   5.030
  822BOLB   GL119707  24.290  27.950   5.330
  822BOLB   GL219708  24.400  28.040   5.730
  822BOLB   C1A19709  24.240  27.500   5.540
  822BOLB   C2A19710  24.140  27.290   5.870
  822BOLB   C3A19711  24.330  27.190   6.340
  822BOLB   C4A19712  24.170  26.900   6.640
  822BOLB   C1B19713  24.050  27.750   6.000
  822BOLB   C2B19714  23.830  27.500   6.360
  822BOLB   C3B19715  23.520  27.390   6.560
  822BOLB   C4B19716  23.320  27.320   6.820
  822BOLB   NC219717  23.490  25.360   7.520
  822BOLB   PO219718  23.080  25.210   7.390
  822BOLB   GL319719  23.330  25.210   7.010
  822BOLB   GL419720  23.540  25.000   6.970
  822BOLB   C1C19721  23.730  25.410   6.890
  822BOLB   C2C19722  23.970  25.670   6.740
  822BOLB   C3C19723  24.040  26.120   6.660
  822BOLB   C4C19724  23.960  26.510   6.700
  822BOLB   C1D19725  23.910  25.010   7.050
  822BOLB   C2D19726  24.330  25.050   6.760
  822BOLB   C3D19727  24.460  25.320   6.520
  822BOLB   C4D19728  24.260  25.680   6.170
  823BOLB   NC119729  28.880  29.670  15.020
  823BOLB   PO119730  28.690  29.790  14.580
  823BOLB   GL119731  28.220  29.750  14.420
  823BOLB   GL219732  28.150  29.540  14.170
  823BOLB   C1A19733  27.780  29.730  14.460
  823BOLB   C2A19734  27.350  29.650  14.400
  823BOLB   C3A19735  26.960  29.360  14.480
  823BOLB   C4A19736  26.700  29.180  14.800
  823BOLB   C1B19737  27.960  29.270  13.850
  823BOLB   C2B19738  27.690  28.840  13.710
  823BOLB   C3B19739  27.580  28.780  13.240
  823BOLB   C4B19740  27.730  28.680  12.890
  823BOLB   NC219741  27.850  30.090  16.510
  823BOLB   PO219742  27.730  29.920  16.800
  823BOLB   GL319743  27.380  29.880  16.620
  823BOLB   GL419744  27.110  29.820  16.760
  823BOLB   C1C19745  27.200  29.530  16.310
  823BOLB   C2C19746  26.820  29.300  16.130
  823BOLB   C3C19747  26.670  29.290  15.710
  823BOLB   C4C19748  26.590  29.160  15.250
  823BOLB   C1D19749  26.800  29.520  16.630
  823BOLB   C2D19750  26.490  29.170  16.780
  823BOLB   C3D19751  26.400  28.970  17.210
  823BOLB   C4D19752  26.210  28.690  17.480
  824BOLB   NC119753  25.370  13.440  17.920
  824BOLB   PO119754  25.120  13.230  17.590
  824BOLB   GL119755  24.830  13.500  17.490
  824BOLB   GL219756  24.620  13.450  17.810
  824BOLB   C1A19757  24.800  13.900  17.180
  824BOLB   C2A19758  24.640  14.090  16.880
  824BOLB   C3A19759  24.220  14.160  17.020
  824BOLB   C4A19760  23.820  14.220  17.120
  824BOLB   C1B19761  24.420  13.400  17.330
  824BOLB   C2B19762  23.990  13.660  17.120
  824BOLB   C3B19763  23.830  13.840  16.700
  824BOLB   C4B19764  23.970  14.370  16.590
  824BOLB   NC219765  24.370  13.010  18.780
  824BOLB   PO219766  24.040  12.680  18.970
  824BOLB   GL319767  23.830  13.110  18.820
  824BOLB   GL419768  23.480  13.140  18.920
  824BOLB   C1C19769  23.650  13.440  18.470
  824BOLB   C2C19770  23.600  13.560  18.100
  824BOLB   C3C19771  23.570  13.800  17.710
  824BOLB   C4C19772  23.480  14.060  17.410
  824BOLB   C1D19773  23.270  13.620  18.920
  824BOLB   C2D19774  22.990  13.930  18.870
  824BOLB   C3D19775  22.880  14.220  18.530
  824BOLB   C4D19776  23.070  14.300  18.190
  825BOLB   NC119777  21.490  13.940  12.120
  825BOLB   PO119778  21.220  13.910  11.760
  825BOLB   GL119779  21.540  13.730  11.580
  825BOLB   GL219780  21.660  13.900  11.390
  825BOLB   C1A19781  21.830  13.470  11.530
  825BOLB   C2A19782  22.120  13.200  11.500
  825BOLB   C3A19783  22.560  13.090  11.580
  825BOLB   C4A19784  22.980  13.110  11.750
  825BOLB   C1B19785  21.790  13.690  11.060
  825BOLB   C2B19786  21.650  13.520  10.760
  825BOLB   C3B19787  21.490  13.120  10.600
  825BOLB   C4B19788  21.110  12.950  10.490
  825BOLB   NC219789  24.290  11.380  10.370
  825BOLB   PO219790  23.910  11.510  10.530
  825BOLB   GL319791  23.800  11.800  10.790
  825BOLB   GL419792  23.490  11.840  10.690
  825BOLB   C1C19793  23.700  12.050  11.150
  825BOLB   C2C19794  23.780  12.390  11.330
  825BOLB   C3C19795  23.610  12.580  11.600
  825BOLB   C4C19796  23.340  12.970  11.590
  825BOLB   C1D19797  23.090  11.630  10.670
  825BOLB   C2D19798  22.660  11.480  10.860
  825BOLB   C3D19799  22.460  11.120  11.020
  825BOLB   C4D19800  22.390  10.890  11.390
  826BOLB   NC119801  23.430  18.670  18.020
  826BOLB   PO119802  23.690  18.860  17.790
  826BOLB   GL119803  23.980  18.590  18.100
  826BOLB   GL219804  24.080  18.770  18.440
  826BOLB   C1A19805  24.340  18.410  18.350
  826BOLB   C2A19806  24.450  17.990  18.540
  826BOLB   C3A19807  24.520  17.710  18.800
  826BOLB   C4A19808  24.640  17.730  19.230
  826BOLB   C1B19809  24.370  18.740  18.700
  826BOLB   C2B19810  24.590  18.440  18.790
  826BOLB   C3B19811  24.520  18.180  18.990
  826BOLB   C4B19812  24.400  18.130  19.400
  826BOLB   NC219813  26.990  16.450  19.530
  826BOLB   PO219814  26.910  16.740  19.840
  826BOLB   GL319815  26.500  16.730  19.670
  826BOLB   GL419816  26.370  16.400  19.760
  826BOLB   C1C19817  26.270  17.040  19.590
  826BOLB   C2C19818  25.840  17.170  19.560
  826BOLB   C3C19819  25.410  17.350  19.410
  826BOLB   C4C19820  25.060  17.630  19.410
  826BOLB   C1D19821  26.070  16.770  19.930
  826BOLB   C2D19822  25.860  17.100  20.090
  826BOLB   C3D19823  26.000  17.400  20.300
  826BOLB   C4D19824  25.870  17.890  20.260
  827BOLB   NC119825  24.550  18.220  13.540
  827BOLB   PO119826  24.540  17.810  13.380
  827BOLB   GL119827  24.680  17.420  13.300
  827BOLB   GL219828  24.620  17.170  13.010
  827BOLB   C1A19829  25.080  17.260  13.310
  827BOLB   C2A19830  25.410  17.250  13.540
  827BOLB   C3A19831  25.890  17.410  13.630
  827BOLB   C4A19832  26.300  17.370  13.770
  827BOLB   C1B19833  24.950  16.940  13.030
  827BOLB   C2B19834  25.330  16.800  13.080
  827BOLB   C3B19835  25.780  16.770  12.910
  827BOLB   C4B19836  26.090  16.670  12.690
  827BOLB   NC219837  28.280  16.160  14.740
  827BOLB   PO219838  28.290  15.870  14.390
  827BOLB   GL319839  27.850  16.120  14.320
  827BOLB   GL419840  27.810  16.470  14.340
  827BOLB   C1C19841  27.340  16.190  14.400
  827BOLB   C2C19842  27.110  16.580  14.410
  827BOLB   C3C19843  26.900  16.810  14.030
  827BOLB   C4C19844  26.670  17.090  13.800
  827BOLB   C1D19845  27.550  16.710  14.260
  827BOLB   C2D19846  27.230  17.060  14.240
  827BOLB   C3D19847  26.900  17.320  14.310
  827BOLB   C4D19848  26.570  17.560  14.390
  828BOLB   NC119849  21.450  12.900  21.540
  828BOLB   PO119850  21.190  12.990  21.230
  828BOLB   GL119851  20.890  13.310  21.080
  828BOLB   GL219852  20.760  13.580  21.340
  828BOLB   C1A19853  21.030  13.600  20.850
  828BOLB   C2A19854  20.990  13.910  20.420
  828BOLB   C3A19855  20.900  14.400  20.360
  828BOLB   C4A19856  21.020  14.590  20.620
  828BOLB   C1B19857  20.510  13.680  20.940
  828BOLB   C2B19858  20.180  13.740  20.630
  828BOLB   C3B19859  20.000  14.040  20.280
  828BOLB   C4B19860  19.970  14.570  20.350
  828BOLB   NC219861  22.480  14.860  21.970
  828BOLB   PO219862  22.320  14.460  22.020
  828BOLB   GL319863  21.950  14.310  21.950
  828BOLB   GL419864  21.890  14.330  21.580
  828BOLB   C1C19865  21.480  14.290  21.830
  828BOLB   C2C19866  21.220  14.360  21.620
  828BOLB   C3C19867  21.260  14.570  21.410
  828BOLB   C4C19868  21.250  14.510  20.950
  828BOLB   C1D19869  21.670  14.560  21.230
  828BOLB   C2D19870  21.770  14.680  20.940
  828BOLB   C3D19871  21.930  14.750  20.450
  828BOLB   C4D19872  21.850  14.900  20.060
  829BOLB   NC119873  23.380  16.120  13.000
  829BOLB   PO119874  23.260  15.800  13.200
  829BOLB   GL119875  23.480  15.480  13.420
  829BOLB   GL219876  23.500  15.500  13.890
  829BOLB   C1A19877  23.810  15.130  13.520
  829BOLB   C2A19878  24.140  14.990  13.790
  829BOLB   C3A19879  24.240  14.630  13.840
  829BOLB   C4A19880  24.460  14.280  13.750
  829BOLB   C1B19881  23.680  15.110  14.000
  829BOLB   C2B19882  24.020  14.920  14.240
  829BOLB   C3B19883  24.120  14.600  14.460
  829BOLB   C4B19884  24.190  14.130  14.710
  829BOLB   NC219885  26.490  13.160  14.240
  829BOLB   PO219886  26.480  12.950  13.910
  829BOLB   GL319887  26.140  13.090  13.870
  829BOLB   GL419888  26.160  13.370  13.870
  829BOLB   C1C19889  25.760  13.230  14.200
  829BOLB   C2C19890  25.510  13.510  14.180
  829BOLB   C3C19891  25.160  13.800  14.110
  829BOLB   C4C19892  24.820  14.080  13.990
  829BOLB   C1D19893  25.850  13.600  13.740
  829BOLB   C2D19894  25.560  13.830  13.750
  829BOLB   C3D19895  25.300  14.270  13.850
  829BOLB   C4D19896  24.980  14.560  13.990
  830BOLB   NC119897  24.970  12.010  16.890
  830BOLB   PO119898  24.550  11.910  16.700
  830BOLB   GL119899  24.340  12.300  16.530
  830BOLB   GL219900  24.000  12.250  16.550
  830BOLB   C1A19901  24.300  12.710  16.450
  830BOLB   C2A19902  24.040  13.010  16.320
  830BOLB   C3A19903  23.730  12.950  15.890
  830BOLB   C4A19904  23.310  12.650  16.050
  830BOLB   C1B19905  23.700  12.220  16.860
  830BOLB   C2B19906  23.310  12.140  17.040
  830BOLB   C3B19907  23.050  12.320  17.310
  830BOLB   C4B19908  22.540  12.250  17.420
  830BOLB   NC219909  23.520  11.110  16.690
  830BOLB   PO219910  23.360  11.200  17.030
  830BOLB   GL319911  23.120  11.580  16.820
  830BOLB   GL419912  23.190  11.550  16.480
  830BOLB   C1C19913  22.650  11.560  16.590
  830BOLB   C2C19914  22.520  11.930  16.500
  830BOLB   C3C19915  22.610  12.300  16.280
  830BOLB   C4C19916  22.840  12.470  16.070
  830BOLB   C1D19917  23.430  11.930  16.530
  830BOLB   C2D19918  23.520  12.300  16.350
  830BOLB   C3D19919  23.790  12.530  16.130
  830BOLB   C4D19920  24.190  12.620  16.000
  831BOLB   NC119921  24.310  27.760  14.590
  831BOLB   PO119922  24.450  27.610  14.980
  831BOLB   GL119923  24.860  27.820  15.010
  831BOLB   GL219924  25.010  27.790  14.730
  831BOLB   C1A19925  25.050  28.150  15.150
  831BOLB   C2A19926  25.370  28.400  15.130
  831BOLB   C3A19927  25.480  28.810  15.240
  831BOLB   C4A19928  25.900  28.980  15.210
  831BOLB   C1B19929  25.300  27.990  14.770
  831BOLB   C2B19930  25.580  28.220  14.750
  831BOLB   C3B19931  25.900  28.440  15.070
  831BOLB   C4B19932  26.190  28.600  15.400
  831BOLB   NC219933  26.690  31.210  16.240
  831BOLB   PO219934  27.060  30.900  16.030
  831BOLB   GL319935  26.650  30.720  15.990
  831BOLB   GL419936  26.540  30.660  16.370
  831BOLB   C1C19937  26.360  30.440  15.700
  831BOLB   C2C19938  26.140  30.120  15.480
  831BOLB   C3C19939  26.160  29.700  15.300
  831BOLB   C4C19940  26.020  29.360  15.320
  831BOLB   C1D19941  26.550  30.260  16.120
  831BOLB   C2D19942  26.160  29.930  16.110
  831BOLB   C3D19943  25.850  29.940  15.830
  831BOLB   C4D19944  25.480  30.190  15.780
  832BOLB   NC119945  23.770  17.670  14.000
  832BOLB   PO119946  24.170  17.550  14.190
  832BOLB   GL119947  24.650  17.370  14.180
  832BOLB   GL219948  24.720  17.350  13.830
  832BOLB   C1A19949  24.900  17.190  14.390
  832BOLB   C2A19950  25.350  16.930  14.320
  832BOLB   C3A19951  25.550  16.560  14.080
  832BOLB   C4A19952  25.490  16.120  14.070
  832BOLB   C1B19953  25.100  17.150  13.860
  832BOLB   C2B19954  25.410  16.800  13.710
  832BOLB   C3B19955  25.700  16.500  13.370
  832BOLB   C4B19956  25.650  16.300  13.110
  832BOLB   NC219957  27.990  14.470  14.650
  832BOLB   PO219958  27.510  14.570  14.820
  832BOLB   GL319959  27.130  14.810  14.800
  832BOLB   GL419960  27.030  14.960  15.010
  832BOLB   C1C19961  26.690  15.030  14.650
  832BOLB   C2C19962  26.380  15.240  14.460
  832BOLB   C3C19963  25.950  15.400  14.440
  832BOLB   C4C19964  25.690  15.790  14.200
  832BOLB   C1D19965  26.830  15.400  15.190
  832BOLB   C2D19966  26.880  15.530  15.680
  832BOLB   C3D19967  26.630  15.960  15.780
  832BOLB   C4D19968  26.350  16.330  15.740
  833BOLB   NC119969  28.480  28.780  16.600
  833BOLB   PO119970  28.510  29.090  16.240
  833BOLB   GL119971  28.110  29.210  16.190
  833BOLB   GL219972  28.160  29.370  16.410
  833BOLB   C1A19973  27.670  29.020  16.030
  833BOLB   C2A19974  27.220  28.950  16.130
  833BOLB   C3A19975  26.810  28.840  15.880
  833BOLB   C4A19976  26.480  28.780  15.750
  833BOLB   C1B19977  27.760  29.020  16.510
  833BOLB   C2B19978  27.340  28.660  16.490
  833BOLB   C3B19979  27.190  28.440  16.130
  833BOLB   C4B19980  26.770  28.260  16.130
  833BOLB   NC219981  27.350  30.970  15.570
  833BOLB   PO219982  27.710  30.640  15.420
  833BOLB   GL319983  27.270  30.400  15.570
  833BOLB   GL419984  26.980  30.700  15.490
  833BOLB   C1C19985  26.850  30.190  15.720
  833BOLB   C2C19986  26.530  29.860  15.770
  833BOLB   C3C19987  26.210  29.460  15.800
  833BOLB   C4C19988  26.220  29.010  15.740
  833BOLB   C1D19989  26.720  30.450  15.290
  833BOLB   C2D19990  26.630  30.020  15.230
  833BOLB   C3D19991  26.540  29.620  15.090
  833BOLB   C4D19992  26.210  29.410  14.880
  834BOLB   NC119993  18.370  12.450  14.010
  834BOLB   PO119994  18.330  12.550  14.470
  834BOLB   GL119995  18.400  12.150  14.560
  834BOLB   GL219996  18.630  12.060  14.410
  834BOLB   C1A19997  18.510  11.860  14.850
  834BOLB   C2A19998  18.610  11.420  14.930
  834BOLB   C3A19999  18.740  11.000  14.790
  834BOLB   C4A20000  19.080  10.760  14.790
  834BOLB   C1B20001  18.920  11.670  14.400
  834BOLB   C2B20002  18.970  11.230  14.450
  834BOLB   C3B20003  18.920  10.740  14.300
  834BOLB   C4B20004  18.740  10.490  14.590
  834BOLB   NC220005  19.530   8.800  16.360
  834BOLB   PO220006  19.930   9.000  16.280
  834BOLB   GL320007  19.730   9.350  16.270
  834BOLB   GL420008  19.820   9.600  16.230
  834BOLB   C1C20009  19.480   9.520  15.870
  834BOLB   C2C20010  19.370   9.910  15.640
  834BOLB   C3C20011  19.350  10.210  15.260
  834BOLB   C4C20012  19.290  10.540  14.970
  834BOLB   C1D20013  19.550   9.880  16.280
  834BOLB   C2D20014  19.160  10.200  16.110
  834BOLB   C3D20015  18.840  10.270  16.060
  834BOLB   C4D20016  18.500  10.590  16.050
  835BOLB   NC120017  23.390  28.170  10.430
  835BOLB   PO120018  22.970  28.390  10.320
  835BOLB   GL120019  22.840  28.860  10.110
  835BOLB   GL220020  22.880  28.960   9.700
  835BOLB   C1A20021  22.960  29.310  10.110
  835BOLB   C2A20022  23.080  29.660   9.930
  835BOLB   C3A20023  23.060  29.960   9.600
  835BOLB   C4A20024  22.850  30.270   9.430
  835BOLB   C1B20025  23.140  29.250   9.570
  835BOLB   C2B20026  23.450  29.620   9.630
  835BOLB   C3B20027  23.520  29.940   9.730
  835BOLB   C4B20028  23.290  30.080  10.100
  835BOLB   NC220029  24.200  31.640   7.680
  835BOLB   PO220030  23.840  31.430   7.590
  835BOLB   GL320031  23.480  31.230   7.810
  835BOLB   GL420032  23.420  31.050   7.620
  835BOLB   C1C20033  23.290  31.090   8.170
  835BOLB   C2C20034  22.980  30.750   8.350
  835BOLB   C3C20035  22.650  30.600   8.730
  835BOLB   C4C20036  22.740  30.550   9.150
  835BOLB   C1D20037  23.090  30.830   7.820
  835BOLB   C2D20038  22.790  30.550   7.870
  835BOLB   C3D20039  22.480  30.440   8.150
  835BOLB   C4D20040  22.400  30.210   8.550
  836BOLB   NC120041  19.450  16.100  19.040
  836BOLB   PO120042  19.930  16.210  19.140
  836BOLB   GL120043  20.190  16.250  19.560
  836BOLB   GL220044  19.860  16.050  19.690
  836BOLB   C1A20045  20.380  16.130  19.840
  836BOLB   C2A20046  20.510  15.670  20.090
  836BOLB   C3A20047  20.680  15.280  20.210
  836BOLB   C4A20048  21.060  15.080  20.310
  836BOLB   C1B20049  19.880  15.880  20.050
  836BOLB   C2B20050  20.020  15.680  20.340
  836BOLB   C3B20051  19.810  15.540  20.710
  836BOLB   C4B20052  19.690  15.710  21.150
  836BOLB   NC220053  22.110  13.000  21.460
  836BOLB   PO220054  21.790  12.810  21.200
  836BOLB   GL320055  21.670  13.160  21.160
  836BOLB   GL420056  21.460  13.130  20.830
  836BOLB   C1C20057  21.690  13.580  20.930
  836BOLB   C2C20058  21.410  13.920  20.740
  836BOLB   C3C20059  21.370  14.260  20.480
  836BOLB   C4C20060  21.350  14.700  20.270
  836BOLB   C1D20061  21.400  13.430  20.530
  836BOLB   C2D20062  21.230  13.610  20.110
  836BOLB   C3D20063  21.110  13.780  19.650
  836BOLB   C4D20064  20.730  13.800  19.450
  837BOLB   NC120065  14.790  12.080  14.810
  837BOLB   PO120066  14.490  12.040  15.180
  837BOLB   GL120067  14.340  11.720  15.360
  837BOLB   GL220068  14.140  11.720  15.180
  837BOLB   C1A20069  14.250  11.350  15.590
  837BOLB   C2A20070  14.380  11.200  15.960
  837BOLB   C3A20071  14.330  10.890  16.350
  837BOLB   C4A20072  14.230  10.800  16.820
  837BOLB   C1B20073  14.160  11.290  14.970
  837BOLB   C2B20074  14.010  10.920  14.900
  837BOLB   C3B20075  13.720  10.740  14.640
  837BOLB   C4B20076  13.460  10.450  14.470
  837BOLB   NC220077  12.960   8.500  17.000
  837BOLB   PO220078  13.010   8.660  17.310
  837BOLB   GL320079  13.280   9.050  17.250
  837BOLB   GL420080  13.440   9.170  17.550
  837BOLB   C1C20081  13.500   9.450  17.090
  837BOLB   C2C20082  13.710   9.780  17.020
  837BOLB   C3C20083  13.930  10.260  17.070
  837BOLB   C4C20084  14.140  10.570  17.080
  837BOLB   C1D20085  13.270   9.650  17.630
  837BOLB   C2D20086  12.900   9.840  17.620
  837BOLB   C3D20087  12.550  10.050  17.560
  837BOLB   C4D20088  12.260  10.310  17.820
  838BOLB   NC120089  20.720  18.070  19.220
  838BOLB   PO120090  20.950  18.330  19.570
  838BOLB   GL120091  21.170  18.560  19.830
  838BOLB   GL220092  21.390  18.850  19.760
  838BOLB   C1A20093  21.360  18.490  20.190
  838BOLB   C2A20094  21.340  18.480  20.600
  838BOLB   C3A20095  21.500  18.380  21.020
  838BOLB   C4A20096  21.720  18.050  21.190
  838BOLB   C1B20097  21.740  18.900  20.090
  838BOLB   C2B20098  21.860  18.780  20.630
  838BOLB   C3B20099  21.670  18.860  21.010
  838BOLB   C4B20100  21.590  18.750  21.390
  838BOLB   NC220101  23.090  18.330  22.810
  838BOLB   PO220102  23.120  18.710  23.060
  838BOLB   GL320103  22.930  18.830  22.560
  838BOLB   GL420104  23.050  18.720  22.370
  838BOLB   C1C20105  22.540  18.690  22.340
  838BOLB   C2C20106  22.310  18.460  22.100
  838BOLB   C3C20107  22.220  18.170  21.860
  838BOLB   C4C20108  22.070  17.880  21.500
  838BOLB   C1D20109  22.840  18.390  22.120
  838BOLB   C2D20110  22.690  18.320  21.690
  838BOLB   C3D20111  22.290  18.500  21.490
  838BOLB   C4D20112  22.130  18.880  21.520
  839BOLB   NC120113  29.340  25.950   9.690
  839BOLB   PO120114  29.010  26.100   9.270
  839BOLB   GL120115  28.790  25.760   9.460
  839BOLB   GL220116  28.730  26.010   9.840
  839BOLB   C1A20117  28.810  25.470   9.810
  839BOLB   C2A20118  28.500  25.420  10.150
  839BOLB   C3A20119  28.300  25.110  10.360
  839BOLB   C4A20120  27.930  25.000  10.700
  839BOLB   C1B20121  28.270  25.870  10.030
  839BOLB   C2B20122  28.070  25.560  10.300
  839BOLB   C3B20123  27.760  25.270  10.320
  839BOLB   C4B20124  27.830  24.990  10.180
  839BOLB   NC220125  25.360  25.320  11.350
  839BOLB   PO220126  25.630  25.470  11.800
  839BOLB   GL320127  25.900  25.310  11.530
  839BOLB   GL420128  26.180  25.300  11.700
  839BOLB   C1C20129  26.250  25.130  11.220
  839BOLB   C2C20130  26.630  25.150  10.890
  839BOLB   C3C20131  27.080  25.140  10.700
  839BOLB   C4C20132  27.500  25.160  10.680
  839BOLB   C1D20133  26.460  25.590  11.550
  839BOLB   C2D20134  26.580  26.040  11.390
  839BOLB   C3D20135  26.820  26.380  11.060
  839BOLB   C4D20136  26.740  26.840  10.890
  840BOLB   NC120137  28.540  20.330  20.020
  840BOLB   PO120138  28.550  20.670  19.820
  840BOLB   GL120139  28.250  20.520  19.500
  840BOLB   GL220140  28.080  20.340  19.330
  840BOLB   C1A20141  27.710  20.570  19.540
  840BOLB   C2A20142  27.440  20.780  19.280
  840BOLB   C3A20143  27.180  20.520  18.980
  840BOLB   C4A20144  27.000  20.390  18.600
  840BOLB   C1B20145  27.750  20.410  18.980
  840BOLB   C2B20146  27.500  20.450  18.600
  840BOLB   C3B20147  27.400  20.120  18.270
  840BOLB   C4B20148  27.710  19.810  18.200
  840BOLB   NC220149  24.710  21.300  18.000
  840BOLB   PO220150  24.630  20.890  18.140
  840BOLB   GL320151  24.920  20.760  18.360
  840BOLB   GL420152  24.910  20.980  18.600
  840BOLB   C1C20153  25.280  20.530  18.560
  840BOLB   C2C20154  25.750  20.600  18.700
  840BOLB   C3C20155  26.210  20.500  18.640
  840BOLB   C4C20156  26.610  20.270  18.560
  840BOLB   C1D20157  25.290  20.990  18.760
  840BOLB   C2D20158  25.600  20.980  19.100
  840BOLB   C3D20159  25.780  20.990  19.490
  840BOLB   C4D20160  26.120  20.720  19.630
  841BOLB   NC120161  23.440  16.780  13.540
  841BOLB   PO120162  23.890  16.850  13.600
  841BOLB   GL120163  24.200  16.580  13.480
  841BOLB   GL220164  24.090  16.230  13.430
  841BOLB   C1A20165  24.540  16.390  13.170
  841BOLB   C2A20166  24.760  16.000  13.160
  841BOLB   C3A20167  24.720  15.600  13.410
  841BOLB   C4A20168  25.030  15.310  13.580
  841BOLB   C1B20169  24.340  15.980  13.570
  841BOLB   C2B20170  24.560  15.800  13.950
  841BOLB   C3B20171  24.870  15.530  14.170
  841BOLB   C4B20172  25.040  15.080  14.270
  841BOLB   NC220173  25.840  13.270  12.420
  841BOLB   PO220174  26.320  13.240  12.530
  841BOLB   GL320175  26.100  13.550  12.820
  841BOLB   GL420176  25.770  13.620  12.810
  841BOLB   C1C20177  25.960  13.840  13.290
  841BOLB   C2C20178  25.690  14.230  13.470
  841BOLB   C3C20179  25.450  14.510  13.470
  841BOLB   C4C20180  25.190  14.880  13.440
  841BOLB   C1D20181  25.450  13.930  12.600
  841BOLB   C2D20182  25.150  14.150  12.280
  841BOLB   C3D20183  24.750  14.190  12.060
  841BOLB   C4D20184  24.560  14.400  11.580
  842BOLB   NC120185  23.430  27.510  16.330
  842BOLB   PO120186  23.680  27.880  16.400
  842BOLB   GL120187  23.960  28.150  16.640
  842BOLB   GL220188  23.830  28.320  16.800
  842BOLB   C1A20189  24.270  28.490  16.560
  842BOLB   C2A20190  24.440  28.930  16.650
  842BOLB   C3A20191  24.720  29.190  16.760
  842BOLB   C4A20192  25.090  29.090  17.110
  842BOLB   C1B20193  24.010  28.820  16.970
  842BOLB   C2B20194  23.740  29.150  17.120
  842BOLB   C3B20195  23.800  29.500  16.990
  842BOLB   C4B20196  23.940  29.740  16.600
  842BOLB   NC220197  27.340  30.150  17.150
  842BOLB   PO220198  27.140  30.000  17.570
  842BOLB   GL320199  26.810  29.760  17.300
  842BOLB   GL420200  26.730  30.140  17.240
  842BOLB   C1C20201  26.390  29.490  17.160
  842BOLB   C2C20202  26.050  29.310  17.140
  842BOLB   C3C20203  25.810  28.890  17.290
  842BOLB   C4C20204  25.410  28.880  17.260
  842BOLB   C1D20205  26.480  29.960  16.970
  842BOLB   C2D20206  26.270  29.730  16.700
  842BOLB   C3D20207  25.990  29.440  16.650
  842BOLB   C4D20208  25.900  29.440  16.120
  843BOLB   NC120209  19.210  12.650  14.110
  843BOLB   PO120210  19.270  12.700  14.510
  843BOLB   GL120211  19.310  12.390  14.760
  843BOLB   GL220212  19.610  12.550  14.910
  843BOLB   C1A20213  19.550  12.010  14.990
  843BOLB   C2A20214  19.360  11.630  15.250
  843BOLB   C3A20215  19.580  11.530  15.680
  843BOLB   C4A20216  19.800  11.410  16.060
  843BOLB   C1B20217  20.010  12.270  15.050
  843BOLB   C2B20218  20.200  11.880  14.890
  843BOLB   C3B20219  20.430  11.680  14.570
  843BOLB   C4B20220  20.690  11.690  14.150
  843BOLB   NC220221  20.080   9.440  16.620
  843BOLB   PO220222  19.740   9.100  16.710
  843BOLB   GL320223  19.610   9.550  16.710
  843BOLB   GL420224  19.350   9.750  16.880
  843BOLB   C1C20225  19.710  10.000  16.770
  843BOLB   C2C20226  19.580  10.460  16.830
  843BOLB   C3C20227  19.370  10.840  16.710
  843BOLB   C4C20228  19.450  11.170  16.270
  843BOLB   C1D20229  19.200  10.150  16.670
  843BOLB   C2D20230  18.940  10.490  16.560
  843BOLB   C3D20231  18.890  11.000  16.610
  843BOLB   C4D20232  18.760  11.430  16.740
  844BOLB   NC120233  23.010  13.070  20.570
  844BOLB   PO120234  22.630  12.900  20.580
  844BOLB   GL120235  22.320  13.250  20.490
  844BOLB   GL220236  22.000  13.180  20.400
  844BOLB   C1A20237  22.420  13.580  20.110
  844BOLB   C2A20238  22.480  13.760  19.730
  844BOLB   C3A20239  22.600  14.140  19.780
  844BOLB   C4A20240  22.320  14.610  19.570
  844BOLB   C1B20241  21.660  13.300  20.100
  844BOLB   C2B20242  21.550  13.370  19.660
  844BOLB   C3B20243  21.520  13.500  19.310
  844BOLB   C4B20244  21.470  13.640  18.960
  844BOLB   NC220245  23.160  14.340  21.350
  844BOLB   PO220246  23.370  14.720  21.430
  844BOLB   GL320247  23.230  14.890  21.000
  844BOLB   GL420248  23.380  15.020  20.760
  844BOLB   C1C20249  22.840  15.180  20.830
  844BOLB   C2C20250  22.530  15.130  20.480
  844BOLB   C3C20251  22.340  14.980  20.260
  844BOLB   C4C20252  22.270  14.910  19.830
  844BOLB   C1D20253  23.310  15.290  20.430
  844BOLB   C2D20254  23.100  15.680  20.190
  844BOLB   C3D20255  22.870  15.920  19.840
  844BOLB   C4D20256  22.400  15.970  19.720
  845BOLB   NC120257  20.740  14.920  17.020
  845BOLB   PO120258  20.750  14.760  16.640
  845BOLB   GL120259  21.160  14.520  16.750
  845BOLB   GL220260  21.180  14.270  16.690
  845BOLB   C1A20261  21.670  14.330  16.860
  845BOLB   C2A20262  21.850  13.800  16.960
  845BOLB   C3A20263  21.960  13.490  17.220
  845BOLB   C4A20264  22.280  13.270  17.430
  845BOLB   C1B20265  21.390  13.870  16.710
  845BOLB   C2B20266  21.600  13.610  16.580
  845BOLB   C3B20267  21.990  13.370  16.710
  845BOLB   C4B20268  22.300  13.210  16.890
  845BOLB   NC220269  22.260  10.460  17.400
  845BOLB   PO220270  22.070  10.750  17.730
  845BOLB   GL320271  21.970  11.200  17.730
  845BOLB   GL420272  22.240  11.320  17.470
  845BOLB   C1C20273  21.890  11.610  17.960
  845BOLB   C2C20274  22.100  12.090  17.750
  845BOLB   C3C20275  22.140  12.500  17.480
  845BOLB   C4C20276  22.360  12.930  17.650
  845BOLB   C1D20277  21.990  11.590  17.430
  845BOLB   C2D20278  21.740  11.920  17.360
  845BOLB   C3D20279  21.530  12.240  17.150
  845BOLB   C4D20280  21.380  12.570  16.900
  846BOLB   NC120281  24.840  22.440   2.940
  846BOLB   PO120282  24.410  22.420   3.020
  846BOLB   GL120283  24.480  22.560   3.520
  846BOLB   GL220284  24.650  22.810   3.500
  846BOLB   C1A20285  24.750  22.730   3.960
  846BOLB   C2A20286  24.680  23.040   4.300
  846BOLB   C3A20287  24.610  23.130   4.700
  846BOLB   C4A20288  24.860  23.380   4.980
  846BOLB   C1B20289  24.520  23.100   3.800
  846BOLB   C2B20290  24.180  23.170   4.130
  846BOLB   C3B20291  24.170  23.310   4.580
  846BOLB   C4B20292  24.170  22.960   4.940
  846BOLB   NC220293  26.460  25.130   4.330
  846BOLB   PO220294  26.030  25.170   4.270
  846BOLB   GL320295  25.780  25.060   4.690
  846BOLB   GL420296  25.490  25.180   4.640
  846BOLB   C1C20297  25.820  24.690   4.990
  846BOLB   C2C20298  25.430  24.440   5.020
  846BOLB   C3C20299  25.330  24.050   5.170
  846BOLB   C4C20300  25.030  23.740   5.240
  846BOLB   C1D20301  25.420  24.920   4.940
  846BOLB   C2D20302  25.230  24.930   5.160
  846BOLB   C3D20303  24.860  24.850   5.420
  846BOLB   C4D20304  25.010  24.830   5.960
  847BOLB   NC120305  13.000  16.120  18.950
  847BOLB   PO120306  13.280  15.950  19.330
  847BOLB   GL120307  13.350  16.050  19.780
  847BOLB   GL220308  13.420  16.380  19.870
  847BOLB   C1A20309  13.180  15.680  20.020
  847BOLB   C2A20310  12.980  15.430  20.270
  847BOLB   C3A20311  12.950  15.150  20.620
  847BOLB   C4A20312  12.780  14.800  20.870
  847BOLB   C1B20313  12.970  16.190  20.140
  847BOLB   C2B20314  12.820  15.940  20.450
  847BOLB   C3B20315  12.690  15.610  20.640
  847BOLB   C4B20316  12.510  15.250  20.390
  847BOLB   NC220317  12.780  12.600  21.750
  847BOLB   PO220318  12.720  12.740  22.180
  847BOLB   GL320319  12.940  13.060  21.880
  847BOLB   GL420320  12.610  13.270  21.960
  847BOLB   C1C20321  13.100  13.350  21.600
  847BOLB   C2C20322  13.050  13.710  21.330
  847BOLB   C3C20323  12.930  13.940  21.060
  847BOLB   C4C20324  12.680  14.400  20.900
  847BOLB   C1D20325  12.900  13.610  22.030
  847BOLB   C2D20326  13.220  13.810  21.850
  847BOLB   C3D20327  13.230  14.170  21.550
  847BOLB   C4D20328  13.180  14.570  21.200
  848BOLB   NC120329  25.180  20.570  14.040
  848BOLB   PO120330  25.500  20.220  14.100
  848BOLB   GL120331  25.980  20.030  14.030
  848BOLB   GL220332  26.240  20.410  13.980
  848BOLB   C1A20333  26.310  19.770  14.080
  848BOLB   C2A20334  26.780  19.790  14.260
  848BOLB   C3A20335  26.930  19.550  14.650
  848BOLB   C4A20336  27.380  19.510  14.760
  848BOLB   C1B20337  26.600  20.480  13.770
  848BOLB   C2B20338  26.830  20.390  13.370
  848BOLB   C3B20339  27.100  20.090  13.280
  848BOLB   C4B20340  27.150  19.690  13.380
  848BOLB   NC220341  29.050  17.910  14.150
  848BOLB   PO220342  28.720  17.630  14.160
  848BOLB   GL320343  28.530  17.990  14.390
  848BOLB   GL420344  28.760  18.200  14.460
  848BOLB   C1C20345  28.260  18.330  14.390
  848BOLB   C2C20346  27.910  18.190  14.600
  848BOLB   C3C20347  27.680  18.680  14.790
  848BOLB   C4C20348  27.540  19.120  14.920
  848BOLB   C1D20349  28.520  18.310  14.810
  848BOLB   C2D20350  28.220  18.480  14.900
  848BOLB   C3D20351  28.040  18.700  15.110
  848BOLB   C4D20352  27.670  18.840  15.290
  849BOLB   NC120353  25.510  26.620  14.360
  849BOLB   PO120354  25.670  26.980  14.270
  849BOLB   GL120355  26.020  26.850  14.410
  849BOLB   GL220356  26.080  26.590  14.390
  849BOLB   C1A20357  26.460  26.920  14.310
  849BOLB   C2A20358  26.910  26.770  14.300
  849BOLB   C3A20359  27.360  26.610  14.420
  849BOLB   C4A20360  27.810  26.540  14.620
  849BOLB   C1B20361  26.410  26.310  14.460
  849BOLB   C2B20362  26.830  26.300  14.590
  849BOLB   C3B20363  27.290  26.310  14.870
  849BOLB   C4B20364  27.470  26.650  15.140
  849BOLB   NC220365  30.240  27.810  14.280
  849BOLB   PO220366  29.960  27.530  14.570
  849BOLB   GL320367  29.620  27.300  14.750
  849BOLB   GL420368  29.320  27.440  14.780
  849BOLB   C1C20369  29.300  26.990  14.560
  849BOLB   C2C20370  28.980  26.740  14.650
  849BOLB   C3C20371  28.660  26.530  14.630
  849BOLB   C4C20372  28.210  26.560  14.710
  849BOLB   C1D20373  28.900  27.290  14.760
  849BOLB   C2D20374  28.520  26.980  14.810
  849BOLB   C3D20375  28.140  27.100  14.870
  849BOLB   C4D20376  27.780  27.030  14.760
  850BOLB   NC120377  20.850  16.110  17.970
  850BOLB   PO120378  20.950  15.800  18.190
  850BOLB   GL120379  20.900  15.450  18.570
  850BOLB   GL220380  20.610  15.160  18.550
  850BOLB   C1A20381  21.050  15.030  18.750
  850BOLB   C2A20382  21.040  14.670  19.000
  850BOLB   C3A20383  21.230  14.400  19.090
  850BOLB   C4A20384  21.560  14.230  19.420
  850BOLB   C1B20385  20.530  14.670  18.620
  850BOLB   C2B20386  20.690  14.300  18.740
  850BOLB   C3B20387  20.710  14.290  19.150
  850BOLB   C4B20388  20.800  14.280  19.630
  850BOLB   NC220389  23.470  13.410  21.250
  850BOLB   PO220390  23.370  13.420  20.690
  850BOLB   GL320391  22.920  13.590  20.620
  850BOLB   GL420392  22.920  13.440  20.250
  850BOLB   C1C20393  22.630  13.920  20.640
  850BOLB   C2C20394  22.260  14.090  20.370
  850BOLB   C3C20395  22.070  14.080  19.940
  850BOLB   C4C20396  21.920  14.350  19.750
  850BOLB   C1D20397  22.810  13.910  20.160
  850BOLB   C2D20398  22.740  14.340  20.340
  850BOLB   C3D20399  22.460  14.580  20.550
  850BOLB   C4D20400  22.290  14.400  20.910
  851BOLB   NC120401  24.500  14.570  20.360
  851BOLB   PO120402  24.760  14.730  20.070
  851BOLB   GL120403  24.600  15.030  19.850
  851BOLB   GL220404  24.280  14.910  20.050
  851BOLB   C1A20405  24.540  15.020  19.290
  851BOLB   C2A20406  24.280  15.300  19.090
  851BOLB   C3A20407  23.880  15.350  18.900
  851BOLB   C4A20408  23.570  15.470  18.600
  851BOLB   C1B20409  23.930  15.240  19.950
  851BOLB   C2B20410  23.530  15.510  19.940
  851BOLB   C3B20411  23.370  15.750  19.620
  851BOLB   C4B20412  23.140  15.910  19.390
  851BOLB   NC220413  22.180  16.400  16.980
  851BOLB   PO220414  22.480  16.640  17.140
  851BOLB   GL320415  22.640  16.170  17.140
  851BOLB   GL420416  22.600  15.950  16.940
  851BOLB   C1C20417  22.850  15.960  17.480
  851BOLB   C2C20418  22.900  15.810  17.810
  851BOLB   C3C20419  22.930  15.680  18.150
  851BOLB   C4C20420  23.170  15.460  18.370
  851BOLB   C1D20421  22.510  15.640  17.300
  851BOLB   C2D20422  22.810  15.410  17.420
  851BOLB   C3D20423  23.090  15.310  17.830
  851BOLB   C4D20424  23.180  14.980  18.180
  852BOLB   NC120425  24.380  19.430  16.980
  852BOLB   PO120426  24.760  19.130  16.840
  852BOLB   GL120427  24.930  18.870  17.000
  852BOLB   GL220428  24.990  18.640  16.760
  852BOLB   C1A20429  25.090  18.700  17.390
  852BOLB   C2A20430  25.470  18.480  17.480
  852BOLB   C3A20431  25.730  18.110  17.620
  852BOLB   C4A20432  26.120  18.140  17.750
  852BOLB   C1B20433  25.370  18.470  16.950
  852BOLB   C2B20434  25.780  18.500  16.880
  852BOLB   C3B20435  26.120  18.410  17.210
  852BOLB   C4B20436  26.440  18.180  17.270
  852BOLB   NC220437  28.560  18.510  18.210
  852BOLB   PO220438  28.550  18.560  18.580
  852BOLB   GL320439  28.150  18.380  18.360
  852BOLB   GL420440  28.080  18.250  18.740
  852BOLB   C1C20441  27.720  18.370  18.270
  852BOLB   C2C20442  27.290  18.370  18.300
  852BOLB   C3C20443  26.930  18.330  18.070
  852BOLB   C4C20444  26.480  18.180  17.870
  852BOLB   C1D20445  27.620  18.510  18.720
  852BOLB   C2D20446  27.480  18.840  18.820
  852BOLB   C3D20447  27.070  18.920  18.750
  852BOLB   C4D20448  26.750  18.790  18.400
  853BOLB   NC120449  16.310  13.240  16.110
  853BOLB   PO120450  16.240  12.940  16.330
  853BOLB   GL120451  16.210  12.600  16.580
  853BOLB   GL220452  16.480  12.570  16.920
  853BOLB   C1A20453  16.090  12.190  16.640
  853BOLB   C2A20454  16.180  11.720  16.770
  853BOLB   C3A20455  16.140  11.330  16.970
  853BOLB   C4A20456  15.900  11.000  16.990
  853BOLB   C1B20457  16.700  12.340  17.230
  853BOLB   C2B20458  16.710  12.080  17.570
  853BOLB   C3B20459  16.790  11.830  17.890
  853BOLB   C4B20460  16.770  11.620  18.250
  853BOLB   NC220461  15.200   8.960  18.320
  853BOLB   PO220462  14.960   9.310  18.380
  853BOLB   GL320463  14.900   9.700  18.110
  853BOLB   GL420464  14.590   9.780  17.930
  853BOLB   C1C20465  15.050  10.070  17.950
  853BOLB   C2C20466  15.320  10.300  17.900
  853BOLB   C3C20467  15.650  10.490  17.620
  853BOLB   C4C20468  15.850  10.760  17.350
  853BOLB   C1D20469  14.410  10.150  17.980
  853BOLB   C2D20470  14.440  10.630  18.040
  853BOLB   C3D20471  14.320  11.020  17.880
  853BOLB   C4D20472  14.280  11.410  17.740
  854BOLB   NC120473  23.500  17.350  12.160
  854BOLB   PO120474  24.040  17.340  12.340
  854BOLB   GL120475  24.250  16.840  12.140
  854BOLB   GL220476  24.210  16.520  12.220
  854BOLB   C1A20477  24.420  16.520  11.750
  854BOLB   C2A20478  24.770  16.530  11.460
  854BOLB   C3A20479  25.240  16.460  11.260
  854BOLB   C4A20480  25.530  16.140  10.900
  854BOLB   C1B20481  24.570  16.430  12.230
  854BOLB   C2B20482  24.950  16.120  12.220
  854BOLB   C3B20483  25.290  15.840  12.330
  854BOLB   C4B20484  25.490  15.420  12.330
  854BOLB   NC220485  27.020  14.900  10.410
  854BOLB   PO220486  27.220  15.080  10.060
  854BOLB   GL320487  26.840  15.280  10.060
  854BOLB   GL420488  26.810  15.540   9.810
  854BOLB   C1C20489  26.380  15.190  10.080
  854BOLB   C2C20490  25.950  15.130  10.150
  854BOLB   C3C20491  25.690  15.450  10.410
  854BOLB   C4C20492  25.380  15.720  10.610
  854BOLB   C1D20493  26.440  15.720   9.940
  854BOLB   C2D20494  26.040  15.630  10.060
  854BOLB   C3D20495  25.530  15.720  10.080
  854BOLB   C4D20496  25.070  15.910  10.130
  855BOLB   NC120497  25.990  23.920  10.690
  855BOLB   PO120498  25.980  23.590  10.380
  855BOLB   GL120499  26.290  23.840  10.290
  855BOLB   GL220500  26.340  24.040  10.100
  855BOLB   C1A20501  26.620  23.620  10.210
  855BOLB   C2A20502  26.790  23.390   9.900
  855BOLB   C3A20503  26.800  23.080   9.570
  855BOLB   C4A20504  27.010  22.690   9.490
  855BOLB   C1B20505  26.300  24.140   9.660
  855BOLB   C2B20506  26.480  24.330   9.310
  855BOLB   C3B20507  26.770  24.260   8.980
  855BOLB   C4B20508  27.180  24.340   8.850
  855BOLB   NC220509  29.210  22.280   8.410
  855BOLB   PO220510  28.870  22.250   8.330
  855BOLB   GL320511  28.560  22.320   8.660
  855BOLB   GL420512  28.250  22.270   8.670
  855BOLB   C1C20513  28.430  22.220   9.110
  855BOLB   C2C20514  28.230  22.220   9.490
  855BOLB   C3C20515  27.830  22.390   9.680
  855BOLB   C4C20516  27.420  22.520   9.670
  855BOLB   C1D20517  27.940  22.450   8.960
  855BOLB   C2D20518  27.760  22.810   8.890
  855BOLB   C3D20519  27.460  23.150   8.920
  855BOLB   C4D20520  27.050  23.130   9.080
  856BOLB   NC120521  16.550  10.530  21.050
  856BOLB   PO120522  16.230  10.900  21.080
  856BOLB   GL120523  16.350  11.310  20.870
  856BOLB   GL220524  16.340  11.760  20.820
  856BOLB   C1A20525  16.240  11.420  20.450
  856BOLB   C2A20526  16.080  11.500  20.030
  856BOLB   C3A20527  16.050  11.410  19.550
  856BOLB   C4A20528  16.260  11.380  19.200
  856BOLB   C1B20529  16.410  11.880  20.380
  856BOLB   C2B20530  16.260  12.130  20.050
  856BOLB   C3B20531  16.260  12.520  19.740
  856BOLB   C4B20532  16.240  12.940  19.580
  856BOLB   NC220533  16.480   9.450  19.010
  856BOLB   PO220534  16.100   9.680  19.190
  856BOLB   GL320535  16.040  10.090  19.220
  856BOLB   GL420536  16.230  10.200  19.460
  856BOLB   C1C20537  15.720  10.250  18.930
  856BOLB   C2C20538  15.730  10.620  18.720
  856BOLB   C3C20539  15.840  11.100  18.690
  856BOLB   C4C20540  16.050  11.430  18.870
  856BOLB   C1D20541  16.360  10.490  19.140
  856BOLB   C2D20542  16.200  10.470  18.740
  856BOLB   C3D20543  16.100  10.810  18.370
  856BOLB   C4D20544  15.980  11.140  18.220
  857BOLB   NC120545  14.800  11.840  15.470
  857BOLB   PO120546  14.690  11.930  15.840
  857BOLB   GL120547  14.470  11.750  16.160
  857BOLB   GL220548  14.760  11.530  16.320
  857BOLB   C1A20549  14.070  11.420  16.370
  857BOLB   C2A20550  13.760  11.530  16.720
  857BOLB   C3A20551  13.430  11.430  16.830
  857BOLB   C4A20552  13.080  11.290  16.940
  857BOLB   C1B20553  14.510  11.500  16.620
  857BOLB   C2B20554  14.150  11.340  16.870
  857BOLB   C3B20555  13.800  11.080  16.980
  857BOLB   C4B20556  13.670  10.640  16.840
  857BOLB   NC220557  11.590   9.670  18.150
  857BOLB   PO220558  11.630   9.660  17.610
  857BOLB   GL320559  12.010   9.720  17.380
  857BOLB   GL420560  11.940  10.030  17.420
  857BOLB   C1C20561  12.200   9.880  16.990
  857BOLB   C2C20562  12.430  10.260  16.940
  857BOLB   C3C20563  12.520  10.640  16.740
  857BOLB   C4C20564  12.830  10.920  16.910
  857BOLB   C1D20565  12.190  10.430  17.350
  857BOLB   C2D20566  12.290  10.890  17.230
  857BOLB   C3D20567  12.480  11.230  17.180
  857BOLB   C4D20568  12.440  11.520  16.840
  858BOLB   NC120569  18.790  13.760  16.930
  858BOLB   PO120570  18.350  13.790  17.040
  858BOLB   GL120571  18.600  13.420  17.260
  858BOLB   GL220572  18.950  13.490  17.260
  858BOLB   C1A20573  18.750  13.000  17.240
  858BOLB   C2A20574  18.950  12.560  17.440
  858BOLB   C3A20575  19.240  12.240  17.340
  858BOLB   C4A20576  19.230  11.850  17.480
  858BOLB   C1B20577  18.940  13.340  17.580
  858BOLB   C2B20578  18.860  12.960  17.830
  858BOLB   C3B20579  18.810  12.540  18.240
  858BOLB   C4B20580  18.490  12.160  18.270
  858BOLB   NC220581  20.010   9.760  18.840
  858BOLB   PO220582  19.590  10.040  18.850
  858BOLB   GL320583  19.280  10.270  18.710
  858BOLB   GL420584  19.230  10.580  18.950
  858BOLB   C1C20585  19.230  10.690  18.460
  858BOLB   C2C20586  19.140  11.170  18.320
  858BOLB   C3C20587  19.070  11.490  18.130
  858BOLB   C4C20588  19.280  11.590  17.760
  858BOLB   C1D20589  19.440  11.010  18.730
  858BOLB   C2D20590  19.500  11.480  18.610
  858BOLB   C3D20591  19.850  11.760  18.620
  858BOLB   C4D20592  20.050  12.050  18.240
  859BOLB   NC120593  25.490  29.950   6.790
  859BOLB   PO120594  25.250  30.020   6.530
  859BOLB   GL120595  24.800  29.740   6.620
  859BOLB   GL220596  24.960  29.420   6.540
  859BOLB   C1A20597  24.390  29.710   6.690
  859BOLB   C2A20598  23.950  29.720   6.650
  859BOLB   C3A20599  23.610  29.390   6.600
  859BOLB   C4A20600  23.370  29.210   6.830
  859BOLB   C1B20601  24.770  29.210   6.870
  859BOLB   C2B20602  24.730  28.820   7.060
  859BOLB   C3B20603  24.870  28.430   6.940
  859BOLB   C4B20604  25.170  28.190   6.810
  859BOLB   NC220605  22.340  30.150   5.210
  859BOLB   PO220606  22.270  30.420   5.550
  859BOLB   GL320607  22.270  30.120   5.860
  859BOLB   GL420608  22.170  29.780   5.740
  859BOLB   C1C20609  22.300  29.920   6.260
  859BOLB   C2C20610  22.410  29.520   6.420
  859BOLB   C3C20611  22.600  29.350   6.780
  859BOLB   C4C20612  22.980  29.160   6.920
  859BOLB   C1D20613  21.880  29.660   5.940
  859BOLB   C2D20614  21.830  29.330   6.250
  859BOLB   C3D20615  21.810  28.850   6.280
  859BOLB   C4D20616  21.790  28.360   6.330
  860BOLB   NC120617  24.930  15.220  20.160
  860BOLB   PO120618  25.330  15.430  20.020
  860BOLB   GL120619  25.260  15.810  19.700
  860BOLB   GL220620  25.530  15.980  19.690
  860BOLB   C1A20621  25.030  15.860  19.340
  860BOLB   C2A20622  24.970  16.000  18.980
  860BOLB   C3A20623  24.750  16.350  18.810
  860BOLB   C4A20624  24.690  16.910  18.830
  860BOLB   C1B20625  25.230  16.280  19.570
  860BOLB   C2B20626  24.850  16.390  19.620
  860BOLB   C3B20627  24.460  16.730  19.520
  860BOLB   C4B20628  24.190  16.820  19.170
  860BOLB   NC220629  26.880  16.040  18.720
  860BOLB   PO220630  27.070  16.240  19.070
  860BOLB   GL320631  26.860  16.570  18.840
  860BOLB   GL420632  26.770  16.770  19.130
  860BOLB   C1C20633  26.460  16.670  18.750
  860BOLB   C2C20634  26.080  16.790  18.570
  860BOLB   C3C20635  25.670  16.820  18.770
  860BOLB   C4C20636  25.190  16.990  18.830
  860BOLB   C1D20637  26.390  16.800  19.170
  860BOLB   C2D20638  25.960  16.700  19.280
  860BOLB   C3D20639  25.600  16.700  19.390
  860BOLB   C4D20640  25.190  16.690  19.300
  861BOLB   NC120641  25.770  24.850  16.920
  861BOLB   PO120642  25.450  24.840  17.220
  861BOLB   GL120643  25.730  25.070  17.460
  861BOLB   GL220644  25.950  24.900  17.490
  861BOLB   C1A20645  25.840  25.190  17.880
  861BOLB   C2A20646  26.260  25.340  18.140
  861BOLB   C3A20647  26.570  25.600  18.190
  861BOLB   C4A20648  26.860  25.930  18.310
  861BOLB   C1B20649  26.340  25.160  17.680
  861BOLB   C2B20650  26.340  25.600  17.690
  861BOLB   C3B20651  26.320  25.820  17.470
  861BOLB   C4B20652  26.080  26.060  17.220
  861BOLB   NC220653  29.220  25.300  18.770
  861BOLB   PO220654  29.280  25.650  18.880
  861BOLB   GL320655  28.780  25.490  18.900
  861BOLB   GL420656  28.720  25.400  18.650
  861BOLB   C1C20657  28.400  25.710  18.940
  861BOLB   C2C20658  28.040  25.980  18.900
  861BOLB   C3C20659  27.660  26.090  18.680
  861BOLB   C4C20660  27.310  26.060  18.350
  861BOLB   C1D20661  28.440  25.320  18.410
  861BOLB   C2D20662  28.170  25.100  18.040
  861BOLB   C3D20663  27.840  24.810  17.820
  861BOLB   C4D20664  27.590  24.690  17.580
  862BOLB   NC120665  22.740  16.460  10.050
  862BOLB   PO120666  22.900  16.410  10.350
  862BOLB   GL120667  23.140  16.050  10.280
  862BOLB   GL220668  23.170  15.790  10.520
  862BOLB   C1A20669  23.440  15.700  10.130
  862BOLB   C2A20670  23.660  15.460   9.920
  862BOLB   C3A20671  24.100  15.430  10.030
  862BOLB   C4A20672  24.550  15.590  10.140
  862BOLB   C1B20673  23.450  15.330  10.510
  862BOLB   C2B20674  23.750  15.100  10.270
  862BOLB   C3B20675  23.840  14.610  10.130
  862BOLB   C4B20676  23.690  14.410   9.780
  862BOLB   NC220677  26.320  13.780  10.570
  862BOLB   PO220678  26.050  14.020  10.700
  862BOLB   GL320679  25.810  14.370  10.490
  862BOLB   GL420680  25.890  14.710  10.500
  862BOLB   C1C20681  25.390  14.490  10.500
  862BOLB   C2C20682  25.100  14.790  10.710
  862BOLB   C3C20683  25.110  15.230  10.700
  862BOLB   C4C20684  24.940  15.560  10.450
  862BOLB   C1D20685  25.550  14.940  10.710
  862BOLB   C2D20686  25.350  15.000  11.100
  862BOLB   C3D20687  25.180  15.230  11.480
  862BOLB   C4D20688  24.860  15.500  11.520
  863BOLB   NC120689  15.840  13.100  17.180
  863BOLB   PO120690  15.580  13.430  17.110
  863BOLB   GL120691  15.250  13.460  17.390
  863BOLB   GL220692  15.280  13.720  17.510
  863BOLB   C1A20693  15.140  13.170  17.660
  863BOLB   C2A20694  15.180  12.990  18.130
  863BOLB   C3A20695  15.080  12.670  18.370
  863BOLB   C4A20696  15.150  12.390  18.720
  863BOLB   C1B20697  15.180  13.540  17.930
  863BOLB   C2B20698  14.950  13.550  18.190
  863BOLB   C3B20699  14.740  13.230  18.370
  863BOLB   C4B20700  14.560  13.020  18.700
  863BOLB   NC220701  14.730  10.300  20.390
  863BOLB   PO220702  14.890  10.680  20.310
  863BOLB   GL320703  15.000  10.860  19.970
  863BOLB   GL420704  15.250  10.790  19.750
  863BOLB   C1C20705  15.050  11.300  19.790
  863BOLB   C2C20706  15.290  11.510  19.470
  863BOLB   C3C20707  15.370  11.910  19.360
  863BOLB   C4C20708  15.360  12.090  19.040
  863BOLB   C1D20709  14.960  10.900  19.410
  863BOLB   C2D20710  14.920  11.300  19.230
  863BOLB   C3D20711  15.110  11.550  18.960
  863BOLB   C4D20712  14.910  11.900  18.810
  864BOLB   NC120713  23.600  17.270  16.990
  864BOLB   PO120714  23.300  17.380  17.210
  864BOLB   GL120715  23.480  17.060  17.460
  864BOLB   GL220716  23.400  16.770  17.410
  864BOLB   C1A20717  23.770  16.950  17.760
  864BOLB   C2A20718  24.140  16.970  17.550
  864BOLB   C3A20719  24.630  16.960  17.520
  864BOLB   C4A20720  25.130  17.190  17.670
  864BOLB   C1B20721  23.510  16.360  17.600
  864BOLB   C2B20722  23.950  16.400  17.850
  864BOLB   C3B20723  24.180  16.670  17.990
  864BOLB   C4B20724  24.540  16.620  18.230
  864BOLB   NC220725  27.380  16.320  18.070
  864BOLB   PO220726  27.220  16.290  17.630
  864BOLB   GL320727  26.880  16.330  17.790
  864BOLB   GL420728  26.680  16.120  17.670
  864BOLB   C1C20729  26.500  16.490  17.930
  864BOLB   C2C20730  26.220  16.720  18.070
  864BOLB   C3C20731  25.930  16.940  17.880
  864BOLB   C4C20732  25.590  17.090  17.750
  864BOLB   C1D20733  26.400  15.890  17.390
  864BOLB   C2D20734  26.210  15.660  16.910
  864BOLB   C3D20735  26.170  15.630  16.520
  864BOLB   C4D20736  25.790  15.810  16.240
  865BOLB   NC120737  25.810  24.270  13.600
  865BOLB   PO120738  26.050  24.500  13.260
  865BOLB   GL120739  26.370  24.710  13.120
  865BOLB   GL220740  26.290  25.100  13.010
  865BOLB   C1A20741  26.760  24.870  12.960
  865BOLB   C2A20742  27.170  25.160  13.140
  865BOLB   C3A20743  27.460  25.480  13.110
  865BOLB   C4A20744  27.760  25.590  13.350
  865BOLB   C1B20745  26.470  25.240  12.690
  865BOLB   C2B20746  26.760  25.080  12.420
  865BOLB   C3B20747  27.140  25.230  12.250
  865BOLB   C4B20748  27.480  25.130  11.990
  865BOLB   NC220749  30.050  26.100  13.080
  865BOLB   PO220750  30.140  25.800  13.440
  865BOLB   GL320751  29.870  25.580  13.360
  865BOLB   GL420752  29.600  25.930  13.420
  865BOLB   C1C20753  29.460  25.510  13.220
  865BOLB   C2C20754  29.020  25.490  13.300
  865BOLB   C3C20755  28.620  25.650  13.410
  865BOLB   C4C20756  28.160  25.570  13.540
  865BOLB   C1D20757  29.240  26.110  13.380
  865BOLB   C2D20758  28.850  26.140  13.350
  865BOLB   C3D20759  28.370  26.170  13.300
  865BOLB   C4D20760  27.940  26.410  13.150
  866BOLB   NC120761  25.650  24.930  22.630
  866BOLB   PO120762  25.520  25.330  22.330
  866BOLB   GL120763  25.450  25.280  21.960
  866BOLB   GL220764  25.720  25.480  21.740
  866BOLB   C1A20765  25.290  25.000  21.640
  866BOLB   C2A20766  25.170  24.690  21.340
  866BOLB   C3A20767  25.060  24.900  20.910
  866BOLB   C4A20768  25.040  24.720  20.540
  866BOLB   C1B20769  25.480  25.430  21.360
  866BOLB   C2B20770  25.160  25.430  21.030
  866BOLB   C3B20771  24.860  25.570  20.850
  866BOLB   C4B20772  24.570  25.810  20.760
  866BOLB   NC220773  23.820  25.110  18.720
  866BOLB   PO220774  23.480  24.890  18.670
  866BOLB   GL320775  23.510  25.060  19.080
  866BOLB   GL420776  23.430  24.940  19.240
  866BOLB   C1C20777  23.990  25.090  19.280
  866BOLB   C2C20778  24.320  25.040  19.660
  866BOLB   C3C20779  24.630  25.080  19.980
  866BOLB   C4C20780  24.830  24.760  20.230
  866BOLB   C1D20781  23.610  25.100  19.620
  866BOLB   C2D20782  23.940  25.320  19.750
  866BOLB   C3D20783  24.340  25.460  19.900
  866BOLB   C4D20784  24.410  25.540  20.400
  867BOLB   NC120785  30.010  20.070  15.850
  867BOLB   PO120786  29.840  19.710  16.210
  867BOLB   GL120787  29.490  20.060  16.110
  867BOLB   GL220788  29.380  20.280  16.480
  867BOLB   C1A20789  29.280  20.440  15.980
  867BOLB   C2A20790  28.920  20.740  15.780
  867BOLB   C3A20791  28.720  21.120  15.890
  867BOLB   C4A20792  28.360  21.420  15.890
  867BOLB   C1B20793  29.120  20.680  16.430
  867BOLB   C2B20794  28.680  20.780  16.470
  867BOLB   C3B20795  28.340  20.930  16.220
  867BOLB   C4B20796  27.890  20.880  16.090
  867BOLB   NC220797  26.210  22.470  15.360
  867BOLB   PO220798  26.310  22.840  15.600
  867BOLB   GL320799  26.480  22.490  15.770
  867BOLB   GL420800  26.800  22.700  15.720
  867BOLB   C1C20801  26.710  22.220  16.040
  867BOLB   C2C20802  27.110  22.010  16.170
  867BOLB   C3C20803  27.460  21.740  16.100
  867BOLB   C4C20804  27.880  21.510  15.950
  867BOLB   C1D20805  27.180  22.440  15.710
  867BOLB   C2D20806  27.490  22.320  15.980
  867BOLB   C3D20807  27.840  22.390  16.320
  867BOLB   C4D20808  27.950  22.270  16.720
  868BOLB   NC120809  13.480  14.260  17.850
  868BOLB   PO120810  13.720  14.540  18.110
  868BOLB   GL120811  13.780  14.170  18.350
  868BOLB   GL220812  13.590  13.880  18.350
  868BOLB   C1A20813  14.040  13.980  18.550
  868BOLB   C2A20814  14.130  13.690  18.830
  868BOLB   C3A20815  14.170  13.260  19.060
  868BOLB   C4A20816  14.500  12.780  19.130
  868BOLB   C1B20817  13.660  13.750  18.730
  868BOLB   C2B20818  13.420  13.350  18.720
  868BOLB   C3B20819  13.130  13.190  18.980
  868BOLB   C4B20820  12.810  13.220  19.310
  868BOLB   NC220821  14.490  11.370  20.670
  868BOLB   PO220822  14.460  11.730  20.490
  868BOLB   GL320823  14.490  11.560  20.120
  868BOLB   GL420824  14.840  11.670  20.070
  868BOLB   C1C20825  14.540  11.570  19.680
  868BOLB   C2C20826  14.870  11.740  19.440
  868BOLB   C3C20827  14.920  12.240  19.310
  868BOLB   C4C20828  14.890  12.530  19.090
  868BOLB   C1D20829  14.800  12.070  19.800
  868BOLB   C2D20830  14.740  12.520  19.790
  868BOLB   C3D20831  14.560  12.920  19.570
  868BOLB   C4D20832  14.610  13.350  19.320
  869BOLB   NC120833  20.650  17.060  19.020
  869BOLB   PO120834  20.240  17.090  19.200
  869BOLB   GL120835  20.260  16.780  19.520
  869BOLB   GL220836  20.500  16.580  19.320
  869BOLB   C1A20837  20.510  16.850  19.890
  869BOLB   C2A20838  20.720  16.550  20.110
  869BOLB   C3A20839  20.790  16.100  20.250
  869BOLB   C4A20840  20.880  15.720  20.480
  869BOLB   C1B20841  20.750  16.400  19.610
  869BOLB   C2B20842  20.910  15.930  19.840
  869BOLB   C3B20843  21.020  15.630  20.030
  869BOLB   C4B20844  21.390  15.460  20.180
  869BOLB   NC220845  21.270  15.310  23.060
  869BOLB   PO220846  21.620  15.320  22.780
  869BOLB   GL320847  21.150  15.450  22.370
  869BOLB   GL420848  20.930  15.760  22.490
  869BOLB   C1C20849  20.980  15.770  22.000
  869BOLB   C2C20850  20.910  15.830  21.480
  869BOLB   C3C20851  21.020  15.440  21.170
  869BOLB   C4C20852  21.030  15.470  20.730
  869BOLB   C1D20853  20.760  16.140  22.270
  869BOLB   C2D20854  20.690  16.570  22.030
  869BOLB   C3D20855  20.640  17.000  21.980
  869BOLB   C4D20856  20.780  17.330  22.130
  870BOLB   NC120857  20.820  16.200  18.560
  870BOLB   PO120858  21.220  16.280  18.330
  870BOLB   GL120859  21.300  16.180  18.680
  870BOLB   GL220860  21.340  16.310  18.950
  870BOLB   C1A20861  21.280  15.840  18.840
  870BOLB   C2A20862  21.250  15.440  19.000
  870BOLB   C3A20863  21.220  15.080  19.360
  870BOLB   C4A20864  21.320  14.670  19.490
  870BOLB   C1B20865  21.690  16.020  19.190
  870BOLB   C2B20866  21.830  15.520  19.360
  870BOLB   C3B20867  21.690  15.160  19.370
  870BOLB   C4B20868  21.850  14.820  19.530
  870BOLB   NC220869  21.870  13.710  21.860
  870BOLB   PO220870  22.270  13.530  21.760
  870BOLB   GL320871  22.060  13.880  21.430
  870BOLB   GL420872  22.360  13.920  21.100
  870BOLB   C1C20873  21.800  14.110  21.030
  870BOLB   C2C20874  21.870  14.270  20.620
  870BOLB   C3C20875  21.740  14.330  20.220
  870BOLB   C4C20876  21.460  14.550  19.840
  870BOLB   C1D20877  22.070  13.720  20.680
  870BOLB   C2D20878  21.870  13.800  20.300
  870BOLB   C3D20879  21.600  13.930  19.930
  870BOLB   C4D20880  21.200  14.180  20.010
  871BOLB   NC120881  27.040  23.110  21.670
  871BOLB   PO120882  26.730  23.310  21.340
  871BOLB   GL120883  26.540  23.090  21.110
  871BOLB   GL220884  26.300  22.950  21.170
  871BOLB   C1A20885  26.270  23.240  20.780
  871BOLB   C2A20886  25.920  23.450  20.630
  871BOLB   C3A20887  25.450  23.570  20.660
  871BOLB   C4A20888  25.190  23.640  20.980
  871BOLB   C1B20889  26.270  22.700  20.900
  871BOLB   C2B20890  25.910  22.600  20.790
  871BOLB   C3B20891  25.760  22.270  20.520
  871BOLB   C4B20892  25.350  22.260  20.200
  871BOLB   NC220893  25.070  23.950  23.040
  871BOLB   PO220894  25.440  24.050  22.870
  871BOLB   GL320895  25.000  23.970  22.580
  871BOLB   GL420896  24.660  24.150  22.690
  871BOLB   C1C20897  24.870  24.100  22.160
  871BOLB   C2C20898  24.550  24.220  21.730
  871BOLB   C3C20899  24.560  24.060  21.280
  871BOLB   C4C20900  24.840  23.850  21.060
  871BOLB   C1D20901  24.330  24.230  22.440
  871BOLB   C2D20902  23.940  24.180  22.440
  871BOLB   C3D20903  23.610  24.210  22.050
  871BOLB   C4D20904  23.270  24.250  21.650
  872BOLB   NC120905  20.310  26.070  18.770
  872BOLB   PO120906  20.470  26.400  19.100
  872BOLB   GL120907  20.430  26.650  19.530
  872BOLB   GL220908  20.560  26.930  19.380
  872BOLB   C1A20909  20.560  26.810  19.940
  872BOLB   C2A20910  20.740  26.960  20.330
  872BOLB   C3A20911  21.060  27.280  20.540
  872BOLB   C4A20912  21.070  27.460  20.950
  872BOLB   C1B20913  20.890  27.380  19.600
  872BOLB   C2B20914  20.920  27.750  19.860
  872BOLB   C3B20915  21.250  28.140  19.910
  872BOLB   C4B20916  21.240  28.620  20.100
  872BOLB   NC220917  21.820  29.170  22.500
  872BOLB   PO220918  22.090  28.800  22.390
  872BOLB   GL320919  21.900  28.400  22.180
  872BOLB   GL420920  21.750  28.650  22.020
  872BOLB   C1C20921  21.790  28.140  21.850
  872BOLB   C2C20922  21.810  27.710  21.670
  872BOLB   C3C20923  21.700  27.390  21.430
  872BOLB   C4C20924  21.410  27.570  21.180
  872BOLB   C1D20925  21.510  28.790  21.790
  872BOLB   C2D20926  21.110  28.820  21.500
  872BOLB   C3D20927  20.910  28.660  21.210
  872BOLB   C4D20928  20.520  28.340  21.040
  873BOLB   NC120929  27.530  22.090   5.800
  873BOLB   PO120930  27.300  22.560   5.860
  873BOLB   GL120931  27.180  22.710   6.220
  873BOLB   GL220932  27.440  22.560   6.510
  873BOLB   C1A20933  27.030  23.010   6.580
  873BOLB   C2A20934  26.910  23.260   6.930
  873BOLB   C3A20935  26.820  23.540   7.140
  873BOLB   C4A20936  26.670  23.980   7.220
  873BOLB   C1B20937  27.290  22.220   6.780
  873BOLB   C2B20938  26.960  22.220   7.140
  873BOLB   C3B20939  26.520  22.070   7.120
  873BOLB   C4B20940  26.180  22.340   7.180
  873BOLB   NC220941  27.740  23.600   6.460
  873BOLB   PO220942  27.970  23.370   6.690
  873BOLB   GL320943  27.810  23.540   6.970
  873BOLB   GL420944  27.780  23.280   7.200
  873BOLB   C1C20945  27.670  23.850   7.320
  873BOLB   C2C20946  27.440  24.180   7.460
  873BOLB   C3C20947  27.180  24.430   7.370
  873BOLB   C4C20948  26.810  24.350   7.390
  873BOLB   C1D20949  27.920  23.200   7.550
  873BOLB   C2D20950  27.930  22.880   7.960
  873BOLB   C3D20951  27.720  22.980   8.380
  873BOLB   C4D20952  27.350  22.870   8.510
  874BOLB   NC120953  29.840  20.410  12.210
  874BOLB   PO120954  30.050  20.850  12.530
  874BOLB   GL120955  29.590  20.950  12.790
  874BOLB   GL220956  29.460  20.750  13.070
  874BOLB   C1A20957  29.220  21.140  12.910
  874BOLB   C2A20958  28.900  21.350  13.120
  874BOLB   C3A20959  28.690  21.720  13.030
  874BOLB   C4A20960  28.440  22.100  13.180
  874BOLB   C1B20961  28.990  20.740  13.080
  874BOLB   C2B20962  28.600  20.920  13.140
  874BOLB   C3B20963  28.420  21.240  13.340
  874BOLB   C4B20964  28.050  21.400  13.550
  874BOLB   NC220965  30.760  22.460  14.010
  874BOLB   PO220966  30.450  22.060  14.080
  874BOLB   GL320967  30.000  22.360  13.950
  874BOLB   GL420968  30.030  22.530  13.640
  874BOLB   C1C20969  29.740  22.090  13.770
  874BOLB   C2C20970  29.360  22.120  13.740
  874BOLB   C3C20971  28.960  22.140  13.670
  874BOLB   C4C20972  28.560  22.290  13.580
  874BOLB   C1D20973  29.580  22.630  13.760
  874BOLB   C2D20974  29.140  22.730  13.710
  874BOLB   C3D20975  28.780  22.660  13.380
  874BOLB   C4D20976  28.680  22.720  13.000
  875BOLB   NC120977  18.810  14.840   8.010
  875BOLB   PO120978  19.120  14.780   7.600
  875BOLB   GL120979  19.090  14.610   7.230
  875BOLB   GL220980  19.390  14.690   7.130
  875BOLB   C1A20981  19.110  14.230   7.050
  875BOLB   C2A20982  19.370  13.900   7.040
  875BOLB   C3A20983  19.520  13.590   6.730
  875BOLB   C4A20984  19.270  13.330   6.400
  875BOLB   C1B20985  19.590  14.340   6.980
  875BOLB   C2B20986  19.850  13.880   6.980
  875BOLB   C3B20987  19.990  13.450   6.880
  875BOLB   C4B20988  19.850  13.260   6.580
  875BOLB   NC220989  20.780  12.410   4.960
  875BOLB   PO220990  20.460  12.080   4.910
  875BOLB   GL320991  20.230  12.380   5.110
  875BOLB   GL420992  20.400  12.380   5.410
  875BOLB   C1C20993  20.110  12.780   5.370
  875BOLB   C2C20994  20.140  13.010   5.790
  875BOLB   C3C20995  19.890  13.050   6.030
  875BOLB   C4C20996  19.560  13.080   6.260
  875BOLB   C1D20997  20.370  12.480   5.720
  875BOLB   C2D20998  20.250  12.690   6.100
  875BOLB   C3D20999  19.980  12.740   6.390
  875BOLB   C4D21000  19.950  12.820   6.830
  876BOLB   NC121001  26.970  14.220  12.960
  876BOLB   PO121002  26.710  14.140  12.590
  876BOLB   GL121003  26.390  13.960  12.970
  876BOLB   GL221004  26.540  14.130  13.170
  876BOLB   C1A21005  25.980  14.120  12.840
  876BOLB   C2A21006  25.610  14.300  12.980
  876BOLB   C3A21007  25.470  14.660  13.020
  876BOLB   C4A21008  25.580  15.090  12.940
  876BOLB   C1B21009  26.230  14.260  13.410
  876BOLB   C2B21010  25.960  14.710  13.490
  876BOLB   C3B21011  25.660  15.050  13.470
  876BOLB   C4B21012  25.670  15.470  13.720
  876BOLB   NC221013  27.520  13.890  13.720
  876BOLB   PO221014  27.350  14.290  13.490
  876BOLB   GL321015  27.100  14.620  13.320
  876BOLB   GL421016  26.820  14.500  13.400
  876BOLB   C1C21017  26.870  15.010  13.470
  876BOLB   C2C21018  26.500  15.360  13.410
  876BOLB   C3C21019  26.100  15.390  13.440
  876BOLB   C4C21020  25.910  15.290  13.110
  876BOLB   C1D21021  26.500  14.710  13.260
  876BOLB   C2D21022  26.280  14.980  13.110
  876BOLB   C3D21023  26.240  14.990  12.630
  876BOLB   C4D21024  26.220  14.670  12.310
  877BOLB   NC121025  26.920  23.920  14.410
  877BOLB   PO121026  26.980  23.440  14.290
  877BOLB   GL121027  27.170  23.690  14.020
  877BOLB   GL221028  27.050  23.780  13.740
  877BOLB   C1A21029  27.620  23.810  14.120
  877BOLB   C2A21030  28.010  23.720  14.240
  877BOLB   C3A21031  28.150  23.340  13.940
  877BOLB   C4A21032  28.320  23.230  13.630
  877BOLB   C1B21033  27.400  24.010  13.600
  877BOLB   C2B21034  27.960  23.830  13.740
  877BOLB   C3B21035  28.420  23.780  13.950
  877BOLB   C4B21036  28.820  23.550  13.920
  877BOLB   NC221037  30.710  24.140  14.790
  877BOLB   PO221038  30.390  23.780  14.600
  877BOLB   GL321039  30.020  23.540  14.480
  877BOLB   GL421040  29.890  23.280  14.590
  877BOLB   C1C21041  29.680  23.460  14.120
  877BOLB   C2C21042  29.400  23.210  13.990
  877BOLB   C3C21043  28.910  23.010  14.000
  877BOLB   C4C21044  28.690  23.100  13.620
  877BOLB   C1D21045  29.450  23.170  14.450
  877BOLB   C2D21046  29.050  23.310  14.430
  877BOLB   C3D21047  28.850  23.660  14.480
  877BOLB   C4D21048  28.450  23.830  14.450
  878BOLB   NC121049  24.110  17.470  15.130
  878BOLB   PO121050  24.160  17.100  15.160
  878BOLB   GL121051  24.420  16.730  15.190
  878BOLB   GL221052  24.640  16.670  14.920
  878BOLB   C1A21053  24.540  16.220  15.080
  878BOLB   C2A21054  24.710  16.130  14.780
  878BOLB   C3A21055  25.020  15.820  14.570
  878BOLB   C4A21056  25.350  15.520  14.480
  878BOLB   C1B21057  25.030  16.460  14.990
  878BOLB   C2B21058  25.390  16.310  15.050
  878BOLB   C3B21059  25.690  16.120  15.300
  878BOLB   C4B21060  25.790  15.990  15.710
  878BOLB   NC221061  26.600  13.240  13.450
  878BOLB   PO221062  26.630  13.640  13.430
  878BOLB   GL321063  26.430  13.870  13.670
  878BOLB   GL421064  26.580  14.140  13.840
  878BOLB   C1C21065  26.050  14.050  13.850
  878BOLB   C2C21066  25.810  14.520  13.910
  878BOLB   C3C21067  25.800  15.050  14.010
  878BOLB   C4C21068  25.540  15.250  14.240
  878BOLB   C1D21069  26.320  14.520  13.810
  878BOLB   C2D21070  26.330  14.960  13.810
  878BOLB   C3D21071  26.320  15.350  13.920
  878BOLB   C4D21072  26.100  15.700  13.920
  879BOLB   NC121073  23.940  32.080  17.860
  879BOLB   PO121074  24.210  32.110  17.560
  879BOLB   GL121075  24.170  31.900  17.170
  879BOLB   GL221076  23.890  31.980  17.040
  879BOLB   C1A21077  23.850  31.520  16.950
  879BOLB   C2A21078  23.590  31.180  16.910
  879BOLB   C3A21079  23.440  30.960  16.580
  879BOLB   C4A21080  23.410  30.600  16.700
  879BOLB   C1B21081  23.650  31.920  16.610
  879BOLB   C2B21082  23.270  31.910  16.460
  879BOLB   C3B21083  22.810  31.790  16.310
  879BOLB   C4B21084  22.400  31.900  16.540
  879BOLB   NC221085  24.760  31.840  17.910
  879BOLB   PO221086  24.320  31.810  17.990
  879BOLB   GL321087  24.410  31.440  17.870
  879BOLB   GL421088  24.510  31.260  18.110
  879BOLB   C1C21089  24.100  31.420  17.470
  879BOLB   C2C21090  23.790  31.180  17.340
  879BOLB   C3C21091  23.770  30.790  17.210
  879BOLB   C4C21092  23.680  30.460  16.920
  879BOLB   C1D21093  24.370  30.890  18.190
  879BOLB   C2D21094  24.360  30.660  18.530
  879BOLB   C3D21095  24.200  30.570  18.930
  879BOLB   C4D21096  23.960  30.230  19.000
  880BOLB   NC121097  23.900  18.180   9.880
  880BOLB   PO121098  24.320  18.300  10.110
  880BOLB   GL121099  24.590  18.510   9.740
  880BOLB   GL221100  24.790  18.700   9.940
  880BOLB   C1A21101  24.990  18.610   9.500
  880BOLB   C2A21102  25.230  18.450   9.260
  880BOLB   C3A21103  25.310  18.150   9.000
  880BOLB   C4A21104  25.330  18.070   8.570
  880BOLB   C1B21105  25.170  18.310   9.890
  880BOLB   C2B21106  25.580  18.240  10.030
  880BOLB   C3B21107  25.690  17.820  10.130
  880BOLB   C4B21108  26.040  17.690  10.450
  880BOLB   NC221109  27.600  16.980   8.650
  880BOLB   PO221110  27.570  16.890   8.140
  880BOLB   GL321111  27.240  17.130   8.220
  880BOLB   GL421112  27.050  17.230   8.460
  880BOLB   C1C21113  26.960  17.570   8.170
  880BOLB   C2C21114  26.500  17.650   8.060
  880BOLB   C3C21115  26.120  17.700   8.300
  880BOLB   C4C21116  25.680  17.810   8.350
  880BOLB   C1D21117  26.590  17.280   8.500
  880BOLB   C2D21118  26.190  17.240   8.610
  880BOLB   C3D21119  25.910  17.180   8.830
  880BOLB   C4D21120  25.630  16.800   9.100
  881BOLB   NC121121  18.230  30.070  13.450
  881BOLB   PO121122  18.370  29.830  13.810
  881BOLB   GL121123  18.170  30.310  13.880
  881BOLB   GL221124  18.200  30.630  13.690
  881BOLB   C1A21125  18.300  30.660  14.180
  881BOLB   C2A21126  18.210  31.080  14.440
  881BOLB   C3A21127  18.150  31.470  14.770
  881BOLB   C4A21128  18.160  31.920  14.800
  881BOLB   C1B21129  18.230  31.040  13.480
  881BOLB   C2B21130  18.100  31.390  13.320
  881BOLB   C3B21131  17.680  31.600  13.460
  881BOLB   C4B21132  17.560  31.600  13.870
  881BOLB   NC221133  18.250  34.470  15.590
  881BOLB   PO221134  18.100  34.200  15.300
  881BOLB   GL321135  18.340  33.820  15.080
  881BOLB   GL421136  18.290  33.880  14.750
  881BOLB   C1C21137  18.550  33.520  15.010
  881BOLB   C2C21138  18.420  33.090  14.930
  881BOLB   C3C21139  18.360  32.630  14.800
  881BOLB   C4C21140  18.150  32.330  14.980
  881BOLB   C1D21141  18.290  33.440  14.560
  881BOLB   C2D21142  18.290  32.980  14.430
  881BOLB   C3D21143  18.310  32.520  14.290
  881BOLB   C4D21144  18.360  32.120  14.110
  882BOLB   NC121145  22.310  16.860  16.460
  882BOLB   PO121146  22.480  16.460  16.600
  882BOLB   GL121147  22.920  16.360  16.720
  882BOLB   GL221148  23.040  16.510  16.970
  882BOLB   C1A21149  23.140  16.010  16.850
  882BOLB   C2A21150  23.150  15.630  17.160
  882BOLB   C3A21151  23.420  15.340  17.280
  882BOLB   C4A21152  23.810  15.110  17.420
  882BOLB   C1B21153  23.120  16.310  17.300
  882BOLB   C2B21154  23.420  15.870  17.500
  882BOLB   C3B21155  23.650  15.510  17.740
  882BOLB   C4B21156  23.620  15.240  18.100
  882BOLB   NC221157  26.400  14.760  18.600
  882BOLB   PO221158  25.920  14.710  18.780
  882BOLB   GL321159  25.590  14.970  18.590
  882BOLB   GL421160  25.500  15.280  18.890
  882BOLB   C1C21161  25.120  15.100  18.520
  882BOLB   C2C21162  24.780  15.220  18.150
  882BOLB   C3C21163  24.520  15.200  17.790
  882BOLB   C4C21164  24.210  14.950  17.560
  882BOLB   C1D21165  25.180  15.480  19.000
  882BOLB   C2D21166  24.740  15.580  18.910
  882BOLB   C3D21167  24.430  15.890  19.010
  882BOLB   C4D21168  24.410  16.370  19.170
  883BOLB   NC121169  20.860  13.850  13.230
  883BOLB   PO121170  21.210  13.560  12.980
  883BOLB   GL121171  21.230  13.100  12.980
  883BOLB   GL221172  21.100  13.070  12.730
  883BOLB   C1A21173  21.380  12.880  13.280
  883BOLB   C2A21174  21.650  12.550  13.350
  883BOLB   C3A21175  21.760  12.130  13.440
  883BOLB   C4A21176  21.710  11.650  13.450
  883BOLB   C1B21177  21.460  12.910  12.490
  883BOLB   C2B21178  21.800  12.610  12.360
  883BOLB   C3B21179  21.900  12.250  12.510
  883BOLB   C4B21180  21.920  11.850  12.410
  883BOLB   NC221181  22.370   8.980  14.120
  883BOLB   PO221182  22.580   9.380  14.350
  883BOLB   GL321183  22.490   9.800  14.170
  883BOLB   GL421184  22.430  10.080  14.300
  883BOLB   C1C21185  22.140   9.960  13.930
  883BOLB   C2C21186  21.910  10.400  13.800
  883BOLB   C3C21187  21.900  10.800  13.700
  883BOLB   C4C21188  21.720  11.230  13.700
  883BOLB   C1D21189  22.150  10.490  14.230
  883BOLB   C2D21190  21.970  10.940  14.210
  883BOLB   C3D21191  21.750  11.310  14.210
  883BOLB   C4D21192  21.460  11.720  14.420
  884BOLB   NC121193  25.090  18.260  14.550
  884BOLB   PO121194  24.810  18.150  14.930
  884BOLB   GL121195  25.030  17.920  15.280
  884BOLB   GL221196  25.040  17.650  15.070
  884BOLB   C1A21197  25.360  17.750  15.560
  884BOLB   C2A21198  25.620  17.630  15.760
  884BOLB   C3A21199  26.030  17.640  15.980
  884BOLB   C4A21200  26.250  17.340  16.010
  884BOLB   C1B21201  25.190  17.320  15.190
  884BOLB   C2B21202  25.470  17.070  15.150
  884BOLB   C3B21203  25.620  16.730  15.250
  884BOLB   C4B21204  26.020  16.550  15.360
  884BOLB   NC221205  28.220  15.910  15.580
  884BOLB   PO221206  28.390  16.290  15.230
  884BOLB   GL321207  28.070  16.510  15.110
  884BOLB   GL421208  27.970  16.580  14.830
  884BOLB   C1C21209  27.620  16.530  15.250
  884BOLB   C2C21210  27.150  16.530  15.370
  884BOLB   C3C21211  26.900  16.680  15.730
  884BOLB   C4C21212  26.560  16.970  16.050
  884BOLB   C1D21213  27.700  16.920  14.870
  884BOLB   C2D21214  27.590  17.290  14.790
  884BOLB   C3D21215  27.170  17.500  14.810
  884BOLB   C4D21216  26.800  17.420  14.810
  885BOLB   NC121217  25.460  24.700  23.540
  885BOLB   PO121218  25.200  24.370  23.310
  885BOLB   GL121219  24.970  24.430  22.940
  885BOLB   GL221220  24.760  24.610  23.070
  885BOLB   C1A21221  24.950  24.510  22.490
  885BOLB   C2A21222  24.850  24.650  22.090
  885BOLB   C3A21223  24.610  24.710  21.820
  885BOLB   C4A21224  24.200  24.730  21.660
  885BOLB   C1B21225  24.490  24.630  22.690
  885BOLB   C2B21226  24.220  24.660  22.270
  885BOLB   C3B21227  24.120  24.280  21.890
  885BOLB   C4B21228  24.170  24.290  21.390
  885BOLB   NC221229  23.590  25.520  23.240
  885BOLB   PO221230  23.160  25.610  23.220
  885BOLB   GL321231  23.220  25.550  22.850
  885BOLB   GL421232  22.960  25.650  22.670
  885BOLB   C1C21233  23.090  25.120  22.620
  885BOLB   C2C21234  23.240  24.970  22.220
  885BOLB   C3C21235  23.270  24.650  21.890
  885BOLB   C4C21236  23.750  24.640  21.700
  885BOLB   C1D21237  23.340  25.850  22.430
  885BOLB   C2D21238  23.390  26.070  22.030
  885BOLB   C3D21239  23.650  25.970  21.600
  885BOLB   C4D21240  23.640  25.890  21.210
  886BOLB   NC121241  19.610  14.630   7.620
  886BOLB   PO121242  19.730  14.470   7.990
  886BOLB   GL121243  20.010  14.340   7.590
  886BOLB   GL221244  19.850  14.160   7.390
  886BOLB   C1A21245  20.370  14.110   7.420
  886BOLB   C2A21246  20.520  13.630   7.410
  886BOLB   C3A21247  20.920  13.380   7.340
  886BOLB   C4A21248  21.060  13.160   7.740
  886BOLB   C1B21249  19.990  13.680   7.460
  886BOLB   C2B21250  20.070  13.320   7.640
  886BOLB   C3B21251  20.080  12.850   7.730
  886BOLB   C4B21252  19.800  12.530   7.870
  886BOLB   NC221253  19.350  14.240   8.440
  886BOLB   PO221254  19.480  14.170   8.790
  886BOLB   GL321255  19.660  13.870   8.500
  886BOLB   GL421256  19.620  13.960   8.120
  886BOLB   C1C21257  20.080  13.740   8.380
  886BOLB   C2C21258  20.200  13.380   8.100
  886BOLB   C3C21259  20.460  12.970   8.060
  886BOLB   C4C21260  20.800  12.960   7.960
  886BOLB   C1D21261  19.750  13.610   7.950
  886BOLB   C2D21262  19.760  13.210   8.150
  886BOLB   C3D21263  20.070  12.910   8.290
  886BOLB   C4D21264  20.400  12.690   8.570
  887BOLB   NC121265  26.390  31.960  16.230
  887BOLB   PO121266  26.360  31.590  16.500
  887BOLB   GL121267  26.210  31.280  16.220
  887BOLB   GL221268  26.090  31.000  16.440
  887BOLB   C1A21269  25.780  31.190  16.070
  887BOLB   C2A21270  25.300  31.290  16.060
  887BOLB   C3A21271  25.010  30.930  16.000
  887BOLB   C4A21272  24.690  30.740  16.060
  887BOLB   C1B21273  25.690  30.990  16.610
  887BOLB   C2B21274  25.430  30.900  16.390
  887BOLB   C3B21275  25.030  31.050  16.460
  887BOLB   C4B21276  25.040  31.450  16.470
  887BOLB   NC221277  25.420  31.340  17.580
  887BOLB   PO221278  25.530  31.560  17.260
  887BOLB   GL321279  25.260  31.380  17.110
  887BOLB   GL421280  25.410  31.110  17.050
  887BOLB   C1C21281  24.920  31.290  16.890
  887BOLB   C2C21282  24.680  31.010  16.820
  887BOLB   C3C21283  24.450  30.770  16.710
  887BOLB   C4C21284  24.430  30.620  16.390
  887BOLB   C1D21285  25.230  30.830  16.870
  887BOLB   C2D21286  24.910  30.540  16.510
  887BOLB   C3D21287  24.750  30.250  16.110
  887BOLB   C4D21288  24.300  30.370  16.020
  888BOLB   NC121289  23.990  17.320  16.100
  888BOLB   PO121290  24.080  17.740  16.040
  888BOLB   GL121291  24.290  17.610  16.430
  888BOLB   GL221292  24.550  17.450  16.210
  888BOLB   C1A21293  24.640  17.380  16.660
  888BOLB   C2A21294  24.940  17.030  16.790
  888BOLB   C3A21295  25.300  17.190  17.030
  888BOLB   C4A21296  25.650  17.010  17.110
  888BOLB   C1B21297  24.820  17.160  16.220
  888BOLB   C2B21298  25.190  16.920  16.320
  888BOLB   C3B21299  25.610  16.630  16.200
  888BOLB   C4B21300  25.650  16.330  16.040
  888BOLB   NC221301  27.420  15.990  17.280
  888BOLB   PO221302  27.700  16.180  16.960
  888BOLB   GL321303  27.530  16.520  17.070
  888BOLB   GL421304  27.610  16.560  17.460
  888BOLB   C1C21305  27.000  16.600  17.100
  888BOLB   C2C21306  26.630  16.590  17.360
  888BOLB   C3C21307  26.320  16.710  17.450
  888BOLB   C4C21308  25.970  16.770  17.360
  888BOLB   C1D21309  27.320  16.930  17.470
  888BOLB   C2D21310  27.090  17.130  17.080
  888BOLB   C3D21311  26.720  17.030  16.980
  888BOLB   C4D21312  26.380  17.190  17.190
  889BOLB   NC121313  29.650  23.260  18.660
  889BOLB   PO121314  29.760  23.230  18.230
  889BOLB   GL121315  29.310  23.220  18.250
  889BOLB   GL221316  29.240  23.470  18.010
  889BOLB   C1A21317  28.880  23.170  18.370
  889BOLB   C2A21318  28.490  23.330  18.320
  889BOLB   C3A21319  28.020  23.300  18.340
  889BOLB   C4A21320  27.630  23.400  18.240
  889BOLB   C1B21321  29.130  23.900  17.900
  889BOLB   C2B21322  28.820  23.690  17.730
  889BOLB   C3B21323  28.370  23.460  17.760
  889BOLB   C4B21324  27.990  23.290  17.820
  889BOLB   NC221325  28.300  22.550  20.140
  889BOLB   PO221326  28.670  22.830  20.090
  889BOLB   GL321327  28.260  22.910  19.750
  889BOLB   GL421328  28.300  22.800  19.450
  889BOLB   C1C21329  27.810  23.040  19.690
  889BOLB   C2C21330  27.510  23.210  19.320
  889BOLB   C3C21331  27.390  23.180  18.910
  889BOLB   C4C21332  27.290  23.290  18.490
  889BOLB   C1D21333  27.860  22.930  19.160
  889BOLB   C2D21334  27.560  22.640  18.940
  889BOLB   C3D21335  27.380  22.260  19.140
  889BOLB   C4D21336  27.220  21.840  18.960
  890BOLB   NC121337  21.220  21.310  19.530
  890BOLB   PO121338  21.310  20.940  19.860
  890BOLB   GL121339  21.480  21.120  20.300
  890BOLB   GL221340  21.360  21.240  20.680
  890BOLB   C1A21341  21.910  21.220  20.390
  890BOLB   C2A21342  22.300  21.380  20.600
  890BOLB   C3A21343  22.570  21.320  20.930
  890BOLB   C4A21344  22.560  21.390  21.380
  890BOLB   C1B21345  21.330  20.960  21.000
  890BOLB   C2B21346  21.420  20.690  21.270
  890BOLB   C3B21347  21.460  20.590  21.700
  890BOLB   C4B21348  21.350  20.550  22.030
  890BOLB   NC221349  22.790  21.700  24.010
  890BOLB   PO221350  22.690  21.370  23.810
  890BOLB   GL321351  22.500  21.350  23.500
  890BOLB   GL421352  22.100  21.480  23.470
  890BOLB   C1C21353  22.300  21.180  23.070
  890BOLB   C2C21354  22.210  21.070  22.630
  890BOLB   C3C21355  22.180  21.060  22.170
  890BOLB   C4C21356  22.480  21.310  21.830
  890BOLB   C1D21357  22.240  21.900  23.280
  890BOLB   C2D21358  21.990  22.160  23.030
  890BOLB   C3D21359  21.690  21.990  22.740
  890BOLB   C4D21360  21.540  21.570  22.600
  891BOLB   NC121361  22.230  21.000   6.730
  891BOLB   PO121362  22.590  20.840   6.630
  891BOLB   GL121363  22.750  20.710   6.230
  891BOLB   GL221364  22.820  20.890   6.000
  891BOLB   C1A21365  22.730  20.380   5.970
  891BOLB   C2A21366  22.880  20.330   5.670
  891BOLB   C3A21367  23.000  20.130   5.250
  891BOLB   C4A21368  22.850  20.280   4.870
  891BOLB   C1B21369  23.140  20.740   5.670
  891BOLB   C2B21370  23.220  20.910   5.280
  891BOLB   C3B21371  23.380  21.090   4.920
  891BOLB   C4B21372  23.880  21.260   4.960
  891BOLB   NC221373  23.880  19.390   2.610
  891BOLB   PO221374  24.050  19.610   2.790
  891BOLB   GL321375  23.840  19.890   3.080
  891BOLB   GL421376  24.010  20.030   3.400
  891BOLB   C1C21377  23.540  20.030   3.410
  891BOLB   C2C21378  23.380  20.290   3.780
  891BOLB   C3C21379  23.080  20.430   4.090
  891BOLB   C4C21380  22.910  20.540   4.410
  891BOLB   C1D21381  23.900  20.130   3.880
  891BOLB   C2D21382  23.680  20.320   4.230
  891BOLB   C3D21383  23.450  20.440   4.500
  891BOLB   C4D21384  23.270  20.590   4.860
  892BOLB   NC121385  21.320  13.760  13.380
  892BOLB   PO121386  21.360  13.980  13.800
  892BOLB   GL121387  21.700  13.660  13.780
  892BOLB   GL221388  21.870  13.650  13.560
  892BOLB   C1A21389  21.670  13.300  14.080
  892BOLB   C2A21390  21.880  12.820  14.370
  892BOLB   C3A21391  22.150  12.450  14.480
  892BOLB   C4A21392  22.290  12.250  14.180
  892BOLB   C1B21393  22.040  13.220  13.710
  892BOLB   C2B21394  22.360  12.880  13.900
  892BOLB   C3B21395  22.550  12.680  14.190
  892BOLB   C4B21396  22.610  12.670  14.520
  892BOLB   NC221397  23.590  10.260  14.110
  892BOLB   PO221398  23.380  10.080  13.720
  892BOLB   GL321399  23.150  10.460  13.880
  892BOLB   GL421400  23.230  10.580  14.140
  892BOLB   C1C21401  22.840  10.750  13.730
  892BOLB   C2C21402  22.740  11.150  13.760
  892BOLB   C3C21403  22.570  11.500  13.740
  892BOLB   C4C21404  22.400  11.900  13.960
  892BOLB   C1D21405  23.010  10.960  14.250
  892BOLB   C2D21406  22.810  11.200  14.570
  892BOLB   C3D21407  22.790  11.610  14.840
  892BOLB   C4D21408  22.830  12.100  15.150
  893BOLB   NC121409  25.820  20.820  15.400
  893BOLB   PO121410  25.800  20.660  14.860
  893BOLB   GL121411  26.190  20.610  14.900
  893BOLB   GL221412  26.200  20.380  15.050
  893BOLB   C1A21413  26.700  20.510  14.850
  893BOLB   C2A21414  27.020  20.420  14.730
  893BOLB   C3A21415  27.190  20.060  14.560
  893BOLB   C4A21416  27.570  19.940  14.660
  893BOLB   C1B21417  26.530  19.980  15.170
  893BOLB   C2B21418  26.530  19.560  15.510
  893BOLB   C3B21419  26.750  19.310  15.710
  893BOLB   C4B21420  26.770  18.860  15.610
  893BOLB   NC221421  29.580  19.150  14.880
  893BOLB   PO221422  29.760  18.670  15.080
  893BOLB   GL321423  29.280  18.700  14.970
  893BOLB   GL421424  28.960  18.530  14.770
  893BOLB   C1C21425  28.920  19.000  14.850
  893BOLB   C2C21426  28.720  19.260  14.550
  893BOLB   C3C21427  28.310  19.460  14.500
  893BOLB   C4C21428  27.920  19.590  14.550
  893BOLB   C1D21429  28.570  18.740  14.510
  893BOLB   C2D21430  28.170  18.790  14.330
  893BOLB   C3D21431  27.790  18.580  14.330
  893BOLB   C4D21432  27.510  18.280  14.310
  894BOLB   NC121433  22.990  16.940  17.190
  894BOLB   PO121434  23.260  16.990  16.840
  894BOLB   GL121435  23.580  16.720  16.930
  894BOLB   GL221436  23.890  16.910  17.130
  894BOLB   C1A21437  23.770  16.370  17.140
  894BOLB   C2A21438  23.980  16.090  17.450
  894BOLB   C3A21439  23.890  15.910  17.830
  894BOLB   C4A21440  23.950  15.630  18.130
  894BOLB   C1B21441  24.260  16.580  17.250
  894BOLB   C2B21442  24.450  16.370  17.570
  894BOLB   C3B21443  24.390  16.000  17.880
  894BOLB   C4B21444  24.450  15.650  18.100
  894BOLB   NC221445  25.410  13.950  19.130
  894BOLB   PO221446  25.210  14.310  19.170
  894BOLB   GL321447  25.120  14.460  18.820
  894BOLB   GL421448  24.850  14.360  18.760
  894BOLB   C1C21449  25.080  14.600  18.430
  894BOLB   C2C21450  24.850  14.780  18.140
  894BOLB   C3C21451  24.370  14.890  18.130
  894BOLB   C4C21452  24.070  15.210  18.010
  894BOLB   C1D21453  24.470  14.480  18.580
  894BOLB   C2D21454  24.110  14.530  18.550
  894BOLB   C3D21455  23.740  14.640  18.860
  894BOLB   C4D21456  23.540  14.990  19.090
  895BOLB   NC121457  24.900  20.420  16.280
  895BOLB   PO121458  25.160  20.020  16.440
  895BOLB   GL121459  25.450  19.800  16.720
  895BOLB   GL221460  25.500  19.530  16.630
  895BOLB   C1A21461  25.730  19.810  17.120
  895BOLB   C2A21462  25.990  19.840  17.390
  895BOLB   C3A21463  26.230  20.060  17.670
  895BOLB   C4A21464  26.630  20.440  17.790
  895BOLB   C1B21465  25.950  19.700  16.670
  895BOLB   C2B21466  26.330  19.850  16.990
  895BOLB   C3B21467  26.500  19.820  17.230
  895BOLB   C4B21468  26.660  19.460  17.480
  895BOLB   NC221469  28.750  21.550  19.970
  895BOLB   PO221470  28.530  21.360  19.540
  895BOLB   GL321471  28.200  21.140  19.260
  895BOLB   GL421472  27.890  21.290  19.360
  895BOLB   C1C21473  27.760  20.990  19.000
  895BOLB   C2C21474  27.420  21.010  18.770
  895BOLB   C3C21475  26.950  20.920  18.570
  895BOLB   C4C21476  26.640  20.650  18.250
  895BOLB   C1D21477  27.400  21.300  19.210
  895BOLB   C2D21478  27.040  21.380  18.930
  895BOLB   C3D21479  26.770  21.540  18.700
  895BOLB   C4D21480  26.790  21.520  18.260
  896BOLB   NC121481  23.880  22.450  18.810
  896BOLB   PO121482  24.320  22.230  18.830
  896BOLB   GL121483  24.810  21.980  18.800
  896BOLB   GL221484  25.030  22.020  18.590
  896BOLB   C1A21485  25.150  21.830  19.010
  896BOLB   C2A21486  25.430  22.050  19.310
  896BOLB   C3A21487  25.540  21.980  19.730
  896BOLB   C4A21488  25.810  22.350  19.940
  896BOLB   C1B21489  25.410  22.260  18.840
  896BOLB   C2B21490  25.910  22.280  18.930
  896BOLB   C3B21491  26.380  22.140  18.990
  896BOLB   C4B21492  26.810  22.030  18.850
  896BOLB   NC221493  27.400  22.040  21.240
  896BOLB   PO221494  27.200  22.400  21.510
  896BOLB   GL321495  26.940  22.280  21.190
  896BOLB   GL421496  26.750  22.050  21.010
  896BOLB   C1C21497  26.760  22.560  20.870
  896BOLB   C2C21498  26.600  22.900  20.600
  896BOLB   C3C21499  26.230  22.890  20.430
  896BOLB   C4C21500  25.930  22.630  20.240
  896BOLB   C1D21501  26.430  21.680  20.840
  896BOLB   C2D21502  26.120  21.390  20.780
  896BOLB   C3D21503  25.620  21.360  20.930
  896BOLB   C4D21504  25.340  21.370  21.100
  897BOLB   NC121505  24.440  20.330  17.480
  897BOLB   PO121506  24.750  20.560  17.220
  897BOLB   GL121507  24.970  20.640  17.600
  897BOLB   GL221508  25.010  20.950  17.840
  897BOLB   C1A21509  25.170  20.440  17.970
  897BOLB   C2A21510  25.610  20.530  18.160
  897BOLB   C3A21511  25.830  20.180  18.390
  897BOLB   C4A21512  26.120  19.810  18.350
  897BOLB   C1B21513  25.310  20.940  18.090
  897BOLB   C2B21514  25.730  21.090  18.330
  897BOLB   C3B21515  25.930  21.100  18.660
  897BOLB   C4B21516  26.130  20.760  19.040
  897BOLB   NC221517  28.000  18.220  19.960
  897BOLB   PO221518  27.500  18.340  20.110
  897BOLB   GL321519  27.280  18.310  19.690
  897BOLB   GL421520  27.430  18.320  19.290
  897BOLB   C1C21521  27.000  18.610  19.400
  897BOLB   C2C21522  26.750  18.790  19.070
  897BOLB   C3C21523  26.500  19.110  18.770
  897BOLB   C4C21524  26.360  19.410  18.480
  897BOLB   C1D21525  27.100  18.340  18.900
  897BOLB   C2D21526  26.820  18.240  18.570
  897BOLB   C3D21527  26.480  18.010  18.510
  897BOLB   C4D21528  26.340  17.580  18.540
  898BOLB   NC121529  25.200  23.680  17.440
  898BOLB   PO121530  25.440  23.920  17.110
  898BOLB   GL121531  25.700  23.820  17.510
  898BOLB   GL221532  25.650  24.040  17.700
  898BOLB   C1A21533  26.050  23.670  17.700
  898BOLB   C2A21534  26.400  23.650  18.000
  898BOLB   C3A21535  26.570  23.910  18.320
  898BOLB   C4A21536  26.870  24.000  18.570
  898BOLB   C1B21537  25.790  24.040  18.110
  898BOLB   C2B21538  26.080  23.840  18.410
  898BOLB   C3B21539  25.980  23.650  18.800
  898BOLB   C4B21540  25.880  23.350  18.990
  898BOLB   NC221541  28.680  23.940  20.030
  898BOLB   PO221542  28.430  23.570  19.990
  898BOLB   GL321543  28.210  23.400  19.620
  898BOLB   GL421544  28.310  23.260  19.310
  898BOLB   C1C21545  27.810  23.520  19.560
  898BOLB   C2C21546  27.560  23.920  19.520
  898BOLB   C3C21547  27.350  24.170  19.200
  898BOLB   C4C21548  27.290  24.110  18.740
  898BOLB   C1D21549  27.880  23.380  19.040
  898BOLB   C2D21550  27.630  23.600  18.710
  898BOLB   C3D21551  27.440  23.800  18.420
  898BOLB   C4D21552  27.050  23.650  18.230
  899BOLB   NC121553  25.000  18.450  12.240
  899BOLB   PO121554  25.250  18.860  12.150
  899BOLB   GL121555  25.470  18.570  12.040
  899BOLB   GL221556  25.320  18.350  11.790
  899BOLB   C1A21557  25.860  18.500  11.960
  899BOLB   C2A21558  26.210  18.180  12.000
  899BOLB   C3A21559  26.540  18.030  12.110
  899BOLB   C4A21560  26.810  18.170  12.100
  899BOLB   C1B21561  25.750  18.070  11.780
  899BOLB   C2B21562  26.150  18.010  11.560
  899BOLB   C3B21563  26.530  18.040  11.510
  899BOLB   C4B21564  26.900  18.030  11.490
  899BOLB   NC221565  29.210  18.760  12.670
  899BOLB   PO221566  29.050  18.290  12.450
  899BOLB   GL321567  28.660  18.550  12.570
  899BOLB   GL421568  28.730  18.900  12.580
  899BOLB   C1C21569  28.270  18.580  12.520
  899BOLB   C2C21570  27.780  18.490  12.580
  899BOLB   C3C21571  27.400  18.530  12.580
  899BOLB   C4C21572  27.100  18.350  12.390
  899BOLB   C1D21573  28.450  19.140  12.680
  899BOLB   C2D21574  28.160  19.340  12.520
  899BOLB   C3D21575  27.870  19.670  12.690
  899BOLB   C4D21576  27.950  20.100  12.770
  900BOLB   NC121577  26.550  24.150  16.250
  900BOLB   PO121578  26.760  23.840  16.130
  900BOLB   GL121579  27.070  23.930  16.260
  900BOLB   GL221580  27.030  24.110  16.510
  900BOLB   C1A21581  27.560  23.850  16.190
  900BOLB   C2A21582  27.790  24.150  16.020
  900BOLB   C3A21583  28.130  24.400  15.640
  900BOLB   C4A21584  28.310  24.640  15.440
  900BOLB   C1B21585  27.270  24.010  16.900
  900BOLB   C2B21586  27.520  23.930  17.330
  900BOLB   C3B21587  28.000  24.070  17.230
  900BOLB   C4B21588  28.410  24.220  17.500
  900BOLB   NC221589  30.800  25.070  14.590
  900BOLB   PO221590  30.370  25.230  14.660
  900BOLB   GL321591  30.060  24.950  15.020
  900BOLB   GL421592  29.960  25.030  15.390
  900BOLB   C1C21593  29.610  24.890  15.030
  900BOLB   C2C21594  29.200  25.090  14.800
  900BOLB   C3C21595  28.750  25.040  14.870
  900BOLB   C4C21596  28.460  24.990  15.300
  900BOLB   C1D21597  29.480  24.990  15.490
  900BOLB   C2D21598  29.210  25.070  15.320
  900BOLB   C3D21599  28.900  25.280  15.440
  900BOLB   C4D21600  28.630  25.440  15.750
  901BOLB   NC121601  18.040  12.430  15.400
  901BOLB   PO121602  17.640  12.360  15.180
  901BOLB   GL121603  17.690  12.010  15.510
  901BOLB   GL221604  17.960  11.880  15.480
  901BOLB   C1A21605  17.440  11.860  15.760
  901BOLB   C2A21606  17.390  11.470  15.900
  901BOLB   C3A21607  17.440  11.040  15.720
  901BOLB   C4A21608  17.460  10.610  15.650
  901BOLB   C1B21609  17.720  11.510  15.490
  901BOLB   C2B21610  17.250  11.430  15.350
  901BOLB   C3B21611  16.860  11.150  15.410
  901BOLB   C4B21612  16.790  10.730  15.600
  901BOLB   NC221613  19.380   8.550  15.590
  901BOLB   PO221614  18.850   8.700  15.350
  901BOLB   GL321615  18.780   9.110  15.430
  901BOLB   GL421616  19.120   9.150  15.590
  901BOLB   C1C21617  18.720   9.500  15.330
  901BOLB   C2C21618  18.470   9.840  15.410
  901BOLB   C3C21619  18.350  10.300  15.350
  901BOLB   C4C21620  17.850  10.450  15.450
  901BOLB   C1D21621  19.240   9.540  15.390
  901BOLB   C2D21622  19.150   9.790  15.120
  901BOLB   C3D21623  18.850   9.980  14.900
  901BOLB   C4D21624  18.370  10.190  14.840
  902BOLB   NC121625  26.550  23.660  15.260
  902BOLB   PO121626  26.570  23.690  15.710
  902BOLB   GL121627  26.950  23.880  15.680
  902BOLB   GL221628  27.220  24.200  15.640
  902BOLB   C1A21629  27.440  23.740  15.630
  902BOLB   C2A21630  27.770  23.590  15.410
  902BOLB   C3A21631  28.210  23.600  15.290
  902BOLB   C4A21632  28.630  23.740  15.490
  902BOLB   C1B21633  27.580  24.310  15.370
  902BOLB   C2B21634  27.940  24.100  15.280
  902BOLB   C3B21635  28.330  24.080  15.290
  902BOLB   C4B21636  28.570  24.270  15.650
  902BOLB   NC221637  30.700  24.340  15.860
  902BOLB   PO221638  30.480  24.330  16.230
  902BOLB   GL321639  30.200  24.170  16.100
  902BOLB   GL421640  30.000  24.170  16.440
  902BOLB   C1C21641  29.890  24.400  15.870
  902BOLB   C2C21642  29.530  24.660  15.840
  902BOLB   C3C21643  29.150  24.420  15.630
  902BOLB   C4C21644  29.030  24.050  15.690
  902BOLB   C1D21645  29.570  23.950  16.430
  902BOLB   C2D21646  29.120  23.890  16.470
  902BOLB   C3D21647  28.790  24.040  16.260
  902BOLB   C4D21648  28.380  24.220  16.130
  903BOLB   NC121649  18.060  21.640  20.390
  903BOLB   PO121650  18.320  21.960  20.300
  903BOLB   GL121651  18.170  21.930  20.770
  903BOLB   GL221652  17.840  21.850  20.790
  903BOLB   C1A21653  18.290  21.960  21.170
  903BOLB   C2A21654  18.480  21.870  21.560
  903BOLB   C3A21655  18.560  21.910  22.020
  903BOLB   C4A21656  18.640  21.790  22.470
  903BOLB   C1B21657  17.810  22.160  21.020
  903BOLB   C2B21658  17.640  22.300  21.440
  903BOLB   C3B21659  17.790  22.410  21.880
  903BOLB   C4B21660  17.820  22.760  22.290
  903BOLB   NC221661  18.730  22.190  25.060
  903BOLB   PO221662  18.570  22.480  24.880
  903BOLB   GL321663  18.810  22.310  24.570
  903BOLB   GL421664  18.910  22.020  24.610
  903BOLB   C1C21665  18.600  22.060  24.200
  903BOLB   C2C21666  18.720  21.930  23.790
  903BOLB   C3C21667  18.920  21.880  23.320
  903BOLB   C4C21668  18.710  21.930  22.910
  903BOLB   C1D21669  19.120  21.920  24.150
  903BOLB   C2D21670  19.190  22.040  23.720
  903BOLB   C3D21671  19.390  21.890  23.380
  903BOLB   C4D21672  19.350  21.770  22.950
  904BOLB   NC121673  21.500  32.930   8.120
  904BOLB   PO121674  21.830  32.940   8.490
  904BOLB   GL121675  21.960  32.580   8.730
  904BOLB   GL221676  21.850  32.310   8.610
  904BOLB   C1A21677  21.840  32.370   9.120
  904BOLB   C2A21678  21.610  32.080   9.450
  904BOLB   C3A21679  21.580  31.900   9.870
  904BOLB   C4A21680  21.810  31.510   9.880
  904BOLB   C1B21681  21.800  31.910   8.910
  904BOLB   C2B21682  21.790  31.640   8.760
  904BOLB   C3B21683  21.880  31.250   8.920
  904BOLB   C4B21684  22.250  31.000   8.910
  904BOLB   NC221685  22.150  32.560   8.260
  904BOLB   PO221686  22.530  32.430   8.140
  904BOLB   GL321687  22.430  32.270   8.480
  904BOLB   GL421688  22.700  32.070   8.630
  904BOLB   C1C21689  22.320  31.980   8.880
  904BOLB   C2C21690  22.240  31.630   8.890
  904BOLB   C3C21691  22.230  31.380   9.260
  904BOLB   C4C21692  21.940  31.260   9.590
  904BOLB   C1D21693  22.600  31.600   8.550
  904BOLB   C2D21694  22.720  31.190   8.640
  904BOLB   C3D21695  23.070  31.030   8.820
  904BOLB   C4D21696  23.210  30.690   9.210
  905BOLB   NC121697  29.560  24.110  18.770
  905BOLB   PO121698  29.400  23.630  19.010
  905BOLB   GL121699  29.040  23.610  18.760
  905BOLB   GL221700  28.610  23.680  18.820
  905BOLB   C1A21701  28.930  23.740  18.310
  905BOLB   C2A21702  28.620  24.000  18.120
  905BOLB   C3A21703  28.310  23.940  17.910
  905BOLB   C4A21704  27.950  24.240  17.870
  905BOLB   C1B21705  28.180  23.710  18.680
  905BOLB   C2B21706  27.990  23.770  18.300
  905BOLB   C3B21707  27.810  23.760  17.850
  905BOLB   C4B21708  27.940  23.660  17.420
  905BOLB   NC221709  28.720  23.140  19.630
  905BOLB   PO221710  28.850  23.620  19.670
  905BOLB   GL321711  28.490  23.800  19.510
  905BOLB   GL421712  28.490  24.150  19.290
  905BOLB   C1C21713  28.170  23.750  19.240
  905BOLB   C2C21714  27.860  24.030  18.920
  905BOLB   C3C21715  27.720  24.200  18.550
  905BOLB   C4C21716  27.650  24.170  18.140
  905BOLB   C1D21717  28.220  24.340  18.990
  905BOLB   C2D21718  28.390  24.700  18.640
  905BOLB   C3D21719  28.440  24.790  18.290
  905BOLB   C4D21720  28.360  24.470  17.960
  906BOLB   NC121721  21.060  14.370  13.930
  906BOLB   PO121722  21.510  14.330  14.200
  906BOLB   GL121723  21.780  14.090  14.430
  906BOLB   GL221724  21.780  13.800  14.230
  906BOLB   C1A21725  22.120  13.920  14.600
  906BOLB   C2A21726  22.420  13.580  14.680
  906BOLB   C3A21727  22.730  13.380  14.890
  906BOLB   C4A21728  22.800  13.030  14.940
  906BOLB   C1B21729  22.170  13.540  14.220
  906BOLB   C2B21730  22.550  13.410  13.950
  906BOLB   C3B21731  22.840  13.190  13.870
  906BOLB   C4B21732  22.970  12.780  13.880
  906BOLB   NC221733  25.170  11.050  15.130
  906BOLB   PO221734  24.790  11.330  15.060
  906BOLB   GL321735  24.440  11.670  14.930
  906BOLB   GL421736  24.230  11.460  14.840
  906BOLB   C1C21737  24.130  11.940  14.800
  906BOLB   C2C21738  23.740  12.160  15.000
  906BOLB   C3C21739  23.460  12.540  14.910
  906BOLB   C4C21740  23.060  12.780  15.030
  906BOLB   C1D21741  23.840  11.580  14.620
  906BOLB   C2D21742  23.580  11.930  14.480
  906BOLB   C3D21743  23.540  12.390  14.430
  906BOLB   C4D21744  23.210  12.650  14.300
  907BOLB   NC121745  24.050  18.250  16.010
  907BOLB   PO121746  24.460  18.410  15.840
  907BOLB   GL121747  24.900  18.210  15.920
  907BOLB   GL221748  25.090  18.280  15.660
  907BOLB   C1A21749  25.350  18.020  16.110
  907BOLB   C2A21750  25.780  18.070  16.020
  907BOLB   C3A21751  26.210  18.320  16.130
  907BOLB   C4A21752  26.580  18.440  15.870
  907BOLB   C1B21753  25.500  18.450  15.840
  907BOLB   C2B21754  25.980  18.440  15.670
  907BOLB   C3B21755  26.300  18.060  15.710
  907BOLB   C4B21756  26.520  17.800  16.050
  907BOLB   NC221757  28.900  17.830  16.070
  907BOLB   PO221758  28.970  17.390  16.420
  907BOLB   GL321759  28.550  17.400  16.200
  907BOLB   GL421760  28.510  17.530  15.880
  907BOLB   C1C21761  28.120  17.540  16.190
  907BOLB   C2C21762  27.700  17.680  16.060
  907BOLB   C3C21763  27.410  18.070  15.990
  907BOLB   C4C21764  27.040  18.350  15.820
  907BOLB   C1D21765  28.170  17.850  15.790
  907BOLB   C2D21766  27.950  18.150  15.680
  907BOLB   C3D21767  27.800  18.550  15.710
  907BOLB   C4D21768  27.340  18.820  15.750
  908BOLB   NC121769  25.040  19.560  22.360
  908BOLB   PO121770  25.060  19.170  22.260
  908BOLB   GL121771  25.100  19.180  21.860
  908BOLB   GL221772  25.110  19.590  21.900
  908BOLB   C1A21773  24.720  19.110  21.540
  908BOLB   C2A21774  24.330  19.070  21.160
  908BOLB   C3A21775  24.090  18.880  20.790
  908BOLB   C4A21776  23.920  18.690  20.400
  908BOLB   C1B21777  24.690  19.600  21.660
  908BOLB   C2B21778  24.300  19.550  21.430
  908BOLB   C3B21779  23.920  19.400  21.440
  908BOLB   C4B21780  23.600  19.110  21.720
  908BOLB   NC221781  25.080  16.730  21.310
  908BOLB   PO221782  25.430  16.510  21.010
  908BOLB   GL321783  25.160  16.890  20.810
  908BOLB   GL421784  25.240  17.110  20.970
  908BOLB   C1C21785  24.780  17.250  20.730
  908BOLB   C2C21786  24.620  17.770  20.600
  908BOLB   C3C21787  24.320  17.970  20.300
  908BOLB   C4C21788  24.110  18.320  20.280
  908BOLB   C1D21789  25.410  17.410  20.580
  908BOLB   C2D21790  25.470  17.410  20.130
  908BOLB   C3D21791  25.700  17.550  19.870
  908BOLB   C4D21792  26.190  17.540  19.840
  909BOLB   NC121793  17.570  12.080  13.780
  909BOLB   PO121794  17.880  12.300  13.920
  909BOLB   GL121795  17.970  11.850  13.970
  909BOLB   GL221796  18.300  11.970  14.080
  909BOLB   C1A21797  17.910  11.300  14.160
  909BOLB   C2A21798  17.930  10.950  14.330
  909BOLB   C3A21799  17.910  10.730  14.760
  909BOLB   C4A21800  17.550  10.490  15.050
  909BOLB   C1B21801  18.310  11.480  13.970
  909BOLB   C2B21802  18.360  10.990  13.820
  909BOLB   C3B21803  18.510  10.490  13.800
  909BOLB   C4B21804  18.850  10.320  13.470
  909BOLB   NC221805  16.880   8.140  15.640
  909BOLB   PO221806  17.150   8.260  15.900
  909BOLB   GL321807  17.070   8.660  15.880
  909BOLB   GL421808  17.270   8.850  16.160
  909BOLB   C1C21809  17.070   9.160  15.790
  909BOLB   C2C21810  17.360   9.440  15.600
  909BOLB   C3C21811  17.440   9.720  15.500
  909BOLB   C4C21812  17.570  10.110  15.240
  909BOLB   C1D21813  17.600   9.260  16.040
  909BOLB   C2D21814  17.820   9.540  15.900
  909BOLB   C3D21815  17.870   9.970  15.780
  909BOLB   C4D21816  17.600  10.240  15.970
  910BOLB   NC121817  23.850  33.150  15.090
  910BOLB   PO121818  23.490  33.350  14.790
  910BOLB   GL121819  23.270  33.160  14.540
  910BOLB   GL221820  23.330  32.880  14.420
  910BOLB   C1A21821  22.830  32.990  14.390
  910BOLB   C2A21822  22.500  32.640  14.340
  910BOLB   C3A21823  22.450  32.370  13.930
  910BOLB   C4A21824  22.740  32.090  13.590
  910BOLB   C1B21825  23.190  32.620  14.110
  910BOLB   C2B21826  23.320  32.190  14.070
  910BOLB   C3B21827  23.190  31.870  13.760
  910BOLB   C4B21828  23.160  31.890  13.280
  910BOLB   NC221829  24.290  33.220  12.380
  910BOLB   PO221830  23.980  33.590  12.410
  910BOLB   GL321831  23.840  33.220  12.570
  910BOLB   GL421832  23.810  33.030  12.320
  910BOLB   C1C21833  23.630  33.050  12.850
  910BOLB   C2C21834  23.280  32.970  13.010
  910BOLB   C3C21835  23.030  32.760  13.150
  910BOLB   C4C21836  22.860  32.300  13.170
  910BOLB   C1D21837  23.800  32.660  12.310
  910BOLB   C2D21838  23.920  32.170  12.400
  910BOLB   C3D21839  23.870  31.710  12.490
  910BOLB   C4D21840  23.510  31.490  12.530
  911BOLB   NC121841  30.090  23.470  10.500
  911BOLB   PO121842  30.030  23.680  10.090
  911BOLB   GL121843  29.680  23.500  10.240
  911BOLB   GL221844  29.650  23.180  10.380
  911BOLB   C1A21845  29.240  23.380  10.090
  911BOLB   C2A21846  28.820  23.090  10.140
  911BOLB   C3A21847  28.430  23.020  10.280
  911BOLB   C4A21848  28.150  22.720  10.330
  911BOLB   C1B21849  29.240  23.040  10.560
  911BOLB   C2B21850  28.850  23.060  10.780
  911BOLB   C3B21851  28.460  23.210  10.780
  911BOLB   C4B21852  28.080  22.940  10.800
  911BOLB   NC221853  29.560  21.850   9.280
  911BOLB   PO221854  29.360  21.440   9.320
  911BOLB   GL321855  28.960  21.300   9.580
  911BOLB   GL421856  29.070  21.220   9.890
  911BOLB   C1C21857  28.510  21.430   9.870
  911BOLB   C2C21858  28.170  21.460  10.150
  911BOLB   C3C21859  27.980  21.770  10.340
  911BOLB   C4C21860  28.030  22.220  10.360
  911BOLB   C1D21861  28.800  21.210  10.250
  911BOLB   C2D21862  28.410  21.080  10.510
  911BOLB   C3D21863  27.850  21.120  10.540
  911BOLB   C4D21864  27.560  21.040  10.250
  912BOLB   NC121865  16.700  32.680   7.650
  912BOLB   PO121866  17.110  32.810   7.540
  912BOLB   GL121867  17.290  32.450   7.750
  912BOLB   GL221868  16.980  32.280   7.900
  912BOLB   C1A21869  17.420  32.100   7.970
  912BOLB   C2A21870  17.630  31.670   8.120
  912BOLB   C3A21871  17.900  31.410   8.390
  912BOLB   C4A21872  17.800  31.120   8.810
  912BOLB   C1B21873  16.670  31.970   8.150
  912BOLB   C2B21874  16.780  31.800   8.570
  912BOLB   C3B21875  17.110  31.910   8.810
  912BOLB   C4B21876  17.080  31.940   9.280
  912BOLB   NC221877  18.340  29.100   9.860
  912BOLB   PO221878  18.100  29.490   9.830
  912BOLB   GL321879  17.670  29.650   9.680
  912BOLB   GL421880  17.800  29.710   9.360
  912BOLB   C1C21881  17.410  30.020   9.570
  912BOLB   C2C21882  17.320  30.350   9.400
  912BOLB   C3C21883  17.290  30.750   9.300
  912BOLB   C4C21884  17.580  31.050   9.170
  912BOLB   C1D21885  17.720  29.990   9.120
  912BOLB   C2D21886  17.930  30.170   8.860
  912BOLB   C3D21887  18.170  30.650   8.850
  912BOLB   C4D21888  18.480  30.840   9.040
  913BOLB   NC121889  13.710  17.040   5.850
  913BOLB   PO121890  13.380  16.810   5.970
  913BOLB   GL121891  13.200  16.620   5.680
  913BOLB   GL221892  13.190  16.300   5.840
  913BOLB   C1A21893  12.870  16.550   5.460
  913BOLB   C2A21894  12.780  16.820   5.140
  913BOLB   C3A21895  12.690  16.600   4.770
  913BOLB   C4A21896  12.700  16.170   4.620
  913BOLB   C1B21897  12.990  15.930   5.800
  913BOLB   C2B21898  12.800  15.590   5.740
  913BOLB   C3B21899  12.380  15.290   5.810
  913BOLB   C4B21900  12.000  15.280   5.570
  913BOLB   NC221901  10.960  14.770   3.650
  913BOLB   PO221902  11.190  14.780   3.220
  913BOLB   GL321903  11.630  14.790   3.360
  913BOLB   GL421904  11.940  14.680   3.180
  913BOLB   C1C21905  12.020  14.840   3.650
  913BOLB   C2C21906  12.150  15.160   3.950
  913BOLB   C3C21907  12.250  15.560   4.040
  913BOLB   C4C21908  12.490  15.910   4.310
  913BOLB   C1D21909  12.240  14.510   3.360
  913BOLB   C2D21910  12.360  14.370   3.810
  913BOLB   C3D21911  12.460  14.170   4.250
  913BOLB   C4D21912  12.580  14.230   4.660
  914BOLB   NC121913  15.220  12.870   9.320
  914BOLB   PO121914  15.500  13.010   8.970
  914BOLB   GL121915  15.390  12.620   8.830
  914BOLB   GL221916  15.190  12.500   8.610
  914BOLB   C1A21917  15.330  12.190   8.970
  914BOLB   C2A21918  15.200  11.830   8.740
  914BOLB   C3A21919  15.380  11.500   8.410
  914BOLB   C4A21920  15.380  11.430   8.000
  914BOLB   C1B21921  15.300  12.110   8.390
  914BOLB   C2B21922  15.700  11.840   8.140
  914BOLB   C3B21923  15.990  11.400   8.150
  914BOLB   C4B21924  16.150  11.110   7.850
  914BOLB   NC221925  14.790  10.380   5.570
  914BOLB   PO221926  14.800  10.300   6.020
  914BOLB   GL321927  14.710  10.410   6.400
  914BOLB   GL421928  14.810  10.270   6.670
  914BOLB   C1C21929  14.560  10.740   6.790
  914BOLB   C2C21930  14.580  11.070   6.940
  914BOLB   C3C21931  14.820  11.170   7.300
  914BOLB   C4C21932  15.190  11.230   7.580
  914BOLB   C1D21933  15.150  10.530   6.870
  914BOLB   C2D21934  15.090  10.990   6.880
  914BOLB   C3D21935  14.940  11.380   6.840
  914BOLB   C4D21936  14.990  11.790   6.750
  915BOLB   NC121937  21.640  17.850   1.980
  915BOLB   PO121938  21.950  18.170   2.040
  915BOLB   GL121939  21.770  18.350   2.420
  915BOLB   GL221940  21.590  18.580   2.310
  915BOLB   C1A21941  21.750  18.420   2.820
  915BOLB   C2A21942  21.780  18.480   3.330
  915BOLB   C3A21943  21.660  18.600   3.640
  915BOLB   C4A21944  21.720  18.760   4.050
  915BOLB   C1B21945  21.540  18.870   2.660
  915BOLB   C2B21946  21.570  18.920   3.130
  915BOLB   C3B21947  21.350  19.000   3.540
  915BOLB   C4B21948  21.230  18.900   4.000
  915BOLB   NC221949  20.740  19.400   5.790
  915BOLB   PO221950  20.700  19.770   5.700
  915BOLB   GL321951  21.010  19.610   5.430
  915BOLB   GL421952  20.930  19.720   5.200
  915BOLB   C1C21953  21.340  19.350   5.200
  915BOLB   C2C21954  21.730  19.170   5.130
  915BOLB   C3C21955  21.850  18.910   4.800
  915BOLB   C4C21956  21.840  18.900   4.420
  915BOLB   C1D21957  20.790  19.700   4.830
  915BOLB   C2D21958  20.960  19.610   4.440
  915BOLB   C3D21959  21.010  19.390   4.190
  915BOLB   C4D21960  21.190  19.440   3.810
  916BOLB   NC121961  25.470  29.340   6.410
  916BOLB   PO121962  25.050  29.140   6.120
  916BOLB   GL121963  25.210  28.950   6.470
  916BOLB   GL221964  25.330  28.630   6.500
  916BOLB   C1A21965  25.230  29.010   6.880
  916BOLB   C2A21966  25.130  29.310   7.220
  916BOLB   C3A21967  24.760  29.140   7.450
  916BOLB   C4A21968  24.430  28.730   7.450
  916BOLB   C1B21969  24.950  28.370   6.420
  916BOLB   C2B21970  24.710  28.070   6.590
  916BOLB   C3B21971  24.590  27.610   6.670
  916BOLB   C4B21972  24.790  27.260   6.820
  916BOLB   NC221973  23.600  29.810   5.910
  916BOLB   PO221974  23.900  29.680   5.590
  916BOLB   GL321975  23.820  29.370   5.890
  916BOLB   GL421976  23.530  29.310   5.980
  916BOLB   C1C21977  24.080  28.980   6.040
  916BOLB   C2C21978  24.220  28.710   6.360
  916BOLB   C3C21979  24.350  28.370   6.680
  916BOLB   C4C21980  24.390  28.460   7.170
  916BOLB   C1D21981  23.420  28.940   6.290
  916BOLB   C2D21982  23.110  28.850   6.450
  916BOLB   C3D21983  22.620  28.900   6.520
  916BOLB   C4D21984  22.280  28.750   6.270
  917BOLB   NC121985  23.330  28.600   4.310
  917BOLB   PO121986  23.670  28.470   4.630
  917BOLB   GL121987  23.560  28.080   4.800
  917BOLB   GL221988  23.670  28.050   5.150
  917BOLB   C1A21989  23.240  27.730   5.050
  917BOLB   C2A21990  23.370  27.460   5.280
  917BOLB   C3A21991  23.600  27.160   5.490
  917BOLB   C4A21992  23.740  26.750   5.730
  917BOLB   C1B21993  23.750  27.780   5.480
  917BOLB   C2B21994  23.690  27.460   5.890
  917BOLB   C3B21995  23.800  27.010   6.200
  917BOLB   C4B21996  23.760  26.580   6.220
  917BOLB   NC221997  24.500  27.180   4.100
  917BOLB   PO221998  24.950  27.220   4.370
  917BOLB   GL321999  24.730  27.050   4.730
  917BOLB   GL422000  24.640  26.760   4.670
  917BOLB   C1C22001  24.520  27.240   5.090
  917BOLB   C2C22002  24.620  27.170   5.480
  917BOLB   C3C22003  24.520  26.940   5.820
  917BOLB   C4C22004  24.160  26.740   5.960
  917BOLB   C1D22005  24.220  26.620   4.870
  917BOLB   C2D22006  23.920  26.510   5.270
  917BOLB   C3D22007  23.600  26.140   5.260
  917BOLB   C4D22008  23.420  25.860   5.620
  918BOLB   NC122009  14.760  26.380   8.430
  918BOLB   PO122010  15.090  26.250   8.170
  918BOLB   GL122011  15.020  26.510   7.930
  918BOLB   GL222012  15.000  26.440   7.630
  918BOLB   C1A22013  14.900  26.920   7.760
  918BOLB   C2A22014  14.610  27.160   7.460
  918BOLB   C3A22015  14.540  27.380   7.120
  918BOLB   C4A22016  14.570  27.280   6.630
  918BOLB   C1B22017  14.770  26.620   7.250
  918BOLB   C2B22018  14.350  26.900   7.080
  918BOLB   C3B22019  14.200  26.890   6.710
  918BOLB   C4B22020  13.920  26.990   6.420
  918BOLB   NC222021  13.890  28.490   4.730
  918BOLB   PO222022  13.400  28.490   4.740
  918BOLB   GL322023  13.520  28.320   5.150
  918BOLB   GL422024  13.890  28.330   5.200
  918BOLB   C1C22025  13.480  28.070   5.500
  918BOLB   C2C22026  13.610  27.820   5.810
  918BOLB   C3C22027  13.840  27.580   6.090
  918BOLB   C4C22028  14.240  27.300   6.290
  918BOLB   C1D22029  14.150  28.050   5.380
  918BOLB   C2D22030  14.250  27.980   5.750
  918BOLB   C3D22031  14.520  27.900   6.020
  918BOLB   C4D22032  14.700  27.510   6.230
  919BOLB   NC122033  17.330  20.060   4.540
  919BOLB   PO122034  16.900  20.140   4.620
  919BOLB   GL122035  16.790  20.230   4.150
  919BOLB   GL222036  16.550  20.390   4.270
  919BOLB   C1A22037  17.030  20.410   3.770
  919BOLB   C2A22038  16.870  20.620   3.440
  919BOLB   C3A22039  16.720  20.770   2.970
  919BOLB   C4A22040  16.370  20.640   2.650
  919BOLB   C1B22041  16.510  20.440   3.780
  919BOLB   C2B22042  16.420  20.440   3.340
  919BOLB   C3B22043  16.480  20.220   3.040
  919BOLB   C4B22044  16.630  19.980   2.670
  919BOLB   NC222045  14.960  22.090   0.780
  919BOLB   PO222046  15.110  21.840   1.070
  919BOLB   GL322047  15.000  21.670   1.540
  919BOLB   GL422048  15.370  21.500   1.540
  919BOLB   C1C22049  15.200  21.550   1.970
  919BOLB   C2C22050  15.620  21.330   2.000
  919BOLB   C3C22051  15.920  21.050   2.210
  919BOLB   C4C22052  16.140  20.890   2.450
  919BOLB   C1D22053  15.780  21.360   1.490
  919BOLB   C2D22054  15.900  21.010   1.610
  919BOLB   C3D22055  15.990  20.670   1.860
  919BOLB   C4D22056  15.830  20.350   2.150
  920BOLB   NC122057  13.810  16.960   6.740
  920BOLB   PO122058  13.450  16.710   6.970
  920BOLB   GL122059  13.070  16.570   7.050
  920BOLB   GL222060  12.970  16.640   7.410
  920BOLB   C1A22061  12.720  16.730   6.920
  920BOLB   C2A22062  12.320  16.960   6.920
  920BOLB   C3A22063  12.040  17.000   7.230
  920BOLB   C4A22064  11.570  17.010   7.360
  920BOLB   C1B22065  12.590  16.410   7.290
  920BOLB   C2B22066  12.160  16.540   7.350
  920BOLB   C3B22067  11.770  16.500   7.370
  920BOLB   C4B22068  11.420  16.490   7.140
  920BOLB   NC222069   9.500  15.290   8.170
  920BOLB   PO222070   9.460  15.660   8.010
  920BOLB   GL322071   9.750  15.950   8.180
  920BOLB   GL422072   9.690  16.130   8.310
  920BOLB   C1C22073  10.210  16.130   8.150
  920BOLB   C2C22074  10.620  16.390   7.860
  920BOLB   C3C22075  11.000  16.460   7.540
  920BOLB   C4C22076  11.330  16.780   7.600
  920BOLB   C1D22077   9.810  16.500   8.440
  920BOLB   C2D22078  10.220  16.630   8.280
  920BOLB   C3D22079  10.550  16.910   8.100
  920BOLB   C4D22080  10.620  17.440   7.970
  921BOLB   NC122081  16.120  26.720   7.790
  921BOLB   PO122082  15.890  26.950   8.020
  921BOLB   GL122083  15.590  27.200   7.790
  921BOLB   GL222084  15.580  27.470   7.860
  921BOLB   C1A22085  15.170  27.350   7.620
  921BOLB   C2A22086  14.840  27.690   7.460
  921BOLB   C3A22087  14.330  27.720   7.370
  921BOLB   C4A22088  13.990  27.880   7.190
  921BOLB   C1B22089  15.460  27.800   7.560
  921BOLB   C2B22090  15.120  28.060   7.240
  921BOLB   C3B22091  14.760  27.950   7.030
  921BOLB   C4B22092  14.440  28.010   7.010
  921BOLB   NC222093  13.200  29.200   4.840
  921BOLB   PO222094  13.340  28.850   5.020
  921BOLB   GL322095  13.410  28.740   5.450
  921BOLB   GL422096  13.740  28.650   5.540
  921BOLB   C1C22097  13.270  28.480   5.670
  921BOLB   C2C22098  13.380  28.220   5.990
  921BOLB   C3C22099  13.600  27.920   6.330
  921BOLB   C4C22100  13.830  27.890   6.720
  921BOLB   C1D22101  13.850  28.340   5.770
  921BOLB   C2D22102  14.020  28.130   6.190
  921BOLB   C3D22103  14.210  27.830   6.450
  921BOLB   C4D22104  14.230  27.600   6.760
  922BOLB   NC122105  11.040  24.480  10.230
  922BOLB   PO122106  10.700  24.760  10.060
  922BOLB   GL122107  10.370  25.080   9.830
  922BOLB   GL222108  10.070  25.120   9.580
  922BOLB   C1A22109  10.300  25.550   9.540
  922BOLB   C2A22110  10.310  25.920   9.110
  922BOLB   C3A22111  10.500  26.140   8.810
  922BOLB   C4A22112  10.260  26.400   8.620
  922BOLB   C1B22113   9.860  25.010   9.190
  922BOLB   C2B22114   9.750  25.230   8.860
  922BOLB   C3B22115   9.950  25.520   8.610
  922BOLB   C4B22116  10.110  25.890   8.660
  922BOLB   NC222117   9.170  27.930   7.890
  922BOLB   PO222118   9.280  28.330   7.720
  922BOLB   GL322119   9.630  28.120   7.820
  922BOLB   GL422120   9.930  28.320   7.940
  922BOLB   C1C22121   9.820  27.680   7.990
  922BOLB   C2C22122   9.960  27.380   8.280
  922BOLB   C3C22123  10.150  27.190   8.560
  922BOLB   C4C22124  10.150  26.790   8.740
  922BOLB   C1D22125  10.050  28.010   8.250
  922BOLB   C2D22126  10.290  27.740   8.530
  922BOLB   C3D22127  10.640  27.560   8.340
  922BOLB   C4D22128  11.120  27.520   8.240
  923BOLB   NC122129  22.100  29.190  10.750
  923BOLB   PO122130  21.620  29.310  10.720
  923BOLB   GL122131  21.770  29.700  10.670
  923BOLB   GL222132  22.110  29.620  10.620
  923BOLB   C1A22133  21.780  29.960  10.230
  923BOLB   C2A22134  22.140  30.330  10.010
  923BOLB   C3A22135  22.460  30.550   9.880
  923BOLB   C4A22136  22.790  30.770   9.600
  923BOLB   C1B22137  22.200  29.990  10.440
  923BOLB   C2B22138  22.550  30.260  10.430
  923BOLB   C3B22139  22.810  30.560  10.590
  923BOLB   C4B22140  22.780  30.970  10.570
  923BOLB   NC222141  24.290  32.950   8.830
  923BOLB   PO222142  24.230  32.640   9.210
  923BOLB   GL322143  24.020  32.340   9.430
  923BOLB   GL422144  24.040  32.400   9.750
  923BOLB   C1C22145  24.060  31.920   9.530
  923BOLB   C2C22146  23.900  31.510   9.460
  923BOLB   C3C22147  23.610  31.180   9.550
  923BOLB   C4C22148  23.230  30.920   9.680
  923BOLB   C1D22149  23.680  32.110   9.760
  923BOLB   C2D22150  23.650  31.590   9.910
  923BOLB   C3D22151  23.510  31.190  10.090
  923BOLB   C4D22152  23.590  31.150  10.450
  924BOLB   NC122153  24.470  26.800   9.820
  924BOLB   PO122154  24.690  27.140  10.000
  924BOLB   GL122155  24.960  27.050   9.730
  924BOLB   GL222156  25.160  26.780   9.790
  924BOLB   C1A22157  25.270  27.250   9.560
  924BOLB   C2A22158  25.330  27.470   9.160
  924BOLB   C3A22159  25.270  27.800   8.920
  924BOLB   C4A22160  25.370  28.170   8.910
  924BOLB   C1B22161  25.280  26.700   9.420
  924BOLB   C2B22162  25.500  26.970   9.140
  924BOLB   C3B22163  25.560  27.290   8.730
  924BOLB   C4B22164  25.740  27.710   8.470
  924BOLB   NC222165  26.650  30.180   9.310
  924BOLB   PO222166  26.770  29.990   8.900
  924BOLB   GL322167  26.410  29.740   9.120
  924BOLB   GL422168  26.380  29.730   9.400
  924BOLB   C1C22169  25.970  29.670   9.240
  924BOLB   C2C22170  25.680  29.240   9.440
  924BOLB   C3C22171  25.750  28.810   9.270
  924BOLB   C4C22172  25.610  28.440   9.110
  924BOLB   C1D22173  26.150  29.480   9.660
  924BOLB   C2D22174  25.830  29.340  10.000
  924BOLB   C3D22175  25.530  29.240  10.360
  924BOLB   C4D22176  25.200  28.960  10.440
  925BOLB   NC122177   9.410  21.230  11.600
  925BOLB   PO122178   9.500  21.100  11.160
  925BOLB   GL122179   9.590  20.620  11.200
  925BOLB   GL222180   9.930  20.530  11.320
  925BOLB   C1A22181   9.650  20.200  11.090
  925BOLB   C2A22182   9.590  19.780  11.040
  925BOLB   C3A22183   9.640  19.320  11.060
  925BOLB   C4A22184   9.740  19.000  11.020
  925BOLB   C1B22185  10.000  20.120  11.470
  925BOLB   C2B22186   9.840  19.990  11.770
  925BOLB   C3B22187   9.820  19.620  11.930
  925BOLB   C4B22188  10.140  19.300  11.860
  925BOLB   NC222189   8.670  17.000  10.480
  925BOLB   PO222190   9.080  16.970  10.360
  925BOLB   GL322191   9.430  17.300  10.460
  925BOLB   GL422192   9.630  17.190  10.670
  925BOLB   C1C22193   9.600  17.690  10.380
  925BOLB   C2C22194   9.860  17.970  10.590
  925BOLB   C3C22195   9.800  18.310  10.880
  925BOLB   C4C22196   9.910  18.680  10.760
  925BOLB   C1D22197   9.970  17.340  10.350
  925BOLB   C2D22198  10.210  17.470  10.010
  925BOLB   C3D22199  10.040  17.470   9.530
  925BOLB   C4D22200  10.290  17.610   9.160
  926BOLB   NC122201  17.190  28.580   8.710
  926BOLB   PO122202  17.460  28.810   8.900
  926BOLB   GL122203  17.570  29.100   8.600
  926BOLB   GL222204  17.410  28.950   8.390
  926BOLB   C1A22205  17.440  29.530   8.390
  926BOLB   C2A22206  17.660  29.840   8.190
  926BOLB   C3A22207  17.810  30.340   8.340
  926BOLB   C4A22208  18.150  30.610   8.350
  926BOLB   C1B22209  17.660  29.170   8.110
  926BOLB   C2B22210  17.870  29.320   7.730
  926BOLB   C3B22211  17.810  29.690   7.450
  926BOLB   C4B22212  17.890  29.880   7.020
  926BOLB   NC222213  18.220  33.190   7.860
  926BOLB   PO222214  17.870  32.920   7.880
  926BOLB   GL322215  17.750  32.540   7.920
  926BOLB   GL422216  17.830  32.560   8.250
  926BOLB   C1C22217  17.890  32.150   7.740
  926BOLB   C2C22218  18.070  31.790   7.890
  926BOLB   C3C22219  18.070  31.360   7.920
  926BOLB   C4C22220  18.210  31.040   8.160
  926BOLB   C1D22221  17.900  32.120   8.320
  926BOLB   C2D22222  18.170  31.870   8.400
  926BOLB   C3D22223  18.390  31.480   8.430
  926BOLB   C4D22224  18.310  31.180   8.690
  927BOLB   NC122225   6.550  24.140   7.220
  927BOLB   PO122226   6.890  23.880   7.250
  927BOLB   GL122227   7.230  23.730   7.440
  927BOLB   GL222228   7.360  23.540   7.230
  927BOLB   C1A22229   7.210  23.750   7.870
  927BOLB   C2A22230   7.270  23.910   8.320
  927BOLB   C3A22231   7.320  23.710   8.710
  927BOLB   C4A22232   7.590  23.550   9.050
  927BOLB   C1B22233   7.660  23.200   7.140
  927BOLB   C2B22234   7.980  23.000   7.200
  927BOLB   C3B22235   8.440  22.920   7.290
  927BOLB   C4B22236   8.540  22.510   7.460
  927BOLB   NC222237   8.730  23.220  11.410
  927BOLB   PO222238   8.610  23.630  11.210
  927BOLB   GL322239   8.250  23.830  11.070
  927BOLB   GL422240   8.200  24.060  11.340
  927BOLB   C1C22241   8.260  24.030  10.560
  927BOLB   C2C22242   8.030  23.780  10.280
  927BOLB   C3C22243   7.830  23.670   9.860
  927BOLB   C4C22244   7.830  23.650   9.380
  927BOLB   C1D22245   8.050  24.380  11.100
  927BOLB   C2D22246   7.930  24.420  10.600
  927BOLB   C3D22247   7.840  24.300  10.140
  927BOLB   C4D22248   7.620  24.420   9.710
  928BOLB   NC122249  14.860  17.310   5.260
  928BOLB   PO122250  15.020  17.730   5.080
  928BOLB   GL122251  14.810  17.370   4.720
  928BOLB   GL222252  14.590  17.140   4.860
  928BOLB   C1A22253  15.070  17.010   4.600
  928BOLB   C2A22254  15.270  16.890   4.160
  928BOLB   C3A22255  15.020  16.710   3.790
  928BOLB   C4A22256  14.630  16.740   3.600
  928BOLB   C1B22257  14.510  17.090   4.370
  928BOLB   C2B22258  14.290  17.220   3.960
  928BOLB   C3B22259  14.250  17.050   3.580
  928BOLB   C4B22260  14.540  17.020   3.240
  928BOLB   NC222261  12.600  15.100   2.450
  928BOLB   PO222262  12.970  15.250   2.480
  928BOLB   GL322263  13.250  15.500   2.430
  928BOLB   GL422264  13.230  15.640   2.850
  928BOLB   C1C22265  13.560  15.810   2.500
  928BOLB   C2C22266  13.940  15.980   2.780
  928BOLB   C3C22267  14.130  16.200   3.110
  928BOLB   C4C22268  14.320  16.560   3.360
  928BOLB   C1D22269  13.390  16.030   2.940
  928BOLB   C2D22270  13.690  16.210   3.320
  928BOLB   C3D22271  13.730  16.420   3.680
  928BOLB   C4D22272  13.830  16.320   4.110
  929BOLB   NC122273  11.980  20.470   6.030
  929BOLB   PO122274  12.060  20.670   6.490
  929BOLB   GL122275  11.600  20.650   6.400
  929BOLB   GL222276  11.360  20.420   6.500
  929BOLB   C1A22277  11.340  20.630   6.040
  929BOLB   C2A22278  11.000  20.660   5.820
  929BOLB   C3A22279  10.750  20.700   5.400
  929BOLB   C4A22280  10.650  20.960   4.980
  929BOLB   C1B22281  10.880  20.430   6.460
  929BOLB   C2B22282  10.520  20.190   6.580
  929BOLB   C3B22283  10.200  19.960   6.340
  929BOLB   C4B22284   9.970  19.720   6.090
  929BOLB   NC222285   9.110  21.760   3.330
  929BOLB   PO222286   9.080  21.410   3.610
  929BOLB   GL322287   9.100  21.310   3.920
  929BOLB   GL422288   8.970  21.430   4.220
  929BOLB   C1C22289   9.310  20.970   4.130
  929BOLB   C2C22290   9.700  20.940   4.430
  929BOLB   C3C22291  10.030  20.940   4.580
  929BOLB   C4C22292  10.320  20.770   4.780
  929BOLB   C1D22293   9.310  21.600   4.470
  929BOLB   C2D22294   9.270  21.620   4.940
  929BOLB   C3D22295   9.730  21.550   5.230
  929BOLB   C4D22296   9.920  21.250   5.610
  930BOLB   NC122297  15.690  14.800   0.700
  930BOLB   PO122298  15.300  14.710   1.050
  930BOLB   GL122299  15.390  14.930   1.430
  930BOLB   GL222300  15.660  15.060   1.350
  930BOLB   C1A22301  15.610  14.910   1.780
  930BOLB   C2A22302  15.770  14.980   2.160
  930BOLB   C3A22303  15.970  15.240   2.460
  930BOLB   C4A22304  16.090  15.590   2.670
  930BOLB   C1B22305  15.730  15.370   1.690
  930BOLB   C2B22306  15.900  15.770   1.850
  930BOLB   C3B22307  15.830  15.900   2.310
  930BOLB   C4B22308  15.760  16.260   2.460
  930BOLB   NC222309  14.190  15.490   1.430
  930BOLB   PO222310  14.450  15.290   1.610
  930BOLB   GL322311  14.780  15.370   1.900
  930BOLB   GL422312  15.190  15.290   1.770
  930BOLB   C1C22313  15.060  15.660   2.150
  930BOLB   C2C22314  15.380  15.840   2.520
  930BOLB   C3C22315  15.630  16.020   2.840
  930BOLB   C4C22316  15.970  15.990   2.810
  930BOLB   C1D22317  15.070  14.900   1.870
  930BOLB   C2D22318  14.840  14.650   2.190
  930BOLB   C3D22319  14.970  14.440   2.580
  930BOLB   C4D22320  14.710  14.160   2.830
  931BOLB   NC122321  14.240  24.550   7.360
  931BOLB   PO122322  13.990  24.920   7.350
  931BOLB   GL122323  13.820  25.190   6.950
  931BOLB   GL222324  14.010  25.330   6.740
  931BOLB   C1A22325  13.640  25.130   6.520
  931BOLB   C2A22326  13.540  25.230   6.050
  931BOLB   C3A22327  13.290  24.960   5.720
  931BOLB   C4A22328  13.020  25.180   5.490
  931BOLB   C1B22329  13.910  25.520   6.380
  931BOLB   C2B22330  13.620  25.700   6.030
  931BOLB   C3B22331  13.480  26.010   5.690
  931BOLB   C4B22332  13.120  26.100   5.500
  931BOLB   NC222333  12.300  25.920   3.270
  931BOLB   PO222334  12.170  26.070   3.760
  931BOLB   GL322335  12.470  26.000   4.210
  931BOLB   GL422336  12.760  26.170   4.310
  931BOLB   C1C22337  12.370  26.060   4.570
  931BOLB   C2C22338  12.490  26.190   4.970
  931BOLB   C3C22339  12.690  25.930   5.160
  931BOLB   C4C22340  12.750  25.470   5.250
  931BOLB   C1D22341  12.980  26.080   4.640
  931BOLB   C2D22342  13.190  25.800   4.970
  931BOLB   C3D22343  13.390  25.710   5.300
  931BOLB   C4D22344  13.420  25.510   5.630
  932BOLB   NC122345  10.550  21.340   8.390
  932BOLB   PO122346  10.330  21.550   8.700
  932BOLB   GL122347  10.010  21.500   8.350
  932BOLB   GL222348   9.740  21.480   8.540
  932BOLB   C1A22349   9.740  21.480   8.050
  932BOLB   C2A22350   9.420  21.520   7.760
  932BOLB   C3A22351   9.290  21.090   7.520
  932BOLB   C4A22352   9.170  21.030   7.150
  932BOLB   C1B22353   9.460  21.780   8.330
  932BOLB   C2B22354   9.240  22.210   8.360
  932BOLB   C3B22355   9.150  22.440   8.110
  932BOLB   C4B22356   8.830  22.610   7.930
  932BOLB   NC222357   7.160  20.860   6.380
  932BOLB   PO222358   7.210  20.790   5.950
  932BOLB   GL322359   7.540  20.980   6.160
  932BOLB   GL422360   7.480  21.330   6.120
  932BOLB   C1C22361   7.920  20.880   6.290
  932BOLB   C2C22362   8.320  20.870   6.400
  932BOLB   C3C22363   8.710  20.750   6.680
  932BOLB   C4C22364   9.070  21.010   6.760
  932BOLB   C1D22365   7.700  21.440   6.450
  932BOLB   C2D22366   7.870  21.570   6.820
  932BOLB   C3D22367   8.060  21.350   7.200
  932BOLB   C4D22368   8.270  21.030   7.440
  933BOLB   NC122369  16.290  25.560   6.650
  933BOLB   PO122370  16.510  25.170   6.480
  933BOLB   GL122371  16.440  25.540   6.150
  933BOLB   GL222372  16.600  25.790   6.250
  933BOLB   C1A22373  16.370  25.820   5.770
  933BOLB   C2A22374  16.340  25.980   5.450
  933BOLB   C3A22375  16.290  26.480   5.280
  933BOLB   C4A22376  16.010  26.830   5.030
  933BOLB   C1B22377  16.840  25.650   5.890
  933BOLB   C2B22378  16.670  25.420   5.560
  933BOLB   C3B22379  16.570  25.580   5.130
  933BOLB   C4B22380  16.500  25.710   4.720
  933BOLB   NC222381  15.470  28.390   3.770
  933BOLB   PO222382  15.490  28.790   3.840
  933BOLB   GL322383  15.730  28.600   4.180
  933BOLB   GL422384  15.840  28.740   4.560
  933BOLB   C1C22385  15.600  28.250   4.380
  933BOLB   C2C22386  15.580  28.060   4.730
  933BOLB   C3C22387  15.740  27.740   4.960
  933BOLB   C4C22388  15.760  27.290   5.150
  933BOLB   C1D22389  15.930  28.340   4.730
  933BOLB   C2D22390  16.110  28.090   5.080
  933BOLB   C3D22391  16.150  27.670   5.300
  933BOLB   C4D22392  16.380  27.410   5.570
  934BOLB   NC122393  10.870  28.370   6.030
  934BOLB   PO122394  10.920  28.210   5.620
  934BOLB   GL122395  11.360  28.190   5.650
  934BOLB   GL222396  11.490  28.290   5.990
  934BOLB   C1A22397  11.850  27.960   5.750
  934BOLB   C2A22398  12.100  27.650   5.940
  934BOLB   C3A22399  12.300  27.280   6.270
  934BOLB   C4A22400  12.530  26.990   6.520
  934BOLB   C1B22401  11.490  27.940   6.250
  934BOLB   C2B22402  11.710  27.710   6.420
  934BOLB   C3B22403  11.820  27.320   6.480
  934BOLB   C4B22404  11.870  27.020   6.780
  934BOLB   NC222405  13.880  26.300   8.400
  934BOLB   PO222406  14.290  26.230   8.140
  934BOLB   GL322407  14.010  26.230   7.750
  934BOLB   GL422408  13.630  26.100   7.960
  934BOLB   C1C22409  13.730  26.450   7.550
  934BOLB   C2C22410  13.360  26.650   7.320
  934BOLB   C3C22411  13.140  26.870   7.160
  934BOLB   C4C22412  12.870  26.860   6.780
  934BOLB   C1D22413  13.410  26.050   7.630
  934BOLB   C2D22414  13.250  26.030   7.240
  934BOLB   C3D22415  13.100  25.840   6.840
  934BOLB   C4D22416  12.790  25.770   6.630
  935BOLB   NC122417   8.770  12.850  13.060
  935BOLB   PO122418   9.050  12.590  13.180
  935BOLB   GL122419   9.220  12.690  13.510
  935BOLB   GL222420   9.540  12.600  13.600
  935BOLB   C1A22421   9.370  12.860  13.950
  935BOLB   C2A22422   9.680  12.940  14.210
  935BOLB   C3A22423   9.790  12.760  14.610
  935BOLB   C4A22424   9.910  12.500  14.920
  935BOLB   C1B22425   9.920  12.790  13.760
  935BOLB   C2B22426  10.220  12.960  13.890
  935BOLB   C3B22427  10.560  13.080  14.090
  935BOLB   C4B22428  10.770  13.300  14.380
  935BOLB   NC222429   9.260  11.270  13.590
  935BOLB   PO222430   9.750  11.230  13.720
  935BOLB   GL322431  10.010  11.250  13.990
  935BOLB   GL422432  10.260  11.140  13.820
  935BOLB   C1C22433  10.010  11.550  14.210
  935BOLB   C2C22434  10.250  11.830  14.330
  935BOLB   C3C22435  10.380  11.940  14.770
  935BOLB   C4C22436  10.200  12.270  15.040
  935BOLB   C1D22437  10.520  11.390  14.110
  935BOLB   C2D22438  10.780  11.690  14.330
  935BOLB   C3D22439  10.870  11.950  14.610
  935BOLB   C4D22440  10.880  12.380  14.600
  936BOLB   NC122441  10.020  18.530  17.450
  936BOLB   PO122442   9.530  18.670  17.680
  936BOLB   GL122443   9.350  18.390  17.990
  936BOLB   GL222444   9.300  18.090  17.850
  936BOLB   C1A22445   9.030  18.430  18.200
  936BOLB   C2A22446   8.650  18.610  18.310
  936BOLB   C3A22447   8.260  18.420  18.270
  936BOLB   C4A22448   8.010  18.210  18.570
  936BOLB   C1B22449   8.970  17.960  18.200
  936BOLB   C2B22450   8.780  17.650  18.570
  936BOLB   C3B22451   8.550  17.460  19.010
  936BOLB   C4B22452   8.750  17.020  19.050
  936BOLB   NC222453   6.460  16.690  19.720
  936BOLB   PO222454   6.490  16.990  19.300
  936BOLB   GL322455   6.590  17.200  18.970
  936BOLB   GL422456   6.540  16.990  18.650
  936BOLB   C1C22457   6.940  17.280  18.710
  936BOLB   C2C22458   7.330  17.240  18.530
  936BOLB   C3C22459   7.530  17.580  18.680
  936BOLB   C4C22460   7.810  17.830  18.660
  936BOLB   C1D22461   6.820  16.780  18.540
  936BOLB   C2D22462   7.030  16.900  18.090
  936BOLB   C3D22463   7.370  17.010  17.930
  936BOLB   C4D22464   7.720  17.250  17.840
  937BOLB   NC122465   9.480  23.480  10.310
  937BOLB   PO122466   9.130  23.590  10.520
  937BOLB   GL122467   8.690  23.310  10.410
  937BOLB   GL222468   8.400  23.460  10.660
  937BOLB   C1A22469   8.450  23.430  10.130
  937BOLB   C2A22470   8.090  23.170   9.900
  937BOLB   C3A22471   7.870  22.840   9.730
  937BOLB   C4A22472   7.620  22.560   9.560
  937BOLB   C1B22473   7.950  23.620  10.770
  937BOLB   C2B22474   7.730  23.970  10.780
  937BOLB   C3B22475   7.260  23.950  10.760
  937BOLB   C4B22476   7.070  23.700  10.510
  937BOLB   NC222477   5.830  22.960   7.940
  937BOLB   PO222478   6.060  22.650   8.070
  937BOLB   GL322479   6.030  22.800   8.410
  937BOLB   GL422480   5.730  22.950   8.480
  937BOLB   C1C22481   6.350  22.980   8.640
  937BOLB   C2C22482   6.740  22.890   8.810
  937BOLB   C3C22483   7.110  22.730   9.020
  937BOLB   C4C22484   7.200  22.590   9.370
  937BOLB   C1D22485   5.900  23.280   8.620
  937BOLB   C2D22486   6.200  23.410   8.410
  937BOLB   C3D22487   6.510  23.160   8.220
  937BOLB   C4D22488   6.990  22.980   8.310
  938BOLB   NC122489  14.400  12.050  11.630
  938BOLB   PO122490  14.000  11.960  11.820
  938BOLB   GL122491  13.830  11.570  11.940
  938BOLB   GL222492  13.840  11.320  12.200
  938BOLB   C1A22493  13.650  11.330  11.690
  938BOLB   C2A22494  13.340  10.880  11.730
  938BOLB   C3A22495  12.980  10.750  12.010
  938BOLB   C4A22496  12.690  10.960  11.890
  938BOLB   C1B22497  13.930  10.990  11.910
  938BOLB   C2B22498  13.870  10.750  11.630
  938BOLB   C3B22499  14.130  10.540  11.250
  938BOLB   C4B22500  14.150  10.300  10.920
  938BOLB   NC222501  10.650  10.490  11.170
  938BOLB   PO222502  10.380  10.730  11.370
  938BOLB   GL322503  10.780  10.990  11.410
  938BOLB   GL422504  10.890  10.860  11.680
  938BOLB   C1C22505  11.180  11.140  11.280
  938BOLB   C2C22506  11.590  11.110  11.430
  938BOLB   C3C22507  11.890  11.110  11.810
  938BOLB   C4C22508  12.310  11.200  11.920
  938BOLB   C1D22509  11.250  11.070  11.760
  938BOLB   C2D22510  11.400  11.470  11.840
  938BOLB   C3D22511  11.730  11.620  11.980
  938BOLB   C4D22512  12.140  11.790  12.190
  939BOLB   NC122513   9.110  19.070   3.960
  939BOLB   PO122514   8.800  18.780   4.140
  939BOLB   GL122515   8.970  18.870   4.530
  939BOLB   GL222516   9.060  19.130   4.440
  939BOLB   C1A22517   9.240  18.770   4.860
  939BOLB   C2A22518   9.460  18.960   5.200
  939BOLB   C3A22519   9.700  19.110   5.620
  939BOLB   C4A22520  10.040  19.360   5.720
  939BOLB   C1B22521   9.220  19.350   4.860
  939BOLB   C2B22522   9.480  19.400   5.050
  939BOLB   C3B22523   9.870  19.290   5.210
  939BOLB   C4B22524  10.050  18.980   4.890
  939BOLB   NC222525  12.360  19.320   6.240
  939BOLB   PO222526  12.560  19.140   5.840
  939BOLB   GL322527  12.100  19.220   5.700
  939BOLB   GL422528  12.010  19.490   5.800
  939BOLB   C1C22529  11.580  19.180   5.890
  939BOLB   C2C22530  11.120  19.260   5.690
  939BOLB   C3C22531  10.720  19.360   5.750
  939BOLB   C4C22532  10.350  19.440   5.980
  939BOLB   C1D22533  11.650  19.390   5.460
  939BOLB   C2D22534  11.260  19.510   5.320
  939BOLB   C3D22535  10.900  19.320   5.280
  939BOLB   C4D22536  10.630  19.400   4.980
  940BOLB   NC122537  15.230  20.820   5.270
  940BOLB   PO122538  15.350  20.510   4.920
  940BOLB   GL122539  15.410  20.760   4.560
  940BOLB   GL222540  15.600  20.810   4.540
  940BOLB   C1A22541  15.290  20.890   4.050
  940BOLB   C2A22542  15.400  20.870   3.560
  940BOLB   C3A22543  15.540  20.710   3.180
  940BOLB   C4A22544  15.390  20.820   2.810
  940BOLB   C1B22545  15.610  20.450   4.190
  940BOLB   C2B22546  15.400  20.450   3.800
  940BOLB   C3B22547  15.410  20.190   3.370
  940BOLB   C4B22548  15.460  20.030   2.940
  940BOLB   NC222549  14.660  20.000   0.730
  940BOLB   PO222550  15.070  20.140   0.600
  940BOLB   GL322551  15.420  20.310   0.890
  940BOLB   GL422552  15.570  20.040   0.830
  940BOLB   C1C22553  15.680  20.460   1.190
  940BOLB   C2C22554  15.610  20.540   1.580
  940BOLB   C3C22555  15.410  20.810   1.920
  940BOLB   C4C22556  15.490  20.790   2.410
  940BOLB   C1D22557  15.500  19.940   1.280
  940BOLB   C2D22558  15.260  20.100   1.640
  940BOLB   C3D22559  15.280  20.340   2.050
  940BOLB   C4D22560  15.400  20.280   2.510
  941BOLB   NC122561  13.720   7.930  11.100
  941BOLB   PO122562  13.570   8.310  11.140
  941BOLB   GL122563  13.580   8.520  11.460
  941BOLB   GL222564  13.650   8.890  11.460
  941BOLB   C1A22565  13.730   8.870  11.940
  941BOLB   C2A22566  13.910   9.300  12.120
  941BOLB   C3A22567  13.630   9.750  11.920
  941BOLB   C4A22568  13.430   9.740  11.550
  941BOLB   C1B22569  13.910   9.110  11.200
  941BOLB   C2B22570  13.930   9.240  10.750
  941BOLB   C3B22571  14.080   9.410  10.360
  941BOLB   C4B22572  14.150   9.740  10.080
  941BOLB   NC222573  11.270  10.260  10.490
  941BOLB   PO222574  11.500  10.020  10.600
  941BOLB   GL322575  11.880  10.280  10.610
  941BOLB   GL422576  11.710  10.500  10.540
  941BOLB   C1C22577  12.300  10.460  10.710
  941BOLB   C2C22578  12.670  10.380  10.860
  941BOLB   C3C22579  12.950  10.250  11.110
  941BOLB   C4C22580  13.260  10.010  11.240
  941BOLB   C1D22581  12.030  10.850  10.620
  941BOLB   C2D22582  12.220  11.170  10.690
  941BOLB   C3D22583  12.340  11.540  10.500
  941BOLB   C4D22584  12.620  11.930  10.390
  942BOLB   NC122585  12.700  18.750   6.880
  942BOLB   PO122586  12.790  18.850   6.380
  942BOLB   GL122587  12.450  18.720   6.280
  942BOLB   GL222588  12.320  18.550   5.870
  942BOLB   C1A22589  12.100  18.450   6.360
  942BOLB   C2A22590  11.730  18.320   6.200
  942BOLB   C3A22591  11.340  18.250   5.980
  942BOLB   C4A22592  10.880  18.000   5.710
  942BOLB   C1B22593  12.080  18.130   5.940
  942BOLB   C2B22594  11.780  17.780   6.070
  942BOLB   C3B22595  11.380  17.740   6.210
  942BOLB   C4B22596  10.980  17.550   6.400
  942BOLB   NC222597   9.690  16.250   4.880
  942BOLB   PO222598   9.840  15.940   4.720
  942BOLB   GL322599  10.170  16.000   4.970
  942BOLB   GL422600  10.300  15.770   5.080
  942BOLB   C1C22601  10.360  16.490   5.160
  942BOLB   C2C22602  10.500  16.900   5.100
  942BOLB   C3C22603  10.480  17.330   5.090
  942BOLB   C4C22604  10.630  17.670   5.330
  942BOLB   C1D22605  10.590  16.010   5.200
  942BOLB   C2D22606  10.920  16.270   5.230
  942BOLB   C3D22607  10.840  16.640   5.360
  942BOLB   C4D22608  11.180  17.020   5.330
  943BOLB   NC122609  10.860  25.850  12.880
  943BOLB   PO122610  10.660  25.910  13.180
  943BOLB   GL122611  10.480  26.150  12.970
  943BOLB   GL222612  10.360  26.150  12.690
  943BOLB   C1A22613  10.310  26.540  12.930
  943BOLB   C2A22614   9.920  26.670  13.020
  943BOLB   C3A22615   9.430  26.600  12.990
  943BOLB   C4A22616   9.060  26.820  12.940
  943BOLB   C1B22617   9.910  26.210  12.780
  943BOLB   C2B22618   9.440  26.140  12.690
  943BOLB   C3B22619   9.000  26.070  12.700
  943BOLB   C4B22620   8.740  26.400  12.560
  943BOLB   NC222621   8.480  29.210  12.160
  943BOLB   PO222622   8.320  28.940  11.830
  943BOLB   GL322623   8.520  28.630  12.140
  943BOLB   GL422624   8.380  28.650  12.330
  943BOLB   C1C22625   8.760  28.280  12.120
  943BOLB   C2C22626   8.840  27.990  12.430
  943BOLB   C3C22627   8.790  27.530  12.550
  943BOLB   C4C22628   8.850  27.130  12.630
  943BOLB   C1D22629   8.490  28.410  12.570
  943BOLB   C2D22630   8.370  27.970  12.540
  943BOLB   C3D22631   8.340  27.520  12.680
  943BOLB   C4D22632   8.080  27.160  12.500
  944BOLB   NC122633  10.120  21.090   8.650
  944BOLB   PO122634   9.760  20.940   8.860
  944BOLB   GL122635   9.400  21.160   8.770
  944BOLB   GL222636   9.240  21.560   8.990
  944BOLB   C1A22637   9.170  21.410   8.550
  944BOLB   C2A22638   9.030  21.610   8.080
  944BOLB   C3A22639   8.850  21.760   7.750
  944BOLB   C4A22640   8.480  22.010   7.640
  944BOLB   C1B22641   8.970  21.150   9.070
  944BOLB   C2B22642   8.760  20.740   9.070
  944BOLB   C3B22643   8.260  20.800   9.080
  944BOLB   C4B22644   8.010  20.730   9.370
  944BOLB   NC222645   6.980  22.220   5.800
  944BOLB   PO222646   6.840  21.980   6.190
  944BOLB   GL322647   7.290  22.090   6.130
  944BOLB   GL422648   7.400  21.800   6.330
  944BOLB   C1C22649   7.750  22.110   6.230
  944BOLB   C2C22650   8.010  21.930   6.510
  944BOLB   C3C22651   8.140  21.960   6.970
  944BOLB   C4C22652   8.210  22.090   7.350
  944BOLB   C1D22653   7.570  22.010   6.700
  944BOLB   C2D22654   7.780  22.310   6.720
  944BOLB   C3D22655   7.700  22.750   6.810
  944BOLB   C4D22656   7.580  23.180   6.690
  945BOLB   NC122657  14.930   8.760   9.450
  945BOLB   PO122658  14.850   8.860   9.000
  945BOLB   GL122659  14.740   9.280   9.250
  945BOLB   GL222660  14.870   9.230   9.560
  945BOLB   C1A22661  14.910   9.710   9.310
  945BOLB   C2A22662  15.070  10.090   9.540
  945BOLB   C3A22663  15.400  10.370   9.450
  945BOLB   C4A22664  15.730  10.570   9.570
  945BOLB   C1B22665  15.260   9.390   9.600
  945BOLB   C2B22666  15.660   9.370   9.330
  945BOLB   C3B22667  15.940   9.020   9.440
  945BOLB   C4B22668  16.070   8.800   9.680
  945BOLB   NC222669  16.680   7.860   8.960
  945BOLB   PO222670  16.610   8.290   9.230
  945BOLB   GL322671  16.590   8.640   9.460
  945BOLB   GL422672  16.550   8.840   9.210
  945BOLB   C1C22673  16.540   9.000   9.720
  945BOLB   C2C22674  16.210   9.320   9.790
  945BOLB   C3C22675  16.110   9.710   9.660
  945BOLB   C4C22676  16.010  10.210   9.570
  945BOLB   C1D22677  16.850   8.990   9.280
  945BOLB   C2D22678  16.940   9.240   9.540
  945BOLB   C3D22679  17.080   9.320   9.960
  945BOLB   C4D22680  17.350   9.360  10.350
  946BOLB   NC122681  13.200  21.520   6.170
  946BOLB   PO122682  12.780  21.540   6.020
  946BOLB   GL122683  12.830  21.870   5.760
  946BOLB   GL222684  13.140  21.800   5.730
  946BOLB   C1A22685  12.690  21.980   5.270
  946BOLB   C2A22686  12.890  21.880   4.870
  946BOLB   C3A22687  12.880  21.890   4.370
  946BOLB   C4A22688  12.550  21.980   4.000
  946BOLB   C1B22689  13.160  22.130   5.380
  946BOLB   C2B22690  13.080  22.350   5.020
  946BOLB   C3B22691  13.000  22.330   4.560
  946BOLB   C4B22692  12.790  22.400   4.170
  946BOLB   NC222693  10.800  23.160   2.940
  946BOLB   PO222694  10.800  22.810   2.820
  946BOLB   GL322695  10.950  22.510   3.070
  946BOLB   GL422696  10.880  22.270   3.190
  946BOLB   C1C22697  11.310  22.660   3.350
  946BOLB   C2C22698  11.630  22.520   3.520
  946BOLB   C3C22699  11.900  22.370   3.810
  946BOLB   C4C22700  12.180  22.300   4.100
  946BOLB   C1D22701  11.180  22.200   3.460
  946BOLB   C2D22702  11.420  22.030   3.780
  946BOLB   C3D22703  11.540  22.100   4.270
  946BOLB   C4D22704  11.390  22.420   4.550
  947BOLB   NC122705  11.180  22.850   8.450
  947BOLB   PO122706  10.760  22.700   8.710
  947BOLB   GL122707  10.370  22.760   8.430
  947BOLB   GL222708  10.270  23.130   8.480
  947BOLB   C1A22709  10.120  22.830   8.100
  947BOLB   C2A22710   9.830  22.900   7.870
  947BOLB   C3A22711   9.590  23.020   7.580
  947BOLB   C4A22712   9.300  23.200   7.430
  947BOLB   C1B22713  10.100  23.410   8.140
  947BOLB   C2B22714   9.890  23.580   7.740
  947BOLB   C3B22715  10.080  23.790   7.380
  947BOLB   C4B22716  10.080  23.880   7.000
  947BOLB   NC222717   7.210  23.590   6.360
  947BOLB   PO222718   7.470  23.980   6.260
  947BOLB   GL322719   7.670  23.950   6.720
  947BOLB   GL422720   7.590  23.660   6.830
  947BOLB   C1C22721   7.970  23.900   7.010
  947BOLB   C2C22722   8.290  23.920   7.190
  947BOLB   C3C22723   8.800  23.810   7.170
  947BOLB   C4C22724   9.150  23.690   7.320
  947BOLB   C1D22725   7.990  23.420   6.760
  947BOLB   C2D22726   8.230  23.040   6.800
  947BOLB   C3D22727   8.430  22.740   6.720
  947BOLB   C4D22728   8.250  22.380   6.470
  948BOLB   NC122729  23.310  21.900   2.230
  948BOLB   PO122730  23.370  22.380   2.450
  948BOLB   GL122731  23.490  22.450   2.910
  948BOLB   GL222732  23.520  22.080   3.050
  948BOLB   C1A22733  23.500  22.490   3.380
  948BOLB   C2A22734  23.640  22.570   3.750
  948BOLB   C3A22735  23.730  23.070   3.960
  948BOLB   C4A22736  23.580  23.150   4.310
  948BOLB   C1B22737  23.080  22.230   3.140
  948BOLB   C2B22738  22.870  22.220   3.440
  948BOLB   C3B22739  22.620  22.480   3.660
  948BOLB   C4B22740  22.840  22.620   4.060
  948BOLB   NC222741  25.490  23.590   3.860
  948BOLB   PO222742  25.150  23.750   3.680
  948BOLB   GL322743  25.060  24.050   4.060
  948BOLB   GL422744  25.080  23.830   4.220
  948BOLB   C1C22745  24.600  24.090   4.240
  948BOLB   C2C22746  24.250  23.990   4.360
  948BOLB   C3C22747  23.890  23.830   4.540
  948BOLB   C4C22748  23.700  23.560   4.430
  948BOLB   C1D22749  24.660  23.620   4.450
  948BOLB   C2D22750  24.470  23.710   4.780
  948BOLB   C3D22751  24.380  23.440   5.090
  948BOLB   C4D22752  23.930  23.300   5.230
  949BOLB   NC122753  18.770  12.590   3.440
  949BOLB   PO122754  18.480  12.340   3.380
  949BOLB   GL122755  18.190  12.720   3.350
  949BOLB   GL222756  18.330  12.800   3.690
  949BOLB   C1A22757  18.100  13.140   3.480
  949BOLB   C2A22758  18.060  13.600   3.660
  949BOLB   C3A22759  17.670  13.790   3.860
  949BOLB   C4A22760  17.440  14.000   4.150
  949BOLB   C1B22761  18.280  13.280   3.930
  949BOLB   C2B22762  17.960  13.440   4.170
  949BOLB   C3B22763  17.480  13.400   4.380
  949BOLB   C4B22764  17.090  13.200   4.390
  949BOLB   NC222765  15.670  12.620   3.050
  949BOLB   PO222766  15.890  12.710   2.640
  949BOLB   GL322767  16.080  12.880   3.060
  949BOLB   GL422768  15.930  13.020   3.200
  949BOLB   C1C22769  16.390  13.110   3.220
  949BOLB   C2C22770  16.560  13.460   3.520
  949BOLB   C3C22771  16.680  13.800   3.780
  949BOLB   C4C22772  17.030  13.950   4.110
  949BOLB   C1D22773  15.940  13.450   3.400
  949BOLB   C2D22774  15.760  13.750   3.660
  949BOLB   C3D22775  15.760  14.160   3.980
  949BOLB   C4D22776  15.640  14.440   4.130
  950BOLB   NC122777  15.220  12.960  10.150
  950BOLB   PO122778  15.140  12.710  10.460
  950BOLB   GL122779  15.010  12.350  10.260
  950BOLB   GL222780  14.670  12.340  10.290
  950BOLB   C1A22781  15.010  11.910  10.400
  950BOLB   C2A22782  14.730  11.550  10.250
  950BOLB   C3A22783  14.320  11.700  10.130
  950BOLB   C4A22784  13.890  11.550   9.980
  950BOLB   C1B22785  14.840  12.030   9.940
  950BOLB   C2B22786  14.780  11.780   9.570
  950BOLB   C3B22787  14.760  11.310   9.790
  950BOLB   C4B22788  14.420  11.200  10.120
  950BOLB   NC222789  11.930   9.980   9.070
  950BOLB   PO222790  12.140   9.920   9.560
  950BOLB   GL322791  12.360  10.250   9.320
  950BOLB   GL422792  12.170  10.430   9.520
  950BOLB   C1C22793  12.540  10.660   9.310
  950BOLB   C2C22794  12.940  10.960   9.390
  950BOLB   C3C22795  13.350  11.000   9.570
  950BOLB   C4C22796  13.560  11.240   9.780
  950BOLB   C1D22797  12.190  10.850   9.750
  950BOLB   C2D22798  12.460  11.160   9.990
  950BOLB   C3D22799  12.720  11.290  10.270
  950BOLB   C4D22800  12.970  11.600  10.530
  951BOLB   NC122801  14.170  14.620   9.590
  951BOLB   PO122802  13.850  14.340   9.450
  951BOLB   GL122803  13.580  14.410   9.220
  951BOLB   GL222804  13.550  14.760   9.380
  951BOLB   C1A22805  13.140  14.440   9.350
  951BOLB   C2A22806  12.920  14.440   8.940
  951BOLB   C3A22807  12.720  14.190   8.690
  951BOLB   C4A22808  12.380  14.210   8.360
  951BOLB   C1B22809  13.420  15.010   9.560
  951BOLB   C2B22810  13.190  15.410   9.610
  951BOLB   C3B22811  12.830  15.730   9.480
  951BOLB   C4B22812  12.460  15.940   9.760
  951BOLB   NC222813  10.190  14.290   9.170
  951BOLB   PO222814  10.310  14.170   8.730
  951BOLB   GL322815  10.640  14.100   8.770
  951BOLB   GL422816  10.800  13.920   8.900
  951BOLB   C1C22817  11.060  14.400   8.710
  951BOLB   C2C22818  11.340  14.580   8.380
  951BOLB   C3C22819  11.670  14.760   8.220
  951BOLB   C4C22820  11.980  14.570   8.300
  951BOLB   C1D22821  11.130  14.160   9.100
  951BOLB   C2D22822  11.520  14.400   9.000
  951BOLB   C3D22823  11.780  14.470   8.840
  951BOLB   C4D22824  12.160  14.670   8.810
  952BOLB   NC122825  12.650   9.090  10.330
  952BOLB   PO122826  12.490   9.030  10.810
  952BOLB   GL122827  12.710   9.370  10.870
  952BOLB   GL222828  13.000   9.490  10.620
  952BOLB   C1A22829  12.840   9.800  10.910
  952BOLB   C2A22830  13.040  10.160  10.630
  952BOLB   C3A22831  13.270  10.550  10.830
  952BOLB   C4A22832  13.050  10.870  11.060
  952BOLB   C1B22833  13.260   9.740  10.730
  952BOLB   C2B22834  13.600  10.070  10.790
  952BOLB   C3B22835  13.660  10.390  11.070
  952BOLB   C4B22836  13.620  10.890  10.910
  952BOLB   NC222837  13.580  12.300  12.630
  952BOLB   PO222838  13.410  12.110  12.910
  952BOLB   GL322839  13.180  11.900  12.680
  952BOLB   GL422840  13.300  11.950  12.350
  952BOLB   C1C22841  12.810  11.760  12.440
  952BOLB   C2C22842  12.700  11.420  12.130
  952BOLB   C3C22843  12.640  11.440  11.660
  952BOLB   C4C22844  12.720  11.080  11.330
  952BOLB   C1D22845  13.190  11.740  12.110
  952BOLB   C2D22846  13.130  11.420  11.880
  952BOLB   C3D22847  13.140  11.220  11.510
  952BOLB   C4D22848  13.300  11.290  11.200
  953BOLB   NC122849  16.250  28.040   8.660
  953BOLB   PO122850  16.590  28.020   8.940
  953BOLB   GL122851  16.650  28.320   8.700
  953BOLB   GL222852  16.630  28.370   8.380
  953BOLB   C1A22853  16.480  28.760   8.680
  953BOLB   C2A22854  16.170  28.980   8.650
  953BOLB   C3A22855  16.120  29.540   8.670
  953BOLB   C4A22856  16.070  29.920   8.460
  953BOLB   C1B22857  16.430  28.540   8.160
  953BOLB   C2B22858  16.410  28.810   7.880
  953BOLB   C3B22859  16.330  29.010   7.600
  953BOLB   C4B22860  16.050  29.110   7.340
  953BOLB   NC222861  14.850  31.480   6.890
  953BOLB   PO222862  15.210  31.230   6.730
  953BOLB   GL322863  15.450  31.180   7.040
  953BOLB   GL422864  15.770  30.990   6.960
  953BOLB   C1C22865  15.690  31.000   7.460
  953BOLB   C2C22866  15.930  30.660   7.650
  953BOLB   C3C22867  15.900  30.400   7.890
  953BOLB   C4C22868  16.080  30.280   8.310
  953BOLB   C1D22869  15.950  30.670   6.910
  953BOLB   C2D22870  15.920  30.220   6.860
  953BOLB   C3D22871  15.850  29.880   6.720
  953BOLB   C4D22872  15.530  29.720   6.630
  954BOLB   NC122873  23.590  10.840  15.930
  954BOLB   PO122874  23.560  10.590  15.580
  954BOLB   GL122875  23.450  10.950  15.460
  954BOLB   GL222876  23.160  11.050  15.400
  954BOLB   C1A22877  23.170  11.330  15.810
  954BOLB   C2A22878  22.800  11.510  16.080
  954BOLB   C3A22879  22.440  11.730  15.970
  954BOLB   C4A22880  22.270  12.090  15.930
  954BOLB   C1B22881  22.990  11.480  15.330
  954BOLB   C2B22882  22.570  11.700  15.440
  954BOLB   C3B22883  22.270  12.140  15.430
  954BOLB   C4B22884  22.150  12.580  15.370
  954BOLB   NC222885  22.280  11.020  18.200
  954BOLB   PO222886  22.500  11.370  18.400
  954BOLB   GL322887  22.370  11.730  18.050
  954BOLB   GL422888  22.470  12.000  18.120
  954BOLB   C1C22889  22.460  11.790  17.600
  954BOLB   C2C22890  22.180  12.020  17.280
  954BOLB   C3C22891  22.070  12.380  16.940
  954BOLB   C4C22892  22.100  12.350  16.380
  954BOLB   C1D22893  22.460  12.460  17.970
  954BOLB   C2D22894  22.570  12.900  18.070
  954BOLB   C3D22895  22.310  13.250  18.030
  954BOLB   C4D22896  22.300  13.530  18.310
  955BOLB   NC122897  11.290  22.000   7.930
  955BOLB   PO122898  11.420  22.070   7.430
  955BOLB   GL122899  11.330  22.080   7.010
  955BOLB   GL222900  11.680  21.920   7.050
  955BOLB   C1A22901  11.040  22.260   6.650
  955BOLB   C2A22902  10.750  22.320   6.280
  955BOLB   C3A22903  10.640  22.370   5.960
  955BOLB   C4A22904  10.340  22.420   5.720
  955BOLB   C1B22905  11.670  21.770   6.670
  955BOLB   C2B22906  11.340  21.820   6.400
  955BOLB   C3B22907  11.040  21.790   6.190
  955BOLB   C4B22908  10.910  21.910   5.820
  955BOLB   NC222909   7.660  22.880   5.550
  955BOLB   PO222910   7.900  22.610   5.480
  955BOLB   GL322911   8.350  22.710   5.450
  955BOLB   GL422912   8.620  22.830   5.220
  955BOLB   C1C22913   8.820  22.470   5.460
  955BOLB   C2C22914   9.210  22.420   5.370
  955BOLB   C3C22915   9.710  22.490   5.360
  955BOLB   C4C22916  10.140  22.510   5.390
  955BOLB   C1D22917   9.010  22.850   5.130
  955BOLB   C2D22918   9.280  22.630   4.900
  955BOLB   C3D22919   9.750  22.400   4.880
  955BOLB   C4D22920  10.200  22.440   4.770
  956BOLB   NC122921  21.340  18.710   6.720
  956BOLB   PO122922  20.930  18.740   6.530
  956BOLB   GL122923  21.230  18.590   6.190
  956BOLB   GL222924  21.260  18.180   6.240
  956BOLB   C1A22925  21.510  18.710   5.900
  956BOLB   C2A22926  21.920  18.590   5.550
  956BOLB   C3A22927  22.100  18.560   5.050
  956BOLB   C4A22928  22.140  18.330   4.870
  956BOLB   C1B22929  21.320  18.270   5.770
  956BOLB   C2B22930  21.600  18.140   5.450
  956BOLB   C3B22931  22.020  18.080   5.260
  956BOLB   C4B22932  22.240  17.840   5.000
  956BOLB   NC222933  24.190  17.650   3.420
  956BOLB   PO222934  23.710  17.710   3.280
  956BOLB   GL322935  23.450  17.740   3.580
  956BOLB   GL422936  23.190  17.490   3.450
  956BOLB   C1C22937  23.010  17.710   3.990
  956BOLB   C2C22938  22.740  17.750   4.290
  956BOLB   C3C22939  22.510  17.880   4.600
  956BOLB   C4C22940  22.210  18.130   4.520
  956BOLB   C1D22941  22.750  17.410   3.570
  956BOLB   C2D22942  22.630  17.280   3.940
  956BOLB   C3D22943  22.480  17.160   4.310
  956BOLB   C4D22944  22.420  17.360   4.670
  957BOLB   NC122945  14.370  14.220   8.630
  957BOLB   PO122946  14.490  13.880   8.600
  957BOLB   GL122947  14.200  13.530   8.630
  957BOLB   GL222948  14.230  13.280   8.870
  957BOLB   C1A22949  13.970  13.250   8.370
  957BOLB   C2A22950  13.850  13.190   8.010
  957BOLB   C3A22951  13.970  12.980   7.640
  957BOLB   C4A22952  14.270  12.610   7.590
  957BOLB   C1B22953  13.760  13.210   8.940
  957BOLB   C2B22954  13.610  12.750   9.000
  957BOLB   C3B22955  13.610  12.260   9.080
  957BOLB   C4B22956  13.430  11.930   9.310
  957BOLB   NC222957  13.350  10.210   6.760
  957BOLB   PO222958  13.760  10.200   6.750
  957BOLB   GL322959  13.980  10.590   6.790
  957BOLB   GL422960  13.950  10.790   6.480
  957BOLB   C1C22961  14.110  10.940   6.990
  957BOLB   C2C22962  14.040  11.360   7.030
  957BOLB   C3C22963  14.150  11.840   7.130
  957BOLB   C4C22964  14.170  12.340   7.310
  957BOLB   C1D22965  14.190  11.130   6.560
  957BOLB   C2D22966  14.340  11.610   6.660
  957BOLB   C3D22967  14.460  11.920   6.510
  957BOLB   C4D22968  14.500  12.160   6.180
  958BOLB   NC122969  11.200  16.300  19.100
  958BOLB   PO122970  11.640  16.500  19.030
  958BOLB   GL122971  11.620  16.710  19.390
  958BOLB   GL222972  11.900  16.610  19.600
  958BOLB   C1A22973  11.450  16.870  19.760
  958BOLB   C2A22974  11.230  16.940  20.070
  958BOLB   C3A22975  10.940  16.950  20.310
  958BOLB   C4A22976  10.490  16.750  20.500
  958BOLB   C1B22977  12.160  16.470  19.970
  958BOLB   C2B22978  12.040  16.500  20.480
  958BOLB   C3B22979  11.980  16.350  20.850
  958BOLB   C4B22980  11.860  15.950  20.740
  958BOLB   NC222981   9.100  15.460  22.140
  958BOLB   PO222982   9.160  15.920  21.960
  958BOLB   GL322983   9.550  15.890  21.690
  958BOLB   GL422984   9.760  16.110  21.590
  958BOLB   C1C22985   9.670  15.660  21.370
  958BOLB   C2C22986   9.990  15.850  21.070
  958BOLB   C3C22987  10.080  16.100  20.760
  958BOLB   C4C22988  10.420  16.350  20.560
  958BOLB   C1D22989   9.520  16.230  21.190
  958BOLB   C2D22990   9.620  16.280  20.800
  958BOLB   C3D22991   9.910  16.360  20.400
  958BOLB   C4D22992   9.830  16.600  20.060
  959BOLB   NC122993  13.690  19.590   5.400
  959BOLB   PO122994  14.060  19.580   5.070
  959BOLB   GL122995  13.540  19.700   4.920
  959BOLB   GL222996  13.520  19.570   4.620
  959BOLB   C1A22997  13.340  20.040   4.700
  959BOLB   C2A22998  13.130  20.260   4.420
  959BOLB   C3A22999  12.900  20.480   4.130
  959BOLB   C4A23000  12.520  20.370   4.030
  959BOLB   C1B23001  13.460  19.560   4.140
  959BOLB   C2B23002  13.170  19.600   3.670
  959BOLB   C3B23003  13.070  19.520   3.180
  959BOLB   C4B23004  12.960  19.170   2.990
  959BOLB   NC223005  11.260  22.470   2.690
  959BOLB   PO223006  11.090  22.020   2.700
  959BOLB   GL323007  11.370  21.920   3.100
  959BOLB   GL423008  11.430  22.210   3.060
  959BOLB   C1C23009  11.510  21.540   3.520
  959BOLB   C2C23010  11.460  21.080   3.510
  959BOLB   C3C23011  11.720  20.770   3.590
  959BOLB   C4C23012  12.180  20.630   3.870
  959BOLB   C1D23013  11.780  22.040   3.410
  959BOLB   C2D23014  11.950  21.600   3.290
  959BOLB   C3D23015  12.360  21.300   3.420
  959BOLB   C4D23016  12.690  21.200   3.710
  960BOLB   NC123017  10.390  14.360   6.730
  960BOLB   PO123018  10.360  14.270   7.170
  960BOLB   GL123019  10.700  14.410   7.220
  960BOLB   GL223020  10.910  14.310   7.000
  960BOLB   C1A23021  11.000  14.650   7.320
  960BOLB   C2A23022  11.460  14.680   7.270
  960BOLB   C3A23023  11.910  14.640   7.290
  960BOLB   C4A23024  12.120  14.570   6.990
  960BOLB   C1B23025  11.070  14.710   6.840
  960BOLB   C2B23026  11.050  14.950   6.600
  960BOLB   C3B23027  10.780  15.180   6.400
  960BOLB   C4B23028  10.660  15.430   6.100
  960BOLB   NC223029  14.000  14.300   8.370
  960BOLB   PO223030  13.950  14.040   8.080
  960BOLB   GL323031  13.750  13.880   7.760
  960BOLB   GL423032  13.880  13.920   7.500
  960BOLB   C1C23033  13.350  13.890   7.560
  960BOLB   C2C23034  13.040  13.990   7.330
  960BOLB   C3C23035  12.630  14.100   7.250
  960BOLB   C4C23036  12.510  14.360   6.940
  960BOLB   C1D23037  13.550  13.990   7.140
  960BOLB   C2D23038  13.410  13.740   6.750
  960BOLB   C3D23039  13.330  13.290   6.770
  960BOLB   C4D23040  13.050  13.120   6.720
  961BOLB   NC123041  17.750  13.230   9.580
  961BOLB   PO123042  18.020  13.040   9.120
  961BOLB   GL123043  18.350  12.830   9.130
  961BOLB   GL223044  18.550  12.670   9.430
  961BOLB   C1A23045  18.530  12.530   8.880
  961BOLB   C2A23046  18.630  12.400   8.510
  961BOLB   C3A23047  18.650  11.880   8.430
  961BOLB   C4A23048  18.770  11.710   7.990
  961BOLB   C1B23049  18.550  12.230   9.280
  961BOLB   C2B23050  18.770  11.860   9.340
  961BOLB   C3B23051  19.120  11.650   9.360
  961BOLB   C4B23052  19.240  11.390   8.910
  961BOLB   NC223053  19.920  10.370   6.210
  961BOLB   PO223054  19.740  10.390   6.700
  961BOLB   GL323055  19.400  10.480   6.980
  961BOLB   GL423056  19.590  10.420   7.210
  961BOLB   C1C23057  19.080  10.400   7.240
  961BOLB   C2C23058  18.700  10.500   7.490
  961BOLB   C3C23059  18.560  10.910   7.700
  961BOLB   C4C23060  18.560  11.400   7.730
  961BOLB   C1D23061  19.570  10.880   7.270
  961BOLB   C2D23062  19.450  11.280   7.470
  961BOLB   C3D23063  19.520  11.720   7.490
  961BOLB   C4D23064  19.510  11.930   7.070
  962BOLB   NC123065  12.450  21.620   6.940
  962BOLB   PO123066  12.260  22.010   6.890
  962BOLB   GL123067  11.980  22.140   6.730
  962BOLB   GL223068  12.040  22.440   6.590
  962BOLB   C1A23069  11.900  22.060   6.280
  962BOLB   C2A23070  11.690  21.720   6.040
  962BOLB   C3A23071  11.330  21.640   5.700
  962BOLB   C4A23072  11.040  21.600   5.440
  962BOLB   C1B23073  11.610  22.370   6.470
  962BOLB   C2B23074  11.330  22.250   6.180
  962BOLB   C3B23075  11.140  22.410   5.930
  962BOLB   C4B23076  10.970  22.780   5.840
  962BOLB   NC223077  10.850  21.740   3.080
  962BOLB   PO223078  10.450  21.970   3.260
  962BOLB   GL323079  10.660  21.760   3.550
  962BOLB   GL423080  10.990  21.790   3.570
  962BOLB   C1C23081  10.690  21.730   3.950
  962BOLB   C2C23082  10.580  21.750   4.370
  962BOLB   C3C23083  10.710  21.750   4.780
  962BOLB   C4C23084  10.950  21.590   4.940
  962BOLB   C1D23085  11.170  21.610   3.950
  962BOLB   C2D23086  11.190  21.460   4.350
  962BOLB   C3D23087  10.990  21.150   4.580
  962BOLB   C4D23088  10.910  20.670   4.680
  963BOLB   NC123089  16.600  20.790   5.190
  963BOLB   PO123090  16.530  20.560   4.810
  963BOLB   GL123091  16.380  20.820   4.460
  963BOLB   GL223092  16.060  20.710   4.370
  963BOLB   C1A23093  16.270  21.020   4.060
  963BOLB   C2A23094  16.060  21.120   3.680
  963BOLB   C3A23095  15.880  21.180   3.370
  963BOLB   C4A23096  15.860  21.010   2.900
  963BOLB   C1B23097  16.000  20.600   3.950
  963BOLB   C2B23098  15.910  20.610   3.480
  963BOLB   C3B23099  16.030  20.580   3.090
  963BOLB   C4B23100  15.820  20.550   2.710
  963BOLB   NC223101  13.740  21.910   1.370
  963BOLB   PO223102  14.070  21.500   1.380
  963BOLB   GL323103  14.110  21.590   1.860
  963BOLB   GL423104  13.850  21.820   1.990
  963BOLB   C1C23105  14.380  21.460   2.170
  963BOLB   C2C23106  14.740  21.170   2.210
  963BOLB   C3C23107  15.190  21.160   2.240
  963BOLB   C4C23108  15.600  21.250   2.630
  963BOLB   C1D23109  13.960  21.610   2.400
  963BOLB   C2D23110  14.160  21.550   2.780
  963BOLB   C3D23111  14.380  21.590   3.180
  963BOLB   C4D23112  14.530  21.410   3.550
  964BOLB   NC123113  15.720  17.960   0.830
  964BOLB   PO123114  15.760  17.510   0.890
  964BOLB   GL123115  15.680  17.660   1.260
  964BOLB   GL223116  15.300  17.660   1.210
  964BOLB   C1A23117  15.550  17.690   1.720
  964BOLB   C2A23118  15.670  17.990   2.020
  964BOLB   C3A23119  15.800  18.130   2.280
  964BOLB   C4A23120  15.930  18.560   2.390
  964BOLB   C1B23121  15.100  17.950   1.540
  964BOLB   C2B23122  15.220  18.210   1.970
  964BOLB   C3B23123  15.310  18.510   2.320
  964BOLB   C4B23124  15.550  18.720   2.620
  964BOLB   NC223125  15.470  18.810   0.290
  964BOLB   PO223126  15.100  18.960   0.270
  964BOLB   GL323127  15.200  19.010   0.760
  964BOLB   GL423128  14.920  19.010   1.060
  964BOLB   C1C23129  15.410  18.900   1.140
  964BOLB   C2C23130  15.580  18.890   1.490
  964BOLB   C3C23131  15.960  19.030   1.710
  964BOLB   C4C23132  16.040  18.830   2.070
  964BOLB   C1D23133  14.920  18.660   1.320
  964BOLB   C2D23134  14.770  18.380   1.720
  964BOLB   C3D23135  14.730  18.430   2.190
  964BOLB   C4D23136  14.870  18.280   2.620
  965BOLB   NC123137  16.990  26.670   7.140
  965BOLB   PO123138  16.610  26.630   7.190
  965BOLB   GL123139  16.720  26.880   6.780
  965BOLB   GL223140  16.950  26.910   6.640
  965BOLB   C1A23141  16.530  27.100   6.440
  965BOLB   C2A23142  16.260  27.310   6.180
  965BOLB   C3A23143  15.980  27.460   5.880
  965BOLB   C4A23144  15.750  27.550   5.570
  965BOLB   C1B23145  16.970  27.010   6.200
  965BOLB   C2B23146  16.760  27.360   6.000
  965BOLB   C3B23147  16.440  27.720   5.940
  965BOLB   C4B23148  16.160  27.920   5.720
  965BOLB   NC223149  15.350  28.930   4.340
  965BOLB   PO223150  15.320  29.310   4.450
  965BOLB   GL323151  15.510  29.300   4.880
  965BOLB   GL423152  15.920  29.520   4.910
  965BOLB   C1C23153  15.740  28.890   5.040
  965BOLB   C2C23154  15.980  28.550   5.150
  965BOLB   C3C23155  15.780  28.200   5.410
  965BOLB   C4C23156  15.600  27.840   5.520
  965BOLB   C1D23157  16.280  29.550   5.160
  965BOLB   C2D23158  16.440  29.350   5.570
  965BOLB   C3D23159  16.590  29.280   5.950
  965BOLB   C4D23160  16.400  29.210   6.330
  966BOLB   NC123161  13.550  15.440  16.090
  966BOLB   PO123162  13.320  15.210  15.800
  966BOLB   GL123163  13.130  15.340  15.420
  966BOLB   GL223164  12.950  15.660  15.510
  966BOLB   C1A23165  13.170  15.280  14.980
  966BOLB   C2A23166  13.200  15.090  14.600
  966BOLB   C3A23167  13.250  15.320  14.270
  966BOLB   C4A23168  13.240  15.290  13.860
  966BOLB   C1B23169  12.860  15.700  15.100
  966BOLB   C2B23170  12.600  15.880  14.740
  966BOLB   C3B23171  12.660  16.050  14.330
  966BOLB   C4B23172  12.810  15.970  13.890
  966BOLB   NC223173  13.450  16.990  12.290
  966BOLB   PO223174  13.700  16.990  12.590
  966BOLB   GL323175  13.870  16.580  12.490
  966BOLB   GL423176  14.160  16.510  12.770
  966BOLB   C1C23177  13.780  16.100  12.510
  966BOLB   C2C23178  13.760  15.670  12.720
  966BOLB   C3C23179  13.560  15.630  13.110
  966BOLB   C4C23180  13.380  15.400  13.470
  966BOLB   C1D23181  14.470  16.320  12.830
  966BOLB   C2D23182  14.880  16.290  13.080
  966BOLB   C3D23183  14.850  16.230  13.550
  966BOLB   C4D23184  14.780  16.470  13.880
  967BOLB   NC123185  16.190  14.170   7.040
  967BOLB   PO123186  16.550  13.800   7.150
  967BOLB   GL123187  16.530  13.610   6.810
  967BOLB   GL223188  16.780  13.740   6.490
  967BOLB   C1A23189  16.680  13.250   6.630
  967BOLB   C2A23190  16.770  12.730   6.590
  967BOLB   C3A23191  16.770  12.430   6.840
  967BOLB   C4A23192  16.550  12.040   6.810
  967BOLB   C1B23193  16.850  13.650   6.050
  967BOLB   C2B23194  16.820  13.420   5.650
  967BOLB   C3B23195  16.350  13.300   5.730
  967BOLB   C4B23196  16.020  13.250   5.480
  967BOLB   NC223197  16.100  10.140   5.460
  967BOLB   PO223198  16.320  10.380   5.350
  967BOLB   GL323199  16.100  10.780   5.340
  967BOLB   GL423200  15.820  10.830   5.330
  967BOLB   C1C23201  16.170  10.910   5.730
  967BOLB   C2C23202  16.320  11.150   5.970
  967BOLB   C3C23203  16.270  11.320   6.340
  967BOLB   C4C23204  16.380  11.570   6.650
  967BOLB   C1D23205  15.820  11.260   5.490
  967BOLB   C2D23206  15.810  11.670   5.740
  967BOLB   C3D23207  15.340  11.660   5.820
  967BOLB   C4D23208  14.970  11.700   5.890
  968BOLB   NC123209  14.090  15.020   6.920
  968BOLB   PO123210  14.520  14.980   6.680
  968BOLB   GL123211  14.500  14.640   6.410
  968BOLB   GL223212  14.750  14.560   6.240
  968BOLB   C1A23213  14.350  14.230   6.150
  968BOLB   C2A23214  14.210  14.230   5.690
  968BOLB   C3A23215  14.230  14.200   5.210
  968BOLB   C4A23216  13.850  14.170   4.770
  968BOLB   C1B23217  14.680  14.350   5.840
  968BOLB   C2B23218  14.710  14.340   5.420
  968BOLB   C3B23219  15.060  14.240   4.980
  968BOLB   C4B23220  15.520  13.940   4.990
  968BOLB   NC223221  12.770  12.750   3.660
  968BOLB   PO223222  12.740  12.520   4.120
  968BOLB   GL323223  12.750  12.910   4.120
  968BOLB   GL423224  12.980  13.060   4.460
  968BOLB   C1C23225  12.750  13.320   4.090
  968BOLB   C2C23226  12.820  13.650   4.380
  968BOLB   C3C23227  13.010  13.930   4.550
  968BOLB   C4C23228  13.460  14.000   4.690
  968BOLB   C1D23229  13.090  13.390   4.700
  968BOLB   C2D23230  13.300  13.600   4.930
  968BOLB   C3D23231  13.590  13.940   5.130
  968BOLB   C4D23232  13.780  14.040   5.420
  969BOLB   NC123233  21.010  23.510   1.580
  969BOLB   PO123234  20.730  23.560   1.890
  969BOLB   GL123235  20.840  23.870   2.170
  969BOLB   GL223236  21.090  23.810   2.460
  969BOLB   C1A23237  20.660  24.180   2.480
  969BOLB   C2A23238  20.310  24.200   2.830
  969BOLB   C3A23239  20.170  24.360   3.270
  969BOLB   C4A23240  19.820  24.730   3.390
  969BOLB   C1B23241  20.730  23.680   2.740
  969BOLB   C2B23242  20.740  23.550   3.250
  969BOLB   C3B23243  20.810  23.430   3.650
  969BOLB   C4B23244  20.840  23.270   4.140
  969BOLB   NC223245  21.090  26.240   1.580
  969BOLB   PO223246  20.870  26.010   1.890
  969BOLB   GL323247  20.770  25.780   2.290
  969BOLB   GL423248  20.850  25.470   2.360
  969BOLB   C1C23249  20.400  25.670   2.580
  969BOLB   C2C23250  20.150  25.500   2.910
  969BOLB   C3C23251  19.840  25.310   3.100
  969BOLB   C4C23252  19.660  24.990   3.350
  969BOLB   C1D23253  20.900  25.610   2.740
  969BOLB   C2D23254  20.700  25.800   3.070
  969BOLB   C3D23255  20.830  25.620   3.450
  969BOLB   C4D23256  21.100  25.270   3.390
  970BOLB   NC123257  25.320  25.740   4.170
  970BOLB   PO123258  25.450  25.370   4.160
  970BOLB   GL123259  25.060  25.160   4.320
  970BOLB   GL223260  24.990  25.420   4.540
  970BOLB   C1A23261  24.670  25.040   4.430
  970BOLB   C2A23262  24.360  24.910   4.640
  970BOLB   C3A23263  24.210  25.170   4.910
  970BOLB   C4A23264  24.030  25.460   5.200
  970BOLB   C1B23265  24.610  25.460   4.680
  970BOLB   C2B23266  24.370  25.800   4.690
  970BOLB   C3B23267  24.280  26.040   4.320
  970BOLB   C4B23268  24.210  26.380   4.460
  970BOLB   NC223269  23.380  26.660   3.080
  970BOLB   PO223270  23.560  26.910   3.400
  970BOLB   GL323271  23.420  26.890   3.790
  970BOLB   GL423272  23.030  26.800   3.910
  970BOLB   C1C23273  23.540  26.690   4.250
  970BOLB   C2C23274  23.720  26.580   4.700
  970BOLB   C3C23275  23.870  26.210   4.830
  970BOLB   C4C23276  23.900  25.770   4.940
  970BOLB   C1D23277  23.010  26.700   4.310
  970BOLB   C2D23278  23.160  26.750   4.730
  970BOLB   C3D23279  22.960  26.520   5.150
  970BOLB   C4D23280  22.590  26.350   5.150
  971BOLB   NC123281  13.690  17.880   5.670
  971BOLB   PO123282  13.720  17.490   5.880
  971BOLB   GL123283  13.380  17.410   5.690
  971BOLB   GL223284  13.230  17.640   5.470
  971BOLB   C1A23285  13.240  17.170   5.400
  971BOLB   C2A23286  13.140  17.080   4.970
  971BOLB   C3A23287  13.020  16.910   4.540
  971BOLB   C4A23288  12.880  16.560   4.320
  971BOLB   C1B23289  12.860  17.450   5.200
  971BOLB   C2B23290  12.550  17.250   4.990
  971BOLB   C3B23291  12.210  17.240   4.730
  971BOLB   C4B23292  11.780  17.300   4.700
  971BOLB   NC223293  10.970  16.370   2.530
  971BOLB   PO223294  11.220  16.100   2.720
  971BOLB   GL323295  11.640  15.920   2.840
  971BOLB   GL423296  11.520  15.720   3.140
  971BOLB   C1C23297  12.010  16.020   3.130
  971BOLB   C2C23298  12.340  16.010   3.460
  971BOLB   C3C23299  12.270  16.020   3.800
  971BOLB   C4C23300  12.560  16.280   4.030
  971BOLB   C1D23301  11.600  16.070   3.370
  971BOLB   C2D23302  11.890  16.290   3.600
  971BOLB   C3D23303  11.970  16.350   4.020
  971BOLB   C4D23304  11.950  15.960   4.210
  972BOLB   NC123305  27.020  21.860   5.190
  972BOLB   PO123306  27.150  22.160   5.480
  972BOLB   GL123307  26.820  22.120   5.710
  972BOLB   GL223308  26.840  22.400   5.960
  972BOLB   C1A23309  26.590  21.930   6.070
  972BOLB   C2A23310  26.160  21.800   6.340
  972BOLB   C3A23311  25.770  21.720   6.560
  972BOLB   C4A23312  25.590  21.510   6.860
  972BOLB   C1B23313  26.440  22.400   6.110
  972BOLB   C2B23314  26.130  22.540   6.360
  972BOLB   C3B23315  25.860  22.640   6.720
  972BOLB   C4B23316  25.670  22.770   7.000
  972BOLB   NC223317  27.830  19.930   7.300
  972BOLB   PO223318  27.510  19.940   7.040
  972BOLB   GL323319  27.150  20.220   7.130
  972BOLB   GL423320  27.210  20.590   6.950
  972BOLB   C1C23321  26.670  20.460   6.990
  972BOLB   C2C23322  26.160  20.490   7.000
  972BOLB   C3C23323  25.750  20.620   6.920
  972BOLB   C4C23324  25.620  21.030   6.880
  972BOLB   C1D23325  26.860  20.920   7.000
  972BOLB   C2D23326  26.620  21.290   7.340
  972BOLB   C3D23327  26.340  21.530   7.390
  972BOLB   C4D23328  26.170  21.910   7.610
  973BOLB   NC123329  17.270  18.590   0.760
  973BOLB   PO123330  16.950  18.310   0.690
  973BOLB   GL123331  16.840  18.200   1.060
  973BOLB   GL223332  17.170  18.330   1.230
  973BOLB   C1A23333  16.740  18.290   1.580
  973BOLB   C2A23334  16.730  18.560   1.950
  973BOLB   C3A23335  17.030  18.590   2.170
  973BOLB   C4A23336  17.420  18.810   2.220
  973BOLB   C1B23337  17.110  18.700   1.320
  973BOLB   C2B23338  17.070  18.890   1.680
  973BOLB   C3B23339  17.050  19.100   2.130
  973BOLB   C4B23340  17.260  19.220   2.550
  973BOLB   NC223341  17.910  19.520   0.090
  973BOLB   PO223342  17.460  19.370   0.240
  973BOLB   GL323343  17.660  19.500   0.620
  973BOLB   GL423344  17.450  19.700   0.750
  973BOLB   C1C23345  17.750  19.320   1.010
  973BOLB   C2C23346  17.380  19.220   1.330
  973BOLB   C3C23347  17.420  19.370   1.730
  973BOLB   C4C23348  17.640  19.190   2.120
  973BOLB   C1D23349  17.340  19.670   1.130
  973BOLB   C2D23350  17.350  19.950   1.510
  973BOLB   C3D23351  17.360  20.080   1.890
  973BOLB   C4D23352  17.550  20.110   2.150
  974BOLB   NC123353   7.070  26.990   9.020
  974BOLB   PO123354   7.080  26.640   9.080
  974BOLB   GL123355   7.310  26.610   9.340
  974BOLB   GL223356   7.170  26.500   9.640
  974BOLB   C1A23357   7.740  26.590   9.360
  974BOLB   C2A23358   8.020  26.250   9.310
  974BOLB   C3A23359   8.310  25.960   9.500
  974BOLB   C4A23360   8.450  25.570   9.480
  974BOLB   C1B23361   7.540  26.230   9.620
  974BOLB   C2B23362   7.810  25.920   9.850
  974BOLB   C3B23363   8.140  25.690   9.930
  974BOLB   C4B23364   8.550  25.470  10.020
  974BOLB   NC223365   6.440  26.080   9.590
  974BOLB   PO223366   6.390  26.000   9.130
  974BOLB   GL323367   6.780  25.760   9.250
  974BOLB   GL423368   7.040  25.950   9.490
  974BOLB   C1C23369   7.100  25.710   9.000
  974BOLB   C2C23370   7.630  25.560   8.970
  974BOLB   C3C23371   7.990  25.290   9.070
  974BOLB   C4C23372   8.390  25.240   9.150
  974BOLB   C1D23373   7.300  25.860   9.900
  974BOLB   C2D23374   7.390  25.570  10.200
  974BOLB   C3D23375   7.550  25.370  10.560
  974BOLB   C4D23376   7.910  25.220  10.700
  975BOLB   NC123377  23.740  25.650   8.310
  975BOLB   PO123378  23.810  25.300   8.000
  975BOLB   GL123379  24.020  25.470   7.630
  975BOLB   GL223380  24.130  25.250   7.450
  975BOLB   C1A23381  24.100  25.790   7.380
  975BOLB   C2A23382  24.240  26.020   7.190
  975BOLB   C3A23383  24.550  26.190   6.860
  975BOLB   C4A23384  24.900  26.150   6.880
  975BOLB   C1B23385  24.430  25.210   7.210
  975BOLB   C2B23386  24.750  24.950   6.950
  975BOLB   C3B23387  24.900  24.660   6.740
  975BOLB   C4B23388  25.240  24.650   6.400
  975BOLB   NC223389  26.370  26.120   5.230
  975BOLB   PO223390  26.160  26.580   5.240
  975BOLB   GL323391  25.710  26.390   5.290
  975BOLB   GL423392  25.520  26.560   5.030
  975BOLB   C1C23393  25.410  26.320   5.610
  975BOLB   C2C23394  25.330  26.060   5.950
  975BOLB   C3C23395  25.280  25.900   6.360
  975BOLB   C4C23396  25.060  25.880   6.690
  975BOLB   C1D23397  25.360  26.760   5.400
  975BOLB   C2D23398  24.970  26.680   5.650
  975BOLB   C3D23399  24.700  26.550   6.060
  975BOLB   C4D23400  24.360  26.450   6.330
  976BOLB   NC123401  17.830   7.960  10.950
  976BOLB   PO123402  17.800   7.990  11.290
  976BOLB   GL123403  17.550   8.380  11.430
  976BOLB   GL223404  17.260   8.180  11.550
  976BOLB   C1A23405  17.570   8.750  11.400
  976BOLB   C2A23406  17.600   9.140  11.310
  976BOLB   C3A23407  17.180   9.490  11.340
  976BOLB   C4A23408  17.050   9.980  11.360
  976BOLB   C1B23409  17.160   8.640  11.660
  976BOLB   C2B23410  17.140   9.030  11.560
  976BOLB   C3B23411  17.100   9.370  11.900
  976BOLB   C4B23412  17.370   9.750  11.870
  976BOLB   NC223413  16.050  12.610  10.720
  976BOLB   PO223414  16.290  12.150  10.660
  976BOLB   GL323415  16.390  11.770  10.580
  976BOLB   GL423416  16.110  11.640  10.350
  976BOLB   C1C23417  16.440  11.260  10.460
  976BOLB   C2C23418  16.590  10.860  10.640
  976BOLB   C3C23419  16.770  10.510  10.780
  976BOLB   C4C23420  16.840  10.190  10.940
  976BOLB   C1D23421  16.050  11.390  10.090
  976BOLB   C2D23422  16.140  10.910  10.200
  976BOLB   C3D23423  16.100  10.640   9.880
  976BOLB   C4D23424  16.210  10.670   9.360
  977BOLB   NC123425  11.850  29.850   7.410
  977BOLB   PO123426  12.110  30.180   7.460
  977BOLB   GL123427  12.370  29.850   7.450
  977BOLB   GL223428  12.220  29.660   7.810
  977BOLB   C1A23429  12.510  29.430   7.290
  977BOLB   C2A23430  12.280  29.080   7.170
  977BOLB   C3A23431  12.440  28.730   7.410
  977BOLB   C4A23432  12.670  28.680   7.850
  977BOLB   C1B23433  12.500  29.500   8.180
  977BOLB   C2B23434  12.750  29.180   8.290
  977BOLB   C3B23435  12.970  28.800   8.360
  977BOLB   C4B23436  13.170  28.370   8.360
  977BOLB   NC223437  10.830  29.500   8.090
  977BOLB   PO223438  11.200  29.720   7.990
  977BOLB   GL323439  11.330  29.430   8.220
  977BOLB   GL423440  11.360  29.160   8.010
  977BOLB   C1C23441  11.580  29.470   8.620
  977BOLB   C2C23442  11.940  29.220   8.740
  977BOLB   C3C23443  12.340  29.130   8.570
  977BOLB   C4C23444  12.340  28.870   8.210
  977BOLB   C1D23445  11.700  29.060   7.810
  977BOLB   C2D23446  11.970  28.660   7.730
  977BOLB   C3D23447  12.260  28.350   7.820
  977BOLB   C4D23448  12.340  27.930   7.700
  978BOLB   NC123449  18.840   9.750   7.550
  978BOLB   PO123450  19.220   9.750   7.820
  978BOLB   GL123451  19.270  10.060   8.160
  978BOLB   GL223452  19.030  10.080   8.370
  978BOLB   C1A23453  19.340  10.450   8.230
  978BOLB   C2A23454  19.280  10.890   8.180
  978BOLB   C3A23455  19.270  10.980   8.600
  978BOLB   C4A23456  19.310  10.750   8.980
  978BOLB   C1B23457  18.610  10.340   8.320
  978BOLB   C2B23458  18.290  10.700   8.100
  978BOLB   C3B23459  18.280  11.100   8.120
  978BOLB   C4B23460  18.330  11.480   8.470
  978BOLB   NC223461  21.250   9.410   9.380
  978BOLB   PO223462  20.970   9.460   9.760
  978BOLB   GL323463  20.620   9.780   9.760
  978BOLB   GL423464  20.880  10.040   9.820
  978BOLB   C1C23465  20.470  10.320   9.700
  978BOLB   C2C23466  20.200  10.450   9.250
  978BOLB   C3C23467  19.840  10.390   9.280
  978BOLB   C4C23468  19.470  10.530   9.190
  978BOLB   C1D23469  20.930  10.340  10.130
  978BOLB   C2D23470  20.760  10.760  10.330
  978BOLB   C3D23471  20.470  11.100  10.380
  978BOLB   C4D23472  19.980  11.220  10.550
  979BOLB   NC123473  16.950  16.220   0.910
  979BOLB   PO123474  17.080  15.950   1.170
  979BOLB   GL123475  17.330  16.070   1.440
  979BOLB   GL223476  17.410  15.730   1.490
  979BOLB   C1A23477  17.310  16.130   1.950
  979BOLB   C2A23478  17.340  16.170   2.440
  979BOLB   C3A23479  17.440  15.970   2.930
  979BOLB   C4A23480  17.550  15.670   3.310
  979BOLB   C1B23481  17.050  15.750   1.880
  979BOLB   C2B23482  17.030  15.860   2.190
  979BOLB   C3B23483  17.040  15.900   2.680
  979BOLB   C4B23484  16.880  15.950   3.110
  979BOLB   NC223485  18.630  14.130   1.870
  979BOLB   PO223486  18.860  14.530   1.920
  979BOLB   GL323487  18.630  14.850   2.300
  979BOLB   GL423488  18.760  14.750   2.600
  979BOLB   C1C23489  18.330  14.930   2.690
  979BOLB   C2C23490  18.050  14.850   3.000
  979BOLB   C3C23491  17.930  14.980   3.380
  979BOLB   C4C23492  17.780  15.310   3.410
  979BOLB   C1D23493  18.800  15.080   2.970
  979BOLB   C2D23494  18.810  15.180   3.340
  979BOLB   C3D23495  18.760  15.400   3.710
  979BOLB   C4D23496  18.990  15.650   4.010
  980BOLB   NC123497  14.210  13.970   2.450
  980BOLB   PO123498  14.350  13.500   2.550
  980BOLB   GL123499  14.490  13.670   2.960
  980BOLB   GL223500  14.520  13.520   3.170
  980BOLB   C1A23501  14.690  13.950   3.320
  980BOLB   C2A23502  15.080  14.260   3.480
  980BOLB   C3A23503  15.500  14.590   3.530
  980BOLB   C4A23504  15.530  15.030   3.530
  980BOLB   C1B23505  14.850  13.420   3.430
  980BOLB   C2B23506  15.140  13.440   3.760
  980BOLB   C3B23507  15.380  13.550   3.990
  980BOLB   C4B23508  15.330  13.930   3.800
  980BOLB   NC223509  13.810  16.030   1.640
  980BOLB   PO223510  14.190  15.940   1.650
  980BOLB   GL323511  14.270  15.650   1.920
  980BOLB   GL423512  14.000  15.770   2.070
  980BOLB   C1C23513  14.480  15.630   2.350
  980BOLB   C2C23514  14.630  15.390   2.850
  980BOLB   C3C23515  14.980  15.170   3.070
  980BOLB   C4C23516  15.320  15.280   3.290
  980BOLB   C1D23517  14.010  15.720   2.420
  980BOLB   C2D23518  14.150  15.470   2.810
  980BOLB   C3D23519  14.330  15.530   3.260
  980BOLB   C4D23520  14.460  15.620   3.700
  981BOLB   NC123521  16.760  16.300   4.980
  981BOLB   PO123522  17.130  16.400   4.860
  981BOLB   GL123523  17.380  16.130   4.560
  981BOLB   GL223524  17.490  15.900   4.740
  981BOLB   C1A23525  17.510  16.040   4.210
  981BOLB   C2A23526  17.590  15.910   3.810
  981BOLB   C3A23527  17.950  15.800   3.630
  981BOLB   C4A23528  18.090  15.780   3.270
  981BOLB   C1B23529  17.460  15.620   4.440
  981BOLB   C2B23530  17.470  15.500   4.040
  981BOLB   C3B23531  17.450  15.170   3.910
  981BOLB   C4B23532  17.350  15.120   3.460
  981BOLB   NC223533  17.420  15.020   0.840
  981BOLB   PO223534  17.550  14.710   1.150
  981BOLB   GL323535  17.580  14.750   1.590
  981BOLB   GL423536  17.430  14.430   1.730
  981BOLB   C1C23537  17.590  15.200   1.800
  981BOLB   C2C23538  17.860  15.310   2.110
  981BOLB   C3C23539  18.040  15.320   2.530
  981BOLB   C4C23540  17.960  15.460   2.910
  981BOLB   C1D23541  17.070  14.550   1.890
  981BOLB   C2D23542  16.620  14.690   1.930
  981BOLB   C3D23543  16.390  15.090   1.830
  981BOLB   C4D23544  16.220  15.370   2.020
  982BOLB   NC123545  23.740  10.700  15.070
  982BOLB   PO123546  24.000  11.050  14.990
  982BOLB   GL123547  23.740  11.260  15.170
  982BOLB   GL223548  24.030  11.470  15.370
  982BOLB   C1A23549  23.510  11.700  15.060
  982BOLB   C2A23550  23.240  12.130  14.940
  982BOLB   C3A23551  23.020  12.350  14.690
  982BOLB   C4A23552  22.550  12.160  14.640
  982BOLB   C1B23553  23.860  11.780  15.380
  982BOLB   C2B23554  23.420  11.820  15.570
  982BOLB   C3B23555  23.000  11.830  15.680
  982BOLB   C4B23556  22.680  12.160  15.710
  982BOLB   NC223557  24.200  10.380  13.540
  982BOLB   PO223558  24.140  10.500  14.060
  982BOLB   GL323559  23.770  10.670  13.910
  982BOLB   GL423560  23.670  10.460  13.620
  982BOLB   C1C23561  23.350  10.950  13.870
  982BOLB   C2C23562  23.220  11.330  13.870
  982BOLB   C3C23563  22.860  11.460  14.200
  982BOLB   C4C23564  22.480  11.750  14.400
  982BOLB   C1D23565  23.720  10.930  13.490
  982BOLB   C2D23566  23.630  11.340  13.600
  982BOLB   C3D23567  23.380  11.760  13.600
  982BOLB   C4D23568  23.120  12.100  13.480
  983BOLB   NC123569  13.780  12.530   3.120
  983BOLB   PO123570  13.840  13.010   3.290
  983BOLB   GL123571  14.190  13.110   3.530
  983BOLB   GL223572  14.220  13.070   3.880
  983BOLB   C1A23573  14.420  13.540   3.660
  983BOLB   C2A23574  14.780  13.760   3.790
  983BOLB   C3A23575  14.970  13.840   4.190
  983BOLB   C4A23576  15.440  13.920   4.340
  983BOLB   C1B23577  14.340  13.180   4.210
  983BOLB   C2B23578  14.200  13.440   4.620
  983BOLB   C3B23579  14.340  13.820   4.820
  983BOLB   C4B23580  14.650  14.000   5.070
  983BOLB   NC223581  14.730  12.700   2.870
  983BOLB   PO223582  15.180  12.730   2.980
  983BOLB   GL323583  15.360  12.910   3.320
  983BOLB   GL423584  15.510  13.290   3.330
  983BOLB   C1C23585  15.390  12.960   3.720
  983BOLB   C2C23586  15.680  13.180   3.870
  983BOLB   C3C23587  15.940  13.390   4.090
  983BOLB   C4C23588  15.790  13.720   4.330
  983BOLB   C1D23589  15.360  13.710   3.340
  983BOLB   C2D23590  15.660  14.150   3.320
  983BOLB   C3D23591  16.010  14.430   3.530
  983BOLB   C4D23592  16.040  14.930   3.630
  984BOLB   NC123593   8.440  18.650   4.500
  984BOLB   PO123594   8.460  18.400   4.870
  984BOLB   GL123595   8.590  18.540   5.220
  984BOLB   GL223596   8.560  18.430   5.510
  984BOLB   C1A23597   9.050  18.700   5.360
  984BOLB   C2A23598   9.240  18.740   5.720
  984BOLB   C3A23599   9.370  19.030   6.020
  984BOLB   C4A23600   9.430  19.360   6.110
  984BOLB   C1B23601   9.000  18.190   5.510
  984BOLB   C2B23602   9.340  18.220   5.790
  984BOLB   C3B23603   9.800  18.170   6.030
  984BOLB   C4B23604  10.150  18.100   6.220
  984BOLB   NC223605  11.110  20.320   7.840
  984BOLB   PO223606  11.080  20.470   7.470
  984BOLB   GL323607  10.810  20.390   7.070
  984BOLB   GL423608  10.990  20.150   6.930
  984BOLB   C1C23609  10.420  20.250   7.290
  984BOLB   C2C23610  10.130  20.040   7.110
  984BOLB   C3C23611   9.860  19.840   6.860
  984BOLB   C4C23612   9.700  19.560   6.520
  984BOLB   C1D23613  10.630  19.870   6.990
  984BOLB   C2D23614  10.280  19.570   6.790
  984BOLB   C3D23615  10.130  19.380   6.420
  984BOLB   C4D23616   9.920  19.170   6.170
  985BOLB   NC123617  15.040  20.390   5.330
  985BOLB   PO123618  14.720  20.390   5.120
  985BOLB   GL123619  14.830  20.510   4.710
  985BOLB   GL223620  14.740  20.150   4.520
  985BOLB   C1A23621  14.600  20.620   4.370
  985BOLB   C2A23622  14.490  20.360   4.010
  985BOLB   C3A23623  14.410  20.420   3.600
  985BOLB   C4A23624  14.140  20.180   3.470
  985BOLB   C1B23625  14.430  19.920   4.210
  985BOLB   C2B23626  14.450  19.910   3.770
  985BOLB   C3B23627  14.410  19.800   3.350
  985BOLB   C4B23628  14.560  19.700   3.000
  985BOLB   NC223629  12.820  20.810   1.460
  985BOLB   PO223630  13.180  20.530   1.440
  985BOLB   GL323631  13.360  20.580   1.780
  985BOLB   GL423632  13.560  20.940   1.780
  985BOLB   C1C23633  13.500  20.340   2.150
  985BOLB   C2C23634  13.510  20.110   2.600
  985BOLB   C3C23635  13.790  20.260   2.910
  985BOLB   C4C23636  13.780  20.250   3.260
  985BOLB   C1D23637  13.890  20.660   1.910
  985BOLB   C2D23638  13.920  20.630   2.340
  985BOLB   C3D23639  14.080  20.700   2.810
  985BOLB   C4D23640  14.220  20.640   3.110
  986BOLB   NC123641  12.200  27.270  12.040
  986BOLB   PO123642  12.090  27.330  11.630
  986BOLB   GL123643  11.920  27.670  11.650
  986BOLB   GL223644  12.040  27.880  11.390
  986BOLB   C1A23645  11.530  27.790  11.810
  986BOLB   C2A23646  11.350  28.160  11.640
  986BOLB   C3A23647  11.490  28.560  11.500
  986BOLB   C4A23648  11.730  28.850  11.510
  986BOLB   C1B23649  11.610  27.930  11.240
  986BOLB   C2B23650  11.310  28.150  11.040
  986BOLB   C3B23651  11.250  28.710  11.040
  986BOLB   C4B23652  10.970  29.110  11.010
  986BOLB   NC223653  10.860  31.030  11.030
  986BOLB   PO223654  11.160  31.270  11.360
  986BOLB   GL323655  11.250  30.820  11.400
  986BOLB   GL423656  11.040  30.640  11.210
  986BOLB   C1C23657  11.390  30.380  11.470
  986BOLB   C2C23658  11.590  30.010  11.680
  986BOLB   C3C23659  11.720  29.570  11.690
  986BOLB   C4C23660  11.930  29.160  11.780
  986BOLB   C1D23661  11.080  30.290  11.020
  986BOLB   C2D23662  11.000  29.890  10.850
  986BOLB   C3D23663  11.120  29.510  10.790
  986BOLB   C4D23664  11.360  29.180  10.730
  987BOLB   NC123665  16.150  24.890   6.650
  987BOLB   PO123666  16.420  24.660   6.360
  987BOLB   GL123667  16.300  24.860   6.100
  987BOLB   GL223668  16.100  24.640   5.880
  987BOLB   C1A23669  16.280  25.170   5.770
  987BOLB   C2A23670  16.160  25.490   5.460
  987BOLB   C3A23671  16.130  25.750   5.120
  987BOLB   C4A23672  15.820  26.150   5.180
  987BOLB   C1B23673  15.990  24.940   5.430
  987BOLB   C2B23674  16.280  25.090   5.130
  987BOLB   C3B23675  16.170  25.380   4.750
  987BOLB   C4B23676  16.120  25.160   4.310
  987BOLB   NC223677  15.160  27.550   3.220
  987BOLB   PO223678  15.350  27.140   3.020
  987BOLB   GL323679  15.510  26.970   3.320
  987BOLB   GL423680  15.700  26.700   3.270
  987BOLB   C1C23681  15.530  27.030   3.740
  987BOLB   C2C23682  15.570  26.760   4.040
  987BOLB   C3C23683  15.670  26.600   4.430
  987BOLB   C4C23684  15.770  26.390   4.810
  987BOLB   C1D23685  15.520  26.460   3.660
  987BOLB   C2D23686  15.510  26.190   4.010
  987BOLB   C3D23687  15.750  26.070   4.350
  987BOLB   C4D23688  15.560  25.810   4.770
  988BOLB   NC123689  17.120  23.020   5.390
  988BOLB   PO123690  17.420  23.340   5.430
  988BOLB   GL123691  17.280  23.230   4.920
  988BOLB   GL223692  17.200  22.850   4.890
  988BOLB   C1A23693  17.180  23.380   4.460
  988BOLB   C2A23694  16.880  23.190   4.090
  988BOLB   C3A23695  16.690  23.310   3.680
  988BOLB   C4A23696  16.770  23.470   3.230
  988BOLB   C1B23697  17.150  22.910   4.480
  988BOLB   C2B23698  17.390  23.000   4.190
  988BOLB   C3B23699  17.380  23.280   3.920
  988BOLB   C4B23700  17.260  23.400   3.530
  988BOLB   NC223701  17.240  24.810   1.280
  988BOLB   PO223702  17.410  24.940   1.550
  988BOLB   GL323703  17.210  24.660   1.800
  988BOLB   GL423704  17.000  24.720   2.070
  988BOLB   C1C23705  17.400  24.350   2.000
  988BOLB   C2C23706  17.250  24.000   2.320
  988BOLB   C3C23707  17.250  23.850   2.780
  988BOLB   C4C23708  16.970  23.640   2.980
  988BOLB   C1D23709  17.050  24.430   2.430
  988BOLB   C2D23710  16.720  24.220   2.710
  988BOLB   C3D23711  16.580  23.860   2.800
  988BOLB   C4D23712  16.530  23.520   2.790
  989BOLB   NC123713   6.370  16.640  18.970
  989BOLB   PO123714   6.430  16.270  18.930
  989BOLB   GL123715   6.950  16.360  18.830
  989BOLB   GL223716   6.870  16.640  18.980
  989BOLB   C1A23717   7.080  16.360  18.380
  989BOLB   C2A23718   7.430  16.750  18.340
  989BOLB   C3A23719   7.830  16.700  18.070
  989BOLB   C4A23720   8.220  16.760  18.310
  989BOLB   C1B23721   7.270  16.720  18.840
  989BOLB   C2B23722   7.670  16.960  18.700
  989BOLB   C3B23723   7.780  17.150  18.310
  989BOLB   C4B23724   8.190  17.180  18.060
  989BOLB   NC223725   7.630  16.830  20.680
  989BOLB   PO223726   8.110  16.760  20.790
  989BOLB   GL323727   8.100  16.860  20.370
  989BOLB   GL423728   7.760  16.770  20.200
  989BOLB   C1C23729   8.270  16.780  20.030
  989BOLB   C2C23730   8.340  16.800  19.580
  989BOLB   C3C23731   8.190  16.920  19.170
  989BOLB   C4C23732   8.170  16.800  18.750
  989BOLB   C1D23733   7.870  16.910  19.790
  989BOLB   C2D23734   8.010  17.180  19.540
  989BOLB   C3D23735   8.400  17.450  19.480
  989BOLB   C4D23736   8.750  17.590  19.620
  990BOLB   NC123737  15.600  25.090   6.720
  990BOLB   PO123738  15.880  25.370   6.740
  990BOLB   GL123739  15.720  25.580   6.520
  990BOLB   GL223740  16.010  25.950   6.410
  990BOLB   C1A23741  15.360  25.510   6.290
  990BOLB   C2A23742  15.390  25.630   5.920
  990BOLB   C3A23743  15.130  25.580   5.460
  990BOLB   C4A23744  15.160  25.570   4.940
  990BOLB   C1B23745  16.170  26.170   6.090
  990BOLB   C2B23746  16.250  26.430   5.770
  990BOLB   C3B23747  15.860  26.540   5.520
  990BOLB   C4B23748  15.550  26.750   5.270
  990BOLB   NC223749  13.830  26.270   3.120
  990BOLB   PO223750  13.580  26.360   3.300
  990BOLB   GL323751  13.590  26.020   3.670
  990BOLB   GL423752  13.610  25.920   4.040
  990BOLB   C1C23753  13.910  25.680   3.740
  990BOLB   C2C23754  14.230  25.540   4.050
  990BOLB   C3C23755  14.530  25.470   4.290
  990BOLB   C4C23756  14.880  25.590   4.610
  990BOLB   C1D23757  13.700  25.520   4.310
  990BOLB   C2D23758  14.050  25.340   4.550
  990BOLB   C3D23759  14.420  25.130   4.710
  990BOLB   C4D23760  14.620  24.830   4.990
  991BOLB   NC123761  17.180  12.800   2.200
  991BOLB   PO123762  16.740  12.870   2.180
  991BOLB   GL123763  16.630  13.290   2.480
  991BOLB   GL223764  16.720  13.570   2.490
  991BOLB   C1A23765  16.280  13.440   2.850
  991BOLB   C2A23766  16.350  13.730   3.120
  991BOLB   C3A23767  16.170  14.020   3.460
  991BOLB   C4A23768  16.340  14.230   3.840
  991BOLB   C1B23769  16.730  14.050   2.630
  991BOLB   C2B23770  16.600  14.430   2.810
  991BOLB   C3B23771  16.570  14.900   2.950
  991BOLB   C4B23772  16.620  15.430   2.880
  991BOLB   NC223773  15.970  14.900   6.000
  991BOLB   PO223774  16.300  14.940   5.780
  991BOLB   GL323775  16.260  14.570   5.700
  991BOLB   GL423776  16.600  14.460   5.500
  991BOLB   C1C23777  16.080  14.250   5.400
  991BOLB   C2C23778  15.820  14.310   5.050
  991BOLB   C3C23779  15.950  14.310   4.540
  991BOLB   C4C23780  16.120  14.470   4.190
  991BOLB   C1D23781  16.650  14.260   5.290
  991BOLB   C2D23782  16.780  13.910   5.070
  991BOLB   C3D23783  17.040  13.540   5.200
  991BOLB   C4D23784  17.450  13.280   5.480
  992BOLB   NC123785  15.350  27.040   8.630
  992BOLB   PO123786  15.350  27.140   8.190
  992BOLB   GL123787  15.080  27.420   8.230
  992BOLB   GL223788  14.820  27.310   8.060
  992BOLB   C1A23789  15.100  27.720   7.950
  992BOLB   C2A23790  14.990  28.110   7.730
  992BOLB   C3A23791  14.840  28.550   7.540
  992BOLB   C4A23792  14.780  28.830   7.260
  992BOLB   C1B23793  14.390  27.510   7.850
  992BOLB   C2B23794  14.060  27.840   7.880
  992BOLB   C3B23795  13.860  28.130   7.640
  992BOLB   C4B23796  13.540  28.410   7.460
  992BOLB   NC223797  14.480  30.950   6.040
  992BOLB   PO223798  14.500  30.680   6.350
  992BOLB   GL323799  14.370  30.330   6.550
  992BOLB   GL423800  14.110  30.350   6.720
  992BOLB   C1C23801  14.410  29.880   6.690
  992BOLB   C2C23802  14.410  29.440   6.720
  992BOLB   C3C23803  14.150  29.050   6.980
  992BOLB   C4C23804  14.380  29.010   7.340
  992BOLB   C1D23805  14.420  30.260   7.060
  992BOLB   C2D23806  14.540  30.340   7.420
  992BOLB   C3D23807  14.740  30.760   7.560
  992BOLB   C4D23808  14.940  31.020   7.950
  993BOLB   NC123809  14.140  28.370  12.980
  993BOLB   PO123810  14.270  27.920  13.090
  993BOLB   GL123811  13.880  28.140  13.380
  993BOLB   GL223812  13.960  28.390  13.460
  993BOLB   C1A23813  13.500  28.230  13.560
  993BOLB   C2A23814  13.240  28.540  13.630
  993BOLB   C3A23815  12.810  28.730  13.710
  993BOLB   C4A23816  12.470  28.900  13.860
  993BOLB   C1B23817  13.820  28.750  13.530
  993BOLB   C2B23818  13.680  29.210  13.360
  993BOLB   C3B23819  13.510  29.720  13.290
  993BOLB   C4B23820  13.360  30.080  13.160
  993BOLB   NC223821  10.720  31.130  13.940
  993BOLB   PO223822  10.890  30.730  14.160
  993BOLB   GL323823  11.130  30.380  14.330
  993BOLB   GL423824  10.940  30.340  14.590
  993BOLB   C1C23825  11.230  29.980  14.080
  993BOLB   C2C23826  11.360  29.580  14.150
  993BOLB   C3C23827  11.700  29.260  14.250
  993BOLB   C4C23828  12.060  29.150  14.110
  993BOLB   C1D23829  11.110  29.990  14.640
  993BOLB   C2D23830  11.350  29.550  14.670
  993BOLB   C3D23831  11.710  29.190  14.760
  993BOLB   C4D23832  12.110  29.230  15.060
  994BOLB   NC123833   9.020  27.450   7.590
  994BOLB   PO123834   8.700  27.230   7.570
  994BOLB   GL123835   9.090  27.050   7.390
  994BOLB   GL223836   9.160  26.810   7.180
  994BOLB   C1A23837   9.480  27.170   7.260
  994BOLB   C2A23838   9.970  27.080   7.190
  994BOLB   C3A23839  10.280  26.910   7.520
  994BOLB   C4A23840  10.710  27.040   7.480
  994BOLB   C1B23841   9.150  26.700   7.690
  994BOLB   C2B23842   9.240  26.240   7.860
  994BOLB   C3B23843   9.590  26.040   7.920
  994BOLB   C4B23844   9.940  25.860   8.040
  994BOLB   NC223845  11.810  27.030   4.640
  994BOLB   PO223846  11.350  27.080   4.870
  994BOLB   GL323847  11.390  27.080   5.310
  994BOLB   GL423848  11.310  27.410   5.350
  994BOLB   C1C23849  11.380  27.060   5.780
  994BOLB   C2C23850  11.560  26.960   6.220
  994BOLB   C3C23851  11.390  26.970   6.700
  994BOLB   C4C23852  11.060  27.030   7.040
  994BOLB   C1D23853  11.670  27.510   5.630
  994BOLB   C2D23854  11.520  27.510   5.970
  994BOLB   C3D23855  11.270  27.390   6.320
  994BOLB   C4D23856  11.040  27.350   6.660
  995BOLB   NC123857  15.940  20.460   4.820
  995BOLB   PO123858  16.180  20.250   4.580
  995BOLB   GL123859  16.070  20.220   4.180
  995BOLB   GL223860  16.330  20.000   4.000
  995BOLB   C1A23861  15.940  20.130   3.730
  995BOLB   C2A23862  15.910  20.120   3.320
  995BOLB   C3A23863  15.930  20.080   2.930
  995BOLB   C4A23864  16.140  20.190   2.550
  995BOLB   C1B23865  16.350  19.880   3.520
  995BOLB   C2B23866  16.480  19.700   3.130
  995BOLB   C3B23867  16.510  19.300   2.970
  995BOLB   C4B23868  16.420  18.900   2.850
  995BOLB   NC223869  16.550  19.820   0.460
  995BOLB   PO223870  16.710  20.160   0.340
  995BOLB   GL323871  16.690  20.250   0.710
  995BOLB   GL423872  16.850  20.530   0.720
  995BOLB   C1C23873  16.550  20.390   1.060
  995BOLB   C2C23874  16.510  20.290   1.530
  995BOLB   C3C23875  16.290  20.210   1.860
  995BOLB   C4C23876  16.360  20.100   2.280
  995BOLB   C1D23877  17.000  20.570   1.120
  995BOLB   C2D23878  16.670  20.790   1.400
  995BOLB   C3D23879  16.390  20.880   1.690
  995BOLB   C4D23880  16.440  21.140   2.030
  996BOLB   NC123881   9.420  29.190   8.900
  996BOLB   PO123882   8.990  29.210   8.850
  996BOLB   GL123883   9.120  28.800   9.080
  996BOLB   GL223884   9.410  28.700   8.920
  996BOLB   C1A23885   9.540  28.530   9.310
  996BOLB   C2A23886   9.910  28.290   9.390
  996BOLB   C3A23887  10.060  27.920   9.590
  996BOLB   C4A23888   9.920  27.500   9.780
  996BOLB   C1B23889   9.680  28.480   8.840
  996BOLB   C2B23890  10.040  28.180   8.830
  996BOLB   C3B23891  10.200  27.800   9.040
  996BOLB   C4B23892  10.250  27.410   9.180
  996BOLB   NC223893  10.810  26.490  11.450
  996BOLB   PO223894  11.040  26.370  11.050
  996BOLB   GL323895  10.710  26.250  10.910
  996BOLB   GL423896  10.580  26.520  11.050
  996BOLB   C1C23897  10.350  26.230  10.730
  996BOLB   C2C23898  10.210  26.510  10.450
  996BOLB   C3C23899  10.020  26.830  10.100
  996BOLB   C4C23900  10.050  27.240  10.100
  996BOLB   C1D23901  10.320  26.740  10.850
  996BOLB   C2D23902  10.080  27.100  10.950
  996BOLB   C3D23903   9.750  27.310  11.200
  996BOLB   C4D23904   9.530  27.470  11.590
  997BOLB   NC123905  13.340  18.600   5.780
  997BOLB   PO123906  13.670  18.390   5.520
  997BOLB   GL123907  13.420  18.150   5.370
  997BOLB   GL223908  13.500  17.930   5.100
  997BOLB   C1A23909  12.990  18.030   5.190
  997BOLB   C2A23910  12.930  17.950   4.660
  997BOLB   C3A23911  12.670  17.850   4.410
  997BOLB   C4A23912  12.730  17.710   4.040
  997BOLB   C1B23913  13.420  17.750   4.660
  997BOLB   C2B23914  13.200  17.780   4.260
  997BOLB   C3B23915  13.130  18.000   3.950
  997BOLB   C4B23916  12.970  18.130   3.540
  997BOLB   NC223917  13.200  17.410   1.220
  997BOLB   PO223918  12.860  17.430   1.520
  997BOLB   GL323919  12.890  17.310   2.010
  997BOLB   GL423920  13.120  17.360   2.160
  997BOLB   C1C23921  12.700  17.440   2.450
  997BOLB   C2C23922  12.720  17.370   2.850
  997BOLB   C3C23923  12.800  17.470   3.250
  997BOLB   C4C23924  12.930  17.650   3.640
  997BOLB   C1D23925  13.180  17.450   2.580
  997BOLB   C2D23926  13.250  17.480   3.030
  997BOLB   C3D23927  13.400  17.660   3.470
  997BOLB   C4D23928  13.580  17.780   3.910
  998BOLB   NC123929  21.740  26.140   7.450
  998BOLB   PO123930  22.180  25.920   7.380
  998BOLB   GL123931  22.130  26.230   7.080
  998BOLB   GL223932  22.400  26.370   6.950
  998BOLB   C1A23933  21.880  26.460   6.820
  998BOLB   C2A23934  21.900  26.710   6.500
  998BOLB   C3A23935  22.010  27.140   6.320
  998BOLB   C4A23936  22.010  27.440   5.980
  998BOLB   C1B23937  22.680  26.640   6.750
  998BOLB   C2B23938  22.880  26.400   6.300
  998BOLB   C3B23939  23.220  26.520   6.120
  998BOLB   C4B23940  23.290  26.390   5.640
  998BOLB   NC223941  21.810  29.020   3.900
  998BOLB   PO223942  22.010  28.690   3.720
  998BOLB   GL323943  22.070  28.300   3.990
  998BOLB   GL423944  21.890  28.520   4.210
  998BOLB   C1C23945  22.120  28.100   4.390
  998BOLB   C2C23946  22.020  27.770   4.710
  998BOLB   C3C23947  22.040  27.480   5.120
  998BOLB   C4C23948  22.030  27.270   5.530
  998BOLB   C1D23949  21.720  28.630   4.600
  998BOLB   C2D23950  21.740  28.710   4.960
  998BOLB   C3D23951  21.770  28.810   5.340
  998BOLB   C4D23952  21.680  28.660   5.740
  999BOLB   NC123953  14.110  14.110   9.770
  999BOLB   PO123954  14.300  13.760   9.980
  999BOLB   GL123955  13.890  13.490   9.980
  999BOLB   GL223956  13.770  13.520   9.700
  999BOLB   C1A23957  13.330  13.540  10.110
  999BOLB   C2A23958  13.060  13.890  10.070
  999BOLB   C3A23959  12.730  14.050   9.850
  999BOLB   C4A23960  12.320  14.140   9.690
  999BOLB   C1B23961  13.260  13.410   9.630
  999BOLB   C2B23962  12.990  13.580   9.690
  999BOLB   C3B23963  12.590  13.570   9.560
  999BOLB   C4B23964  12.260  13.620   9.280
  999BOLB   NC223965   9.730  13.650   9.300
  999BOLB   PO223966   9.820  13.480   9.770
  999BOLB   GL323967  10.280  13.600   9.670
  999BOLB   GL423968  10.390  13.740   9.900
  999BOLB   C1C23969  10.600  13.720   9.420
  999BOLB   C2C23970  11.050  13.710   9.360
  999BOLB   C3C23971  11.510  13.830   9.530
  999BOLB   C4C23972  11.850  13.930   9.750
  999BOLB   C1D23973  10.750  13.610   9.930
  999BOLB   C2D23974  11.240  13.550   9.850
  999BOLB   C3D23975  11.600  13.820  10.160
  999BOLB   C4D23976  11.830  14.000  10.590
 1000BOLB   NC123977  23.230  28.070   9.340
 1000BOLB   PO123978  22.850  28.170   9.420
 1000BOLB   GL123979  23.120  28.500   9.480
 1000BOLB   GL223980  23.230  28.590   9.900
 1000BOLB   C1A23981  23.470  28.770   9.330
 1000BOLB   C2A23982  23.560  29.260   9.260
 1000BOLB   C3A23983  23.610  29.440   8.880
 1000BOLB   C4A23984  23.630  29.460   8.460
 1000BOLB   C1B23985  23.410  29.040   9.920
 1000BOLB   C2B23986  23.760  29.250   9.740
 1000BOLB   C3B23987  23.900  29.550   9.520
 1000BOLB   C4B23988  24.050  29.290   9.270
 1000BOLB   NC223989  23.360  30.690   6.110
 1000BOLB   PO223990  23.170  30.710   6.470
 1000BOLB   GL323991  22.960  30.730   6.820
 1000BOLB   GL423992  22.600  30.650   6.910
 1000BOLB   C1C23993  22.980  30.660   7.340
 1000BOLB   C2C23994  22.990  30.220   7.520
 1000BOLB   C3C23995  23.200  29.930   7.740
 1000BOLB   C4C23996  23.490  29.730   8.150
 1000BOLB   C1D23997  22.400  30.560   7.300
 1000BOLB   C2D23998  22.500  30.240   7.590
 1000BOLB   C3D23999  22.720  30.080   7.910
 1000BOLB   C4D24000  22.910  30.160   8.390
 1001BOLB   NC124001  16.340  27.610   8.900
 1001BOLB   PO124002  16.220  27.590   8.480
 1001BOLB   GL124003  16.070  27.820   8.190
 1001BOLB   GL224004  16.390  27.920   8.140
 1001BOLB   C1A24005  16.000  28.280   8.160
 1001BOLB   C2A24006  15.950  28.710   8.270
 1001BOLB   C3A24007  16.150  29.110   8.140
 1001BOLB   C4A24008  16.200  29.610   8.120
 1001BOLB   C1B24009  16.360  28.160   7.830
 1001BOLB   C2B24010  16.020  28.500   7.680
 1001BOLB   C3B24011  15.860  28.800   7.750
 1001BOLB   C4B24012  15.730  29.140   7.900
 1001BOLB   NC224013  15.660  31.170   6.500
 1001BOLB   PO224014  15.440  30.950   6.220
 1001BOLB   GL324015  15.520  30.700   6.650
 1001BOLB   GL424016  15.270  30.770   6.850
 1001BOLB   C1C24017  15.400  30.240   6.830
 1001BOLB   C2C24018  15.410  30.020   7.190
 1001BOLB   C3C24019  15.540  29.970   7.630
 1001BOLB   C4C24020  15.880  29.870   7.980
 1001BOLB   C1D24021  15.550  30.530   7.230
 1001BOLB   C2D24022  15.820  30.260   7.390
 1001BOLB   C3D24023  15.990  29.920   7.360
 1001BOLB   C4D24024  15.990  29.600   7.170
 1002BOLB   NC124025  11.690  21.560   7.430
 1002BOLB   PO124026  11.450  21.320   7.170
 1002BOLB   GL124027  11.220  21.550   6.920
 1002BOLB   GL224028  11.060  21.680   7.170
 1002BOLB   C1A24029  10.850  21.780   6.630
 1002BOLB   C2A24030  10.530  21.880   6.330
 1002BOLB   C3A24031  10.420  21.920   5.880
 1002BOLB   C4A24032  10.530  22.060   5.440
 1002BOLB   C1B24033  10.680  21.470   6.970
 1002BOLB   C2B24034  10.410  21.390   6.690
 1002BOLB   C3B24035  10.230  21.270   6.380
 1002BOLB   C4B24036  10.050  21.100   6.050
 1002BOLB   NC224037   9.570  22.650   3.220
 1002BOLB   PO224038   9.880  22.370   3.470
 1002BOLB   GL324039   9.840  22.580   3.840
 1002BOLB   GL424040  10.130  22.740   3.970
 1002BOLB   C1C24041   9.850  22.330   4.230
 1002BOLB   C2C24042   9.640  22.110   4.530
 1002BOLB   C3C24043   9.790  21.850   4.780
 1002BOLB   C4C24044  10.280  21.890   5.080
 1002BOLB   C1D24045  10.280  22.740   4.330
 1002BOLB   C2D24046  10.530  22.780   4.690
 1002BOLB   C3D24047  10.710  22.690   5.110
 1002BOLB   C4D24048  10.810  22.450   5.480
 1003BOLB   NC124049  19.600  32.900   7.650
 1003BOLB   PO124050  19.390  32.570   7.430
 1003BOLB   GL124051  19.390  32.450   7.870
 1003BOLB   GL224052  19.340  32.420   8.110
 1003BOLB   C1A24053  19.320  31.990   7.850
 1003BOLB   C2A24054  19.130  31.610   7.750
 1003BOLB   C3A24055  19.000  31.130   7.710
 1003BOLB   C4A24056  18.990  30.680   7.650
 1003BOLB   C1B24057  19.780  32.370   8.320
 1003BOLB   C2B24058  20.030  32.190   8.590
 1003BOLB   C3B24059  20.120  31.860   8.910
 1003BOLB   C4B24060  20.430  31.580   9.240
 1003BOLB   NC224061  17.520  32.530   6.480
 1003BOLB   PO224062  17.730  32.150   6.330
 1003BOLB   GL324063  17.690  31.690   6.610
 1003BOLB   GL424064  17.750  31.740   6.850
 1003BOLB   C1C24065  17.830  31.270   6.820
 1003BOLB   C2C24066  18.060  30.880   7.110
 1003BOLB   C3C24067  18.510  30.680   7.200
 1003BOLB   C4C24068  18.730  30.460   7.500
 1003BOLB   C1D24069  17.510  31.500   7.150
 1003BOLB   C2D24070  17.550  31.130   7.260
 1003BOLB   C3D24071  17.660  30.680   7.370
 1003BOLB   C4D24072  17.730  30.220   7.380
 1004BOLB   NC124073  13.420  17.190   7.360
 1004BOLB   PO124074  13.330  17.180   6.900
 1004BOLB   GL124075  13.020  16.990   6.680
 1004BOLB   GL224076  13.200  16.760   6.500
 1004BOLB   C1A24077  12.650  16.850   6.440
 1004BOLB   C2A24078  12.270  16.760   6.480
 1004BOLB   C3A24079  11.900  16.830   6.380
 1004BOLB   C4A24080  11.590  16.810   6.040
 1004BOLB   C1B24081  13.000  16.410   6.270
 1004BOLB   C2B24082  12.520  16.360   6.300
 1004BOLB   C3B24083  12.160  16.220   6.460
 1004BOLB   C4B24084  11.660  16.480   6.430
 1004BOLB   NC224085   9.270  16.360   5.640
 1004BOLB   PO224086   9.430  15.930   5.630
 1004BOLB   GL324087   9.740  16.060   5.870
 1004BOLB   GL424088   9.750  16.410   5.880
 1004BOLB   C1C24089  10.140  16.150   6.080
 1004BOLB   C2C24090  10.510  16.440   6.110
 1004BOLB   C3C24091  10.750  16.790   6.000
 1004BOLB   C4C24092  11.170  16.740   5.840
 1004BOLB   C1D24093  10.150  16.290   5.650
 1004BOLB   C2D24094  10.540  16.300   5.600
 1004BOLB   C3D24095  10.970  16.240   5.740
 1004BOLB   C4D24096  11.370  16.280   5.980
 1005BOLB   NC124097  12.890  20.640   5.900
 1005BOLB   PO124098  12.660  20.310   5.870
 1005BOLB   GL124099  12.510  20.370   5.560
 1005BOLB   GL224100  12.300  20.670   5.560
 1005BOLB   C1A24101  12.010  20.310   5.340
 1005BOLB   C2A24102  11.660  20.220   5.130
 1005BOLB   C3A24103  11.220  20.020   5.200
 1005BOLB   C4A24104  10.780  19.860   5.140
 1005BOLB   C1B24105  11.970  20.950   5.640
 1005BOLB   C2B24106  11.840  21.400   5.530
 1005BOLB   C3B24107  11.710  21.800   5.320
 1005BOLB   C4B24108  11.530  22.240   5.180
 1005BOLB   NC224109   8.360  20.570   4.640
 1005BOLB   PO224110   8.560  20.310   4.250
 1005BOLB   GL324111   8.850  20.270   4.510
 1005BOLB   GL424112   8.840  20.400   4.780
 1005BOLB   C1C24113   9.280  20.060   4.590
 1005BOLB   C2C24114   9.650  20.100   4.730
 1005BOLB   C3C24115  10.060  20.270   4.860
 1005BOLB   C4C24116  10.370  19.950   5.050
 1005BOLB   C1D24117   9.170  20.450   5.050
 1005BOLB   C2D24118   9.520  20.440   5.360
 1005BOLB   C3D24119  10.000  20.250   5.400
 1005BOLB   C4D24120  10.370  20.460   5.210
 1006BOLB   NC124121  14.230  12.730  10.930
 1006BOLB   PO124122  14.300  12.580  11.320
 1006BOLB   GL124123  14.080  12.170  11.220
 1006BOLB   GL224124  14.070  11.830  11.350
 1006BOLB   C1A24125  13.930  12.020  10.850
 1006BOLB   C2A24126  14.080  11.580  10.700
 1006BOLB   C3A24127  14.440  11.320  10.630
 1006BOLB   C4A24128  14.790  11.040  10.460
 1006BOLB   C1B24129  13.770  11.640  11.130
 1006BOLB   C2B24130  13.460  11.860  11.000
 1006BOLB   C3B24131  13.100  11.750  11.060
 1006BOLB   C4B24132  12.700  11.590  11.190
 1006BOLB   NC224133  14.650   8.320  10.020
 1006BOLB   PO224134  14.480   8.720   9.940
 1006BOLB   GL324135  14.340   9.030  10.140
 1006BOLB   GL424136  14.210   9.260   9.860
 1006BOLB   C1C24137  14.640   9.460  10.170
 1006BOLB   C2C24138  14.890   9.830  10.320
 1006BOLB   C3C24139  14.770  10.140  10.500
 1006BOLB   C4C24140  14.960  10.640  10.470
 1006BOLB   C1D24141  14.480   9.460   9.690
 1006BOLB   C2D24142  14.740   9.810   9.790
 1006BOLB   C3D24143  15.040  10.230  10.010
 1006BOLB   C4D24144  15.420  10.310  10.400
 1007BOLB   NC124145  19.900  25.270   6.710
 1007BOLB   PO124146  20.110  25.260   6.410
 1007BOLB   GL124147  20.240  25.450   6.000
 1007BOLB   GL224148  20.050  25.210   5.780
 1007BOLB   C1A24149  20.500  25.750   5.880
 1007BOLB   C2A24150  20.450  26.180   5.630
 1007BOLB   C3A24151  20.280  26.600   5.540
 1007BOLB   C4A24152  20.300  27.020   5.490
 1007BOLB   C1B24153  19.890  25.410   5.310
 1007BOLB   C2B24154  19.840  25.680   4.890
 1007BOLB   C3B24155  20.010  26.010   4.670
 1007BOLB   C4B24156  20.330  26.160   4.390
 1007BOLB   NC224157  21.210  28.120   3.400
 1007BOLB   PO224158  21.480  27.730   3.380
 1007BOLB   GL324159  21.150  27.730   3.790
 1007BOLB   GL424160  20.910  28.010   3.820
 1007BOLB   C1C24161  21.210  27.870   4.230
 1007BOLB   C2C24162  21.240  27.690   4.670
 1007BOLB   C3C24163  20.870  27.460   4.930
 1007BOLB   C4C24164  20.570  27.320   5.200
 1007BOLB   C1D24165  20.740  27.640   3.990
 1007BOLB   C2D24166  20.680  27.460   4.400
 1007BOLB   C3D24167  20.390  27.630   4.780
 1007BOLB   C4D24168  20.140  27.510   5.060
 1008BOLB   NC124169  18.140  18.970   5.300
 1008BOLB   PO124170  18.080  18.950   4.830
 1008BOLB   GL124171  17.840  18.740   4.450
 1008BOLB   GL224172  17.570  18.590   4.510
 1008BOLB   C1A24173  18.030  18.500   4.060
 1008BOLB   C2A24174  17.950  18.230   3.710
 1008BOLB   C3A24175  17.810  18.110   3.310
 1008BOLB   C4A24176  17.660  17.790   3.070
 1008BOLB   C1B24177  17.540  18.500   4.030
 1008BOLB   C2B24178  17.430  18.430   3.610
 1008BOLB   C3B24179  17.690  18.570   3.290
 1008BOLB   C4B24180  17.750  18.680   2.900
 1008BOLB   NC224181  17.250  17.190   1.010
 1008BOLB   PO224182  16.840  17.150   1.010
 1008BOLB   GL324183  17.020  16.940   1.420
 1008BOLB   GL424184  17.370  16.770   1.320
 1008BOLB   C1C24185  17.070  17.000   1.860
 1008BOLB   C2C24186  17.310  17.270   2.070
 1008BOLB   C3C24187  17.520  17.230   2.420
 1008BOLB   C4C24188  17.690  17.390   2.750
 1008BOLB   C1D24189  17.510  16.850   1.750
 1008BOLB   C2D24190  17.750  16.970   1.960
 1008BOLB   C3D24191  17.970  17.080   2.330
 1008BOLB   C4D24192  18.160  17.070   2.770
 1009BOLB   NC124193  20.090  10.300   7.110
 1009BOLB   PO124194  20.300  10.520   6.710
 1009BOLB   GL124195  20.020  10.770   6.980
 1009BOLB   GL224196  19.960  11.110   6.830
 1009BOLB   C1A24197  20.000  11.090   7.350
 1009BOLB   C2A24198  19.930  11.440   7.580
 1009BOLB   C3A24199  19.800  11.500   8.020
 1009BOLB   C4A24200  19.910  11.860   8.290
 1009BOLB   C1B24201  19.820  11.400   6.520
 1009BOLB   C2B24202  19.660  11.880   6.560
 1009BOLB   C3B24203  19.740  12.290   6.670
 1009BOLB   C4B24204  19.520  12.600   6.850
 1009BOLB   NC224205  18.560  13.870   8.480
 1009BOLB   PO224206  18.500  13.460   8.440
 1009BOLB   GL324207  18.660  13.090   8.270
 1009BOLB   GL424208  18.520  13.200   7.990
 1009BOLB   C1C24209  19.080  13.060   8.230
 1009BOLB   C2C24210  19.480  12.790   8.150
 1009BOLB   C3C24211  19.460  12.410   8.280
 1009BOLB   C4C24212  19.630  12.130   8.420
 1009BOLB   C1D24213  18.570  12.760   7.880
 1009BOLB   C2D24214  18.330  12.390   7.700
 1009BOLB   C3D24215  18.280  12.080   7.460
 1009BOLB   C4D24216  18.370  11.730   7.400
 1010BOLB   NC124217  11.890  19.230   8.440
 1010BOLB   PO124218  11.670  18.940   8.220
 1010BOLB   GL124219  11.510  18.690   7.890
 1010BOLB   GL224220  11.430  18.730   7.500
 1010BOLB   C1A24221  11.090  18.680   7.820
 1010BOLB   C2A24222  10.790  18.640   7.560
 1010BOLB   C3A24223  10.350  18.530   7.450
 1010BOLB   C4A24224  10.060  18.230   7.250
 1010BOLB   C1B24225  11.130  18.620   7.200
 1010BOLB   C2B24226  11.120  18.500   6.750
 1010BOLB   C3B24227  11.020  18.510   6.260
 1010BOLB   C4B24228  10.690  18.440   5.920
 1010BOLB   NC224229   8.900  16.370   6.760
 1010BOLB   PO224230   9.020  16.580   6.370
 1010BOLB   GL324231   9.310  16.730   6.550
 1010BOLB   GL424232   9.600  16.730   6.310
 1010BOLB   C1C24233   9.510  17.010   6.740
 1010BOLB   C2C24234   9.690  17.390   6.560
 1010BOLB   C3C24235  10.000  17.710   6.660
 1010BOLB   C4C24236  10.060  17.960   7.030
 1010BOLB   C1D24237   9.990  16.820   6.040
 1010BOLB   C2D24238  10.330  17.150   5.980
 1010BOLB   C3D24239  10.700  17.380   5.960
 1010BOLB   C4D24240  10.970  17.620   5.930
 1011BOLB   NC124241  14.090  22.020   6.040
 1011BOLB   PO124242  14.080  22.130   5.720
 1011BOLB   GL124243  13.740  22.430   5.660
 1011BOLB   GL224244  13.830  22.710   5.410
 1011BOLB   C1A24245  13.570  22.380   5.230
 1011BOLB   C2A24246  13.610  22.360   4.800
 1011BOLB   C3A24247  13.420  22.600   4.560
 1011BOLB   C4A24248  13.340  22.640   4.200
 1011BOLB   C1B24249  14.070  23.000   5.170
 1011BOLB   C2B24250  14.130  23.170   4.870
 1011BOLB   C3B24251  14.000  23.390   4.380
 1011BOLB   C4B24252  13.840  23.400   3.950
 1011BOLB   NC224253  12.380  23.900   2.460
 1011BOLB   PO224254  11.990  23.760   2.620
 1011BOLB   GL324255  12.370  23.550   2.800
 1011BOLB   GL424256  12.230  23.590   3.120
 1011BOLB   C1C24257  12.510  23.200   2.820
 1011BOLB   C2C24258  12.890  22.950   3.000
 1011BOLB   C3C24259  13.000  22.930   3.450
 1011BOLB   C4C24260  13.130  22.720   3.860
 1011BOLB   C1D24261  12.120  23.220   3.250
 1011BOLB   C2D24262  12.090  22.850   3.590
 1011BOLB   C3D24263  12.180  22.850   4.020
 1011BOLB   C4D24264  12.390  22.730   4.370
 1012BOLB   NC124265  15.490  18.940   5.190
 1012BOLB   PO124266  15.160  19.220   5.100
 1012BOLB   GL124267  14.990  19.280   4.720
 1012BOLB   GL224268  14.950  19.670   4.650
 1012BOLB   C1A24269  14.860  19.200   4.250
 1012BOLB   C2A24270  14.660  19.360   3.920
 1012BOLB   C3A24271  14.550  19.270   3.410
 1012BOLB   C4A24272  14.040  19.220   3.220
 1012BOLB   C1B24273  15.000  19.800   4.270
 1012BOLB   C2B24274  15.030  19.970   3.950
 1012BOLB   C3B24275  14.870  20.230   3.640
 1012BOLB   C4B24276  15.040  20.560   3.400
 1012BOLB   NC224277  12.110  20.450   1.850
 1012BOLB   PO224278  12.170  19.980   1.940
 1012BOLB   GL324279  12.520  20.090   2.100
 1012BOLB   GL424280  12.510  20.420   2.220
 1012BOLB   C1C24281  12.800  20.100   2.470
 1012BOLB   C2C24282  13.150  19.880   2.810
 1012BOLB   C3C24283  13.530  19.710   2.970
 1012BOLB   C4C24284  13.780  19.340   2.980
 1012BOLB   C1D24285  12.600  20.550   2.690
 1012BOLB   C2D24286  12.580  20.850   2.890
 1012BOLB   C3D24287  12.770  21.150   3.200
 1012BOLB   C4D24288  13.140  21.160   3.510
 1013BOLB   NC124289  14.390  18.000   5.470
 1013BOLB   PO124290  14.480  17.660   5.120
 1013BOLB   GL124291  14.270  17.560   4.720
 1013BOLB   GL224292  14.260  17.640   4.450
 1013BOLB   C1A24293  13.950  17.320   4.420
 1013BOLB   C2A24294  13.630  17.310   4.120
 1013BOLB   C3A24295  13.220  17.350   3.870
 1013BOLB   C4A24296  12.730  17.220   3.960
 1013BOLB   C1B24297  14.130  17.690   4.000
 1013BOLB   C2B24298  14.360  17.600   3.670
 1013BOLB   C3B24299  14.230  17.420   3.220
 1013BOLB   C4B24300  14.160  17.540   2.820
 1013BOLB   NC224301  10.300  17.500   2.430
 1013BOLB   PO224302  10.660  17.360   2.630
 1013BOLB   GL324303  11.000  17.160   2.750
 1013BOLB   GL424304  10.960  17.080   3.100
 1013BOLB   C1C24305  11.450  17.240   2.840
 1013BOLB   C2C24306  11.640  17.240   3.240
 1013BOLB   C3C24307  11.900  17.160   3.580
 1013BOLB   C4C24308  12.210  17.200   3.830
 1013BOLB   C1D24309  11.180  17.220   3.450
 1013BOLB   C2D24310  11.460  17.410   3.670
 1013BOLB   C3D24311  11.800  17.570   3.880
 1013BOLB   C4D24312  12.220  17.820   4.130
 1014BOLB   NC124313  12.820  26.870   9.960
 1014BOLB   PO124314  12.600  26.400  10.080
 1014BOLB   GL124315  12.350  26.840  10.130
 1014BOLB   GL224316  12.060  26.670  10.070
 1014BOLB   C1A24317  12.210  27.170   9.830
 1014BOLB   C2A24318  11.770  27.330   9.680
 1014BOLB   C3A24319  11.440  27.410   9.590
 1014BOLB   C4A24320  11.120  27.720   9.400
 1014BOLB   C1B24321  11.820  27.030  10.170
 1014BOLB   C2B24322  11.410  27.230  10.110
 1014BOLB   C3B24323  11.080  27.540   9.980
 1014BOLB   C4B24324  10.810  27.830   9.840
 1014BOLB   NC224325   9.590  29.200   7.880
 1014BOLB   PO224326  10.040  29.150   7.760
 1014BOLB   GL324327  10.350  28.990   8.030
 1014BOLB   GL424328  10.120  28.810   8.300
 1014BOLB   C1C24329  10.500  28.600   8.100
 1014BOLB   C2C24330  10.360  28.400   8.500
 1014BOLB   C3C24331  10.620  28.110   8.770
 1014BOLB   C4C24332  10.930  27.930   9.160
 1014BOLB   C1D24333   9.900  28.470   8.400
 1014BOLB   C2D24334   9.650  28.200   8.430
 1014BOLB   C3D24335   9.760  27.800   8.660
 1014BOLB   C4D24336   9.810  27.440   8.870
 1015BOLB   NC124337  15.530  21.390   6.680
 1015BOLB   PO124338  15.670  21.150   7.150
 1015BOLB   GL124339  15.740  21.300   7.510
 1015BOLB   GL224340  15.660  20.940   7.670
 1015BOLB   C1A24341  15.860  21.400   7.890
 1015BOLB   C2A24342  16.150  21.620   8.180
 1015BOLB   C3A24343  16.400  21.860   8.490
 1015BOLB   C4A24344  16.520  22.240   8.520
 1015BOLB   C1B24345  15.920  20.830   7.940
 1015BOLB   C2B24346  16.240  20.710   8.130
 1015BOLB   C3B24347  16.600  20.920   8.360
 1015BOLB   C4B24348  16.480  21.380   8.410
 1015BOLB   NC224349  14.620  23.110   7.470
 1015BOLB   PO224350  14.870  23.450   7.440
 1015BOLB   GL324351  15.200  23.250   7.570
 1015BOLB   GL424352  15.460  23.470   7.730
 1015BOLB   C1C24353  15.560  23.030   7.510
 1015BOLB   C2C24354  15.990  22.940   7.750
 1015BOLB   C3C24355  16.340  22.780   8.050
 1015BOLB   C4C24356  16.520  22.610   8.330
 1015BOLB   C1D24357  15.830  23.490   8.020
 1015BOLB   C2D24358  16.300  23.340   8.090
 1015BOLB   C3D24359  16.630  23.160   8.100
 1015BOLB   C4D24360  17.020  22.910   8.290
 1016BOLB   NC124361   9.570  21.010  12.510
 1016BOLB   PO124362   9.630  20.880  12.060
 1016BOLB   GL124363   9.280  20.710  11.940
 1016BOLB   GL224364   9.320  20.550  12.200
 1016BOLB   C1A24365   9.110  20.220  11.890
 1016BOLB   C2A24366   8.900  19.950  11.650
 1016BOLB   C3A24367   8.990  19.520  11.720
 1016BOLB   C4A24368   9.290  19.210  11.980
 1016BOLB   C1B24369   9.130  20.210  12.390
 1016BOLB   C2B24370   9.240  19.800  12.640
 1016BOLB   C3B24371   9.330  19.470  12.880
 1016BOLB   C4B24372   9.650  19.120  12.770
 1016BOLB   NC224373   9.290  17.000  12.190
 1016BOLB   PO224374   9.320  17.250  11.870
 1016BOLB   GL324375   9.360  17.540  12.190
 1016BOLB   GL424376   9.410  17.400  12.520
 1016BOLB   C1C24377   9.770  17.770  12.230
 1016BOLB   C2C24378   9.800  18.240  12.270
 1016BOLB   C3C24379   9.540  18.510  12.050
 1016BOLB   C4C24380   9.290  18.840  12.080
 1016BOLB   C1D24381   9.590  17.730  12.730
 1016BOLB   C2D24382   9.790  18.120  12.820
 1016BOLB   C3D24383  10.180  18.330  12.640
 1016BOLB   C4D24384  10.390  18.240  12.330
 1017BOLB   NC124385  18.080  22.500   5.020
 1017BOLB   PO124386  18.160  22.970   5.250
 1017BOLB   GL124387  18.260  22.990   4.810
 1017BOLB   GL224388  18.290  23.240   4.740
 1017BOLB   C1A24389  18.100  22.810   4.510
 1017BOLB   C2A24390  17.950  22.930   4.190
 1017BOLB   C3A24391  17.870  23.180   3.910
 1017BOLB   C4A24392  17.780  23.280   3.490
 1017BOLB   C1B24393  18.390  23.370   4.390
 1017BOLB   C2B24394  18.350  23.380   3.980
 1017BOLB   C3B24395  18.310  23.330   3.570
 1017BOLB   C4B24396  18.550  23.340   3.220
 1017BOLB   NC224397  18.570  24.450   1.270
 1017BOLB   PO224398  18.900  24.050   1.350
 1017BOLB   GL324399  18.840  23.770   1.730
 1017BOLB   GL424400  18.830  23.350   1.610
 1017BOLB   C1C24401  18.830  23.570   2.080
 1017BOLB   C2C24402  18.740  23.470   2.470
 1017BOLB   C3C24403  18.360  23.380   2.720
 1017BOLB   C4C24404  18.020  23.340   3.090
 1017BOLB   C1D24405  18.640  23.150   1.950
 1017BOLB   C2D24406  18.460  23.040   2.290
 1017BOLB   C3D24407  18.600  22.970   2.650
 1017BOLB   C4D24408  18.770  22.930   3.070
 1018BOLB   NC124409  15.410  16.570   5.020
 1018BOLB   PO124410  15.160  16.870   5.220
 1018BOLB   GL124411  14.790  16.730   5.100
 1018BOLB   GL224412  14.930  16.400   4.990
 1018BOLB   C1A24413  14.680  16.690   4.640
 1018BOLB   C2A24414  14.610  16.630   4.220
 1018BOLB   C3A24415  14.270  16.680   3.960
 1018BOLB   C4A24416  13.940  16.900   3.930
 1018BOLB   C1B24417  14.810  16.240   4.510
 1018BOLB   C2B24418  14.920  16.240   4.040
 1018BOLB   C3B24419  14.920  15.910   3.700
 1018BOLB   C4B24420  14.850  15.550   3.330
 1018BOLB   NC224421  12.640  16.980   1.740
 1018BOLB   PO224422  12.430  16.660   1.950
 1018BOLB   GL324423  12.510  16.630   2.330
 1018BOLB   GL424424  12.500  16.300   2.450
 1018BOLB   C1C24425  12.570  16.720   2.770
 1018BOLB   C2C24426  12.860  16.880   3.100
 1018BOLB   C3C24427  13.170  17.150   3.410
 1018BOLB   C4C24428  13.560  16.960   3.700
 1018BOLB   C1D24429  12.090  16.420   2.740
 1018BOLB   C2D24430  12.210  16.480   3.210
 1018BOLB   C3D24431  12.240  16.660   3.690
 1018BOLB   C4D24432  12.510  16.770   3.960
 1019BOLB   NC124433   9.250  11.130  17.590
 1019BOLB   PO124434   8.920  11.350  17.610
 1019BOLB   GL124435   9.200  11.640  17.490
 1019BOLB   GL224436   9.550  11.600  17.590
 1019BOLB   C1A24437   9.350  12.100  17.620
 1019BOLB   C2A24438   9.390  12.460  17.460
 1019BOLB   C3A24439   9.680  12.870  17.500
 1019BOLB   C4A24440   9.670  13.170  17.760
 1019BOLB   C1B24441   9.790  11.890  17.440
 1019BOLB   C2B24442   9.940  12.410  17.510
 1019BOLB   C3B24443  10.260  12.780  17.510
 1019BOLB   C4B24444  10.540  13.010  17.250
 1019BOLB   NC224445   7.440  13.520  18.210
 1019BOLB   PO224446   7.390  13.830  17.820
 1019BOLB   GL324447   7.810  13.940  17.860
 1019BOLB   GL424448   7.760  14.290  17.910
 1019BOLB   C1C24449   8.120  13.650  18.100
 1019BOLB   C2C24450   8.530  13.480  17.910
 1019BOLB   C3C24451   8.920  13.370  18.120
 1019BOLB   C4C24452   9.340  13.260  18.010
 1019BOLB   C1D24453   8.030  14.380  17.520
 1019BOLB   C2D24454   8.420  14.410  17.440
 1019BOLB   C3D24455   8.860  14.470  17.480
 1019BOLB   C4D24456   9.250  14.430  17.470
 1020BOLB   NC124457  12.690  25.940   8.700
 1020BOLB   PO124458  12.740  26.200   9.100
 1020BOLB   GL124459  12.360  26.390   9.170
 1020BOLB   GL224460  12.210  26.290   8.840
 1020BOLB   C1A24461  11.900  26.640   9.120
 1020BOLB   C2A24462  11.580  26.670   8.900
 1020BOLB   C3A24463  11.150  26.590   8.810
 1020BOLB   C4A24464  10.780  26.710   8.720
 1020BOLB   C1B24465  11.770  26.180   8.620
 1020BOLB   C2B24466  11.360  26.410   8.420
 1020BOLB   C3B24467  11.260  26.550   7.960
 1020BOLB   C4B24468  11.180  26.770   7.570
 1020BOLB   NC224469  10.370  28.230   6.720
 1020BOLB   PO224470  10.040  27.920   6.810
 1020BOLB   GL324471  10.370  27.890   7.130
 1020BOLB   GL424472  10.700  27.920   6.870
 1020BOLB   C1C24473  10.500  27.570   7.430
 1020BOLB   C2C24474  10.400  27.540   7.870
 1020BOLB   C3C24475  10.440  27.130   8.090
 1020BOLB   C4C24476  10.570  26.860   8.490
 1020BOLB   C1D24477  10.920  27.600   7.160
 1020BOLB   C2D24478  11.140  27.330   7.470
 1020BOLB   C3D24479  11.340  27.100   7.880
 1020BOLB   C4D24480  11.680  27.200   8.100
 1021BOLB   NC124481   8.770  25.950   6.110
 1021BOLB   PO124482   9.050  26.140   5.830
 1021BOLB   GL124483   9.280  25.920   6.050
 1021BOLB   GL224484   9.380  25.990   6.350
 1021BOLB   C1A24485   9.150  25.390   6.220
 1021BOLB   C2A24486   8.930  25.110   6.650
 1021BOLB   C3A24487   9.160  24.990   7.000
 1021BOLB   C4A24488   9.320  24.720   7.350
 1021BOLB   C1B24489   9.730  25.630   6.530
 1021BOLB   C2B24490  10.000  25.520   6.960
 1021BOLB   C3B24491  10.290  25.320   7.100
 1021BOLB   C4B24492  10.290  25.220   7.500
 1021BOLB   NC224493  10.920  23.500   9.060
 1021BOLB   PO224494  10.990  23.560   8.730
 1021BOLB   GL324495  10.590  23.790   8.770
 1021BOLB   GL424496  10.550  23.880   9.120
 1021BOLB   C1C24497  10.290  23.990   8.470
 1021BOLB   C2C24498   9.950  23.920   8.250
 1021BOLB   C3C24499   9.580  24.030   8.030
 1021BOLB   C4C24500   9.430  24.370   7.800
 1021BOLB   C1D24501  10.200  24.010   8.970
 1021BOLB   C2D24502   9.810  23.990   8.790
 1021BOLB   C3D24503   9.470  23.950   8.550
 1021BOLB   C4D24504   9.090  23.840   8.230
 1022BOLB   NC124505  10.690  21.830   8.490
 1022BOLB   PO124506  10.960  21.600   8.250
 1022BOLB   GL124507  10.570  21.720   8.040
 1022BOLB   GL224508  10.260  21.850   8.120
 1022BOLB   C1A24509  10.180  21.600   7.730
 1022BOLB   C2A24510   9.790  21.810   7.550
 1022BOLB   C3A24511   9.490  22.130   7.340
 1022BOLB   C4A24512   9.300  22.510   7.250
 1022BOLB   C1B24513   9.840  21.970   8.010
 1022BOLB   C2B24514   9.360  22.090   7.840
 1022BOLB   C3B24515   9.000  22.220   7.590
 1022BOLB   C4B24516   8.780  22.140   7.250
 1022BOLB   NC224517   8.290  23.920   5.310
 1022BOLB   PO224518   8.400  23.510   5.300
 1022BOLB   GL324519   8.580  23.260   5.510
 1022BOLB   GL424520   8.820  23.210   5.460
 1022BOLB   C1C24521   8.740  23.340   5.930
 1022BOLB   C2C24522   9.110  23.030   6.160
 1022BOLB   C3C24523   9.330  22.940   6.580
 1022BOLB   C4C24524   9.210  22.860   6.980
 1022BOLB   C1D24525   8.970  22.970   5.620
 1022BOLB   C2D24526   9.290  22.580   5.900
 1022BOLB   C3D24527   9.550  22.600   6.270
 1022BOLB   C4D24528   9.870  22.260   6.370
 1023BOLB   NC124529  15.730  17.500   0.400
 1023BOLB   PO124530  16.170  17.620   0.700
 1023BOLB   GL124531  16.130  17.760   1.150
 1023BOLB   GL224532  16.080  18.090   1.210
 1023BOLB   C1A24533  16.060  17.700   1.630
 1023BOLB   C2A24534  16.340  17.540   2.060
 1023BOLB   C3A24535  16.750  17.360   2.290
 1023BOLB   C4A24536  17.080  17.380   2.580
 1023BOLB   C1B24537  15.860  18.150   1.570
 1023BOLB   C2B24538  15.710  18.490   1.910
 1023BOLB   C3B24539  15.560  18.920   2.140
 1023BOLB   C4B24540  15.800  19.310   2.190
 1023BOLB   NC224541  18.090  17.110   1.150
 1023BOLB   PO224542  17.670  17.050   0.990
 1023BOLB   GL324543  17.710  17.210   1.410
 1023BOLB   GL424544  17.360  17.330   1.530
 1023BOLB   C1C24545  17.840  17.400   1.770
 1023BOLB   C2C24546  17.700  17.700   2.080
 1023BOLB   C3C24547  17.640  17.850   2.470
 1023BOLB   C4C24548  17.330  17.700   2.750
 1023BOLB   C1D24549  17.410  17.620   1.710
 1023BOLB   C2D24550  17.360  18.010   1.930
 1023BOLB   C3D24551  17.620  18.290   2.240
 1023BOLB   C4D24552  17.880  18.590   2.450
 1024BOLB   NC124553  11.290  19.990   7.310
 1024BOLB   PO124554  10.990  19.890   7.620
 1024BOLB   GL124555  10.920  19.570   7.320
 1024BOLB   GL224556  11.030  19.600   6.970
 1024BOLB   C1A24557  10.600  19.360   7.070
 1024BOLB   C2A24558  10.310  19.040   6.850
 1024BOLB   C3A24559  10.180  18.700   7.000
 1024BOLB   C4A24560   9.780  18.510   6.910
 1024BOLB   C1B24561  10.770  19.650   6.600
 1024BOLB   C2B24562  10.620  19.300   6.420
 1024BOLB   C3B24563  10.270  18.890   6.370
 1024BOLB   C4B24564   9.980  18.610   6.380
 1024BOLB   NC224565   7.280  17.960   7.270
 1024BOLB   PO224566   7.710  18.010   7.220
 1024BOLB   GL324567   8.080  18.170   7.290
 1024BOLB   GL424568   8.110  18.190   7.640
 1024BOLB   C1C24569   8.500  18.180   7.320
 1024BOLB   C2C24570   8.830  18.000   7.330
 1024BOLB   C3C24571   9.260  17.910   7.230
 1024BOLB   C4C24572   9.560  18.210   7.040
 1024BOLB   C1D24573   8.270  17.930   7.880
 1024BOLB   C2D24574   8.640  18.070   7.870
 1024BOLB   C3D24575   8.750  18.410   7.650
 1024BOLB   C4D24576   8.740  18.660   7.260
 1025BOLB   NC124577  18.410  21.630   5.240
 1025BOLB   PO124578  18.010  21.450   5.160
 1025BOLB   GL124579  17.900  21.370   4.660
 1025BOLB   GL224580  17.650  21.050   4.570
 1025BOLB   C1A24581  18.020  21.250   4.270
 1025BOLB   C2A24582  17.880  21.500   3.900
 1025BOLB   C3A24583  18.000  21.500   3.390
 1025BOLB   C4A24584  18.000  21.540   2.970
 1025BOLB   C1B24585  17.570  21.140   4.020
 1025BOLB   C2B24586  17.670  21.130   3.580
 1025BOLB   C3B24587  17.590  21.360   3.230
 1025BOLB   C4B24588  17.660  21.310   2.720
 1025BOLB   NC224589  17.990  21.970   0.390
 1025BOLB   PO224590  17.760  22.040   0.580
 1025BOLB   GL324591  17.830  21.760   0.900
 1025BOLB   GL424592  17.560  21.570   1.020
 1025BOLB   C1C24593  17.760  21.890   1.410
 1025BOLB   C2C24594  17.770  21.840   1.840
 1025BOLB   C3C24595  17.720  21.900   2.280
 1025BOLB   C4C24596  17.750  21.810   2.710
 1025BOLB   C1D24597  17.900  21.440   1.280
 1025BOLB   C2D24598  17.850  21.320   1.820
 1025BOLB   C3D24599  17.630  21.330   2.160
 1025BOLB   C4D24600  17.370  20.930   2.520
 1026BOLB   NC124601  14.920  28.320  15.360
 1026BOLB   PO124602  15.360  28.490  15.390
 1026BOLB   GL124603  15.060  28.850  15.300
 1026BOLB   GL224604  14.790  28.800  15.510
 1026BOLB   C1A24605  14.730  29.150  15.130
 1026BOLB   C2A24606  14.820  29.610  14.970
 1026BOLB   C3A24607  14.830  29.990  15.120
 1026BOLB   C4A24608  14.690  30.330  15.310
 1026BOLB   C1B24609  14.680  29.180  15.690
 1026BOLB   C2B24610  14.940  29.370  16.020
 1026BOLB   C3B24611  14.740  29.830  16.080
 1026BOLB   C4B24612  14.540  29.960  16.470
 1026BOLB   NC224613  12.740  31.980  16.040
 1026BOLB   PO224614  13.050  32.010  16.250
 1026BOLB   GL324615  13.150  31.660  15.890
 1026BOLB   GL424616  12.810  31.540  15.860
 1026BOLB   C1C24617  13.470  31.390  15.750
 1026BOLB   C2C24618  13.740  31.140  15.500
 1026BOLB   C3C24619  14.070  30.880  15.360
 1026BOLB   C4C24620  14.380  30.610  15.310
 1026BOLB   C1D24621  12.600  31.250  16.060
 1026BOLB   C2D24622  12.880  31.000  16.370
 1026BOLB   C3D24623  13.250  30.730  16.450
 1026BOLB   C4D24624  13.600  30.510  16.130
 1027BOLB   NC124625  18.040  13.520   2.430
 1027BOLB   PO124626  17.580  13.530   2.330
 1027BOLB   GL124627  17.530  13.630   2.770
 1027BOLB   GL224628  17.280  13.880   2.630
 1027BOLB   C1A24629  17.440  13.940   3.080
 1027BOLB   C2A24630  17.480  14.350   3.270
 1027BOLB   C3A24631  17.670  14.630   3.610
 1027BOLB   C4A24632  17.960  14.790   3.870
 1027BOLB   C1B24633  17.280  14.260   2.800
 1027BOLB   C2B24634  17.050  14.660   3.170
 1027BOLB   C3B24635  17.140  14.640   3.560
 1027BOLB   C4B24636  17.090  14.780   3.950
 1027BOLB   NC224637  17.570  16.500   5.800
 1027BOLB   PO224638  17.540  16.080   5.760
 1027BOLB   GL324639  17.780  15.910   5.480
 1027BOLB   GL424640  17.720  15.960   5.200
 1027BOLB   C1C24641  18.070  15.580   5.420
 1027BOLB   C2C24642  18.100  15.200   5.110
 1027BOLB   C3C24643  18.300  15.030   4.650
 1027BOLB   C4C24644  17.980  14.920   4.310
 1027BOLB   C1D24645  17.970  15.630   4.930
 1027BOLB   C2D24646  18.350  15.550   4.740
 1027BOLB   C3D24647  18.680  15.590   4.540
 1027BOLB   C4D24648  19.130  15.480   4.510
 1028BOLB   NC124649  28.270  28.350   8.950
 1028BOLB   PO124650  28.380  28.310   9.450
 1028BOLB   GL124651  28.030  28.040   9.360
 1028BOLB   GL224652  28.040  27.820   9.130
 1028BOLB   C1A24653  27.700  27.850   9.530
 1028BOLB   C2A24654  27.240  27.960   9.640
 1028BOLB   C3A24655  26.840  28.040   9.540
 1028BOLB   C4A24656  26.720  28.170   9.140
 1028BOLB   C1B24657  27.990  27.430   9.450
 1028BOLB   C2B24658  27.870  27.080   9.450
 1028BOLB   C3B24659  27.590  26.710   9.370
 1028BOLB   C4B24660  27.170  26.440   9.450
 1028BOLB   NC224661  27.350  28.940   6.840
 1028BOLB   PO224662  26.980  29.060   7.100
 1028BOLB   GL324663  26.600  29.010   7.290
 1028BOLB   GL424664  26.430  29.310   7.080
 1028BOLB   C1C24665  26.380  28.670   7.450
 1028BOLB   C2C24666  26.420  28.460   7.920
 1028BOLB   C3C24667  26.670  28.250   8.270
 1028BOLB   C4C24668  26.680  28.190   8.680
 1028BOLB   C1D24669  26.060  29.150   7.430
 1028BOLB   C2D24670  25.930  28.780   7.840
 1028BOLB   C3D24671  26.050  28.470   8.240
 1028BOLB   C4D24672  25.850  28.210   8.670
 1029BOLB   NC124673  10.080  23.260   9.640
 1029BOLB   PO124674  10.350  23.400   9.270
 1029BOLB   GL124675  10.140  23.480   8.920
 1029BOLB   GL224676   9.970  23.700   9.220
 1029BOLB   C1A24677  10.010  23.590   8.610
 1029BOLB   C2A24678   9.710  23.500   8.440
 1029BOLB   C3A24679   9.560  23.340   7.990
 1029BOLB   C4A24680   9.200  23.620   7.780
 1029BOLB   C1B24681   9.660  23.460   8.960
 1029BOLB   C2B24682   9.430  23.180   8.720
 1029BOLB   C3B24683   9.120  23.280   8.400
 1029BOLB   C4B24684   8.650  23.330   8.490
 1029BOLB   NC224685   7.000  24.840   6.660
 1029BOLB   PO224686   7.350  24.900   6.930
 1029BOLB   GL324687   7.760  24.910   7.100
 1029BOLB   GL424688   7.870  25.150   7.160
 1029BOLB   C1C24689   8.170  24.710   7.130
 1029BOLB   C2C24690   8.440  24.460   7.320
 1029BOLB   C3C24691   8.710  24.190   7.480
 1029BOLB   C4C24692   8.980  23.910   7.720
 1029BOLB   C1D24693   8.130  24.990   7.530
 1029BOLB   C2D24694   8.380  24.760   7.710
 1029BOLB   C3D24695   8.420  24.400   7.960
 1029BOLB   C4D24696   8.680  24.140   8.070
 1030BOLB   NC124697  23.490  22.180   7.370
 1030BOLB   PO124698  23.330  21.750   7.380
 1030BOLB   GL124699  23.450  21.540   7.030
 1030BOLB   GL224700  23.210  21.530   6.750
 1030BOLB   C1A24701  23.800  21.520   6.840
 1030BOLB   C2A24702  24.200  21.450   6.510
 1030BOLB   C3A24703  24.300  21.280   6.140
 1030BOLB   C4A24704  24.610  21.040   5.980
 1030BOLB   C1B24705  23.420  21.410   6.440
 1030BOLB   C2B24706  23.830  21.140   6.290
 1030BOLB   C3B24707  24.170  20.820   6.080
 1030BOLB   C4B24708  24.240  20.480   6.000
 1030BOLB   NC224709  25.840  19.950   4.310
 1030BOLB   PO224710  25.640  20.170   3.960
 1030BOLB   GL324711  25.390  20.200   4.370
 1030BOLB   GL424712  25.490  20.500   4.490
 1030BOLB   C1C24713  24.950  20.400   4.670
 1030BOLB   C2C24714  24.830  20.780   4.910
 1030BOLB   C3C24715  24.660  20.880   5.260
 1030BOLB   C4C24716  24.500  20.940   5.650
 1030BOLB   C1D24717  25.420  20.470   4.840
 1030BOLB   C2D24718  25.240  20.560   5.130
 1030BOLB   C3D24719  25.020  20.530   5.430
 1030BOLB   C4D24720  24.880  20.650   5.720
 1031BOLB   NC124721   8.960  21.330  13.240
 1031BOLB   PO124722   8.800  21.700  13.080
 1031BOLB   GL124723   8.390  21.410  13.210
 1031BOLB   GL224724   8.100  21.360  13.070
 1031BOLB   C1A24725   8.290  21.120  13.510
 1031BOLB   C2A24726   7.890  21.100  13.690
 1031BOLB   C3A24727   7.500  20.840  13.760
 1031BOLB   C4A24728   7.110  21.050  13.810
 1031BOLB   C1B24729   7.920  20.980  13.170
 1031BOLB   C2B24730   7.730  20.660  13.380
 1031BOLB   C3B24731   7.430  20.370  13.340
 1031BOLB   C4B24732   7.100  20.710  13.420
 1031BOLB   NC224733   5.240  20.330  13.550
 1031BOLB   PO224734   4.960  20.610  13.790
 1031BOLB   GL324735   5.370  20.740  13.890
 1031BOLB   GL424736   5.440  20.990  14.050
 1031BOLB   C1C24737   5.840  21.020  13.780
 1031BOLB   C2C24738   6.220  21.250  13.690
 1031BOLB   C3C24739   6.470  21.320  13.590
 1031BOLB   C4C24740   6.800  21.040  13.700
 1031BOLB   C1D24741   5.760  21.090  14.290
 1031BOLB   C2D24742   6.170  21.280  14.240
 1031BOLB   C3D24743   6.510  21.050  14.150
 1031BOLB   C4D24744   6.920  20.750  14.240
 1032BOLB   NC124745  11.800  22.280  18.200
 1032BOLB   PO124746  11.900  22.820  18.250
 1032BOLB   GL124747  11.820  23.000  18.680
 1032BOLB   GL224748  11.950  23.360  18.710
 1032BOLB   C1A24749  11.770  23.240  19.150
 1032BOLB   C2A24750  11.980  23.430  19.460
 1032BOLB   C3A24751  12.030  23.670  19.860
 1032BOLB   C4A24752  11.850  23.560  20.230
 1032BOLB   C1B24753  11.890  23.810  18.940
 1032BOLB   C2B24754  11.730  24.220  19.130
 1032BOLB   C3B24755  11.650  24.490  19.320
 1032BOLB   C4B24756  11.570  24.880  19.160
 1032BOLB   NC224757   9.760  23.330  21.540
 1032BOLB   PO224758  10.020  23.170  21.780
 1032BOLB   GL324759  10.470  23.210  21.610
 1032BOLB   GL424760  10.640  23.470  21.410
 1032BOLB   C1C24761  10.730  22.950  21.300
 1032BOLB   C2C24762  11.080  23.030  21.020
 1032BOLB   C3C24763  11.390  23.260  20.810
 1032BOLB   C4C24764  11.600  23.300  20.440
 1032BOLB   C1D24765  10.430  23.350  21.100
 1032BOLB   C2D24766  10.700  23.180  20.680
 1032BOLB   C3D24767  11.070  23.000  20.490
 1032BOLB   C4D24768  11.250  22.570  20.570
 1033BOLB   NC124769  12.390  30.060   7.020
 1033BOLB   PO124770  12.260  29.860   6.600
 1033BOLB   GL124771  12.780  29.770   6.590
 1033BOLB   GL224772  12.890  29.850   6.990
 1033BOLB   C1A24773  12.960  29.390   6.610
 1033BOLB   C2A24774  13.240  29.150   6.820
 1033BOLB   C3A24775  13.290  28.930   7.230
 1033BOLB   C4A24776  13.320  28.860   7.610
 1033BOLB   C1B24777  13.060  29.440   7.190
 1033BOLB   C2B24778  13.280  29.390   7.510
 1033BOLB   C3B24779  13.650  29.280   7.700
 1033BOLB   C4B24780  13.780  28.790   7.920
 1033BOLB   NC224781  13.900  27.530   9.930
 1033BOLB   PO224782  13.980  27.530   9.430
 1033BOLB   GL324783  13.730  27.510   9.120
 1033BOLB   GL424784  13.400  27.240   9.120
 1033BOLB   C1C24785  13.710  27.760   8.740
 1033BOLB   C2C24786  13.690  28.000   8.460
 1033BOLB   C3C24787  13.680  28.380   8.200
 1033BOLB   C4C24788  13.320  28.560   7.950
 1033BOLB   C1D24789  13.240  27.720   9.030
 1033BOLB   C2D24790  13.010  27.950   8.850
 1033BOLB   C3D24791  12.720  28.190   8.560
 1033BOLB   C4D24792  12.580  28.400   8.310
 1034BOLB   NC124793  11.740  24.310  15.540
 1034BOLB   PO124794  11.330  24.360  15.650
 1034BOLB   GL124795  10.930  24.470  15.940
 1034BOLB   GL224796  10.570  24.360  15.810
 1034BOLB   C1A24797  10.720  24.700  16.170
 1034BOLB   C2A24798  10.500  25.010  16.320
 1034BOLB   C3A24799  10.110  25.130  16.280
 1034BOLB   C4A24800   9.850  25.510  16.290
 1034BOLB   C1B24801  10.190  24.450  15.920
 1034BOLB   C2B24802   9.950  24.650  16.180
 1034BOLB   C3B24803   9.690  24.970  16.480
 1034BOLB   C4B24804   9.570  25.160  16.870
 1034BOLB   NC224805   8.110  27.080  17.270
 1034BOLB   PO224806   8.010  26.550  17.250
 1034BOLB   GL324807   8.030  26.240  17.050
 1034BOLB   GL424808   8.090  26.460  16.740
 1034BOLB   C1C24809   8.560  26.250  17.010
 1034BOLB   C2C24810   8.910  26.080  16.780
 1034BOLB   C3C24811   9.160  26.020  16.420
 1034BOLB   C4C24812   9.540  25.830  16.400
 1034BOLB   C1D24813   8.450  26.130  16.500
 1034BOLB   C2D24814   8.720  25.790  16.440
 1034BOLB   C3D24815   9.070  25.520  16.300
 1034BOLB   C4D24816   9.260  25.320  16.520
 1035BOLB   NC124817  20.310  29.590  11.990
 1035BOLB   PO124818  20.480  29.900  12.200
 1035BOLB   GL124819  20.440  30.310  12.140
 1035BOLB   GL224820  20.580  30.480  12.400
 1035BOLB   C1A24821  20.190  30.670  12.200
 1035BOLB   C2A24822  20.200  31.190  12.170
 1035BOLB   C3A24823  20.060  31.660  11.900
 1035BOLB   C4A24824  19.760  31.960  11.850
 1035BOLB   C1B24825  20.630  30.960  12.200
 1035BOLB   C2B24826  21.000  31.310  12.270
 1035BOLB   C3B24827  20.980  31.680  12.480
 1035BOLB   C4B24828  21.210  32.040  12.470
 1035BOLB   NC224829  19.420  34.270  10.720
 1035BOLB   PO224830  19.760  34.340  11.000
 1035BOLB   GL324831  19.850  33.880  10.940
 1035BOLB   GL424832  19.610  33.760  10.860
 1035BOLB   C1C24833  19.940  33.570  11.170
 1035BOLB   C2C24834  19.820  33.110  11.230
 1035BOLB   C3C24835  19.810  32.700  11.300
 1035BOLB   C4C24836  19.660  32.250  11.430
 1035BOLB   C1D24837  19.520  33.290  10.770
 1035BOLB   C2D24838  19.420  32.880  11.000
 1035BOLB   C3D24839  19.280  32.660  11.410
 1035BOLB   C4D24840  19.260  32.280  11.800
 1036BOLB   NC124841   7.340  17.070  13.360
 1036BOLB   PO124842   7.610  16.870  13.640
 1036BOLB   GL124843   8.030  16.990  13.760
 1036BOLB   GL224844   8.190  16.690  13.870
 1036BOLB   C1A24845   8.510  16.920  13.600
 1036BOLB   C2A24846   8.970  17.020  13.690
 1036BOLB   C3A24847   9.190  17.420  13.540
 1036BOLB   C4A24848   9.470  17.640  13.660
 1036BOLB   C1B24849   8.400  16.990  14.160
 1036BOLB   C2B24850   8.700  17.290  14.150
 1036BOLB   C3B24851   8.720  17.680  14.370
 1036BOLB   C4B24852   8.770  18.110  14.640
 1036BOLB   NC224853  10.750  18.720  16.030
 1036BOLB   PO224854  10.430  18.750  15.780
 1036BOLB   GL324855  10.300  18.700  15.390
 1036BOLB   GL424856  10.580  18.550  15.260
 1036BOLB   C1C24857  10.090  18.390  15.100
 1036BOLB   C2C24858  10.080  17.930  14.890
 1036BOLB   C3C24859   9.870  17.690  14.510
 1036BOLB   C4C24860   9.650  17.660  14.110
 1036BOLB   C1D24861  10.580  18.200  15.070
 1036BOLB   C2D24862  10.660  17.860  14.820
 1036BOLB   C3D24863  10.630  17.650  14.410
 1036BOLB   C4D24864  10.260  17.430  14.300
 1037BOLB   NC124865  15.880  25.570   7.330
 1037BOLB   PO124866  16.150  25.810   7.020
 1037BOLB   GL124867  15.970  26.210   6.880
 1037BOLB   GL224868  15.790  26.420   7.010
 1037BOLB   C1A24869  15.870  26.440   6.480
 1037BOLB   C2A24870  15.840  26.610   6.060
 1037BOLB   C3A24871  16.010  26.930   5.960
 1037BOLB   C4A24872  15.960  27.060   5.540
 1037BOLB   C1B24873  15.710  26.910   7.030
 1037BOLB   C2B24874  15.400  27.240   6.780
 1037BOLB   C3B24875  15.050  27.220   6.460
 1037BOLB   C4B24876  15.090  27.010   6.020
 1037BOLB   NC224877  15.860  28.340   3.000
 1037BOLB   PO224878  15.860  28.270   3.420
 1037BOLB   GL324879  15.970  28.140   3.730
 1037BOLB   GL424880  16.110  28.330   4.040
 1037BOLB   C1C24881  16.190  27.820   3.970
 1037BOLB   C2C24882  16.240  27.430   4.280
 1037BOLB   C3C24883  16.220  27.250   4.720
 1037BOLB   C4C24884  16.280  27.200   5.160
 1037BOLB   C1D24885  16.500  28.260   4.400
 1037BOLB   C2D24886  16.680  28.170   4.800
 1037BOLB   C3D24887  17.120  28.300   4.880
 1037BOLB   C4D24888  17.470  28.110   5.190
 1038BOLB   NC124889  12.560  26.580  15.170
 1038BOLB   PO124890  12.980  26.830  15.310
 1038BOLB   GL124891  12.700  27.080  15.350
 1038BOLB   GL224892  12.700  27.300  15.610
 1038BOLB   C1A24893  12.500  27.470  15.180
 1038BOLB   C2A24894  12.200  27.750  15.480
 1038BOLB   C3A24895  12.010  28.110  15.570
 1038BOLB   C4A24896  12.050  28.550  15.630
 1038BOLB   C1B24897  12.190  27.260  15.640
 1038BOLB   C2B24898  11.830  27.360  15.860
 1038BOLB   C3B24899  11.700  27.680  16.070
 1038BOLB   C4B24900  11.710  27.960  16.380
 1038BOLB   NC224901  10.860  30.630  15.660
 1038BOLB   PO224902  10.680  30.180  15.610
 1038BOLB   GL324903  10.980  29.890  15.860
 1038BOLB   GL424904  11.190  30.030  16.120
 1038BOLB   C1C24905  11.070  29.530  15.740
 1038BOLB   C2C24906  11.170  29.380  15.330
 1038BOLB   C3C24907  11.610  29.260  15.250
 1038BOLB   C4C24908  11.850  28.910  15.400
 1038BOLB   C1D24909  11.400  29.750  16.410
 1038BOLB   C2D24910  11.300  29.460  16.760
 1038BOLB   C3D24911  11.410  29.210  17.020
 1038BOLB   C4D24912  11.490  29.010  17.460
 1039BOLB   NC124913   9.730  24.620  10.910
 1039BOLB   PO124914   9.730  24.560  11.310
 1039BOLB   GL124915   9.470  24.890  11.260
 1039BOLB   GL224916   9.410  25.010  10.900
 1039BOLB   C1A24917   9.080  25.110  11.380
 1039BOLB   C2A24918   8.720  24.970  11.500
 1039BOLB   C3A24919   8.310  25.080  11.740
 1039BOLB   C4A24920   7.860  25.100  11.920
 1039BOLB   C1B24921   9.220  25.400  10.690
 1039BOLB   C2B24922   8.890  25.740  10.590
 1039BOLB   C3B24923   8.820  26.250  10.620
 1039BOLB   C4B24924   8.950  26.600  10.430
 1039BOLB   NC224925   5.920  26.720  11.890
 1039BOLB   PO224926   6.160  26.550  11.420
 1039BOLB   GL324927   6.220  26.220  11.630
 1039BOLB   GL424928   6.510  26.100  11.420
 1039BOLB   C1C24929   6.390  25.880  11.860
 1039BOLB   C2C24930   6.740  25.640  12.100
 1039BOLB   C3C24931   7.010  25.310  12.080
 1039BOLB   C4C24932   7.430  25.140  12.020
 1039BOLB   C1D24933   6.850  25.900  11.640
 1039BOLB   C2D24934   7.100  25.610  11.690
 1039BOLB   C3D24935   7.550  25.490  11.730
 1039BOLB   C4D24936   7.960  25.360  11.470
 1040BOLB   NC124937  16.770  29.220  11.380
 1040BOLB   PO124938  16.520  29.510  11.070
 1040BOLB   GL124939  16.390  29.780  10.810
 1040BOLB   GL224940  16.070  29.740  10.920
 1040BOLB   C1A24941  16.410  29.960  10.460
 1040BOLB   C2A24942  16.380  30.450  10.460
 1040BOLB   C3A24943  16.300  30.870  10.610
 1040BOLB   C4A24944  16.410  31.170  10.760
 1040BOLB   C1B24945  16.070  30.180  10.790
 1040BOLB   C2B24946  15.790  30.490  10.540
 1040BOLB   C3B24947  15.590  30.860  10.330
 1040BOLB   C4B24948  15.600  31.230   9.960
 1040BOLB   NC224949  16.110  33.840  10.380
 1040BOLB   PO224950  16.230  33.380  10.330
 1040BOLB   GL324951  16.630  33.080  10.300
 1040BOLB   GL424952  16.770  33.330  10.180
 1040BOLB   C1C24953  16.730  32.630  10.380
 1040BOLB   C2C24954  16.780  32.260  10.640
 1040BOLB   C3C24955  16.740  31.860  10.930
 1040BOLB   C4C24956  16.470  31.510  11.040
 1040BOLB   C1D24957  17.110  32.930  10.300
 1040BOLB   C2D24958  17.200  32.560  10.490
 1040BOLB   C3D24959  17.300  32.070  10.590
 1040BOLB   C4D24960  17.280  31.770  10.930
 1041BOLB   NC124961   9.690  29.810  15.670
 1041BOLB   PO124962   9.990  29.560  15.920
 1041BOLB   GL124963  10.240  29.200  15.830
 1041BOLB   GL224964  10.150  28.860  15.920
 1041BOLB   C1A24965  10.650  29.150  15.970
 1041BOLB   C2A24966  11.050  29.040  15.720
 1041BOLB   C3A24967  11.470  29.100  15.730
 1041BOLB   C4A24968  11.820  28.890  15.920
 1041BOLB   C1B24969  10.380  28.780  15.580
 1041BOLB   C2B24970  10.840  28.770  15.420
 1041BOLB   C3B24971  11.250  28.750  15.350
 1041BOLB   C4B24972  11.520  28.560  15.680
 1041BOLB   NC224973  10.830  29.770  17.960
 1041BOLB   PO224974  11.040  30.000  17.610
 1041BOLB   GL324975  11.310  29.670  17.410
 1041BOLB   GL424976  11.570  29.580  17.630
 1041BOLB   C1C24977  11.620  29.760  16.990
 1041BOLB   C2C24978  11.930  29.510  16.760
 1041BOLB   C3C24979  12.240  29.310  16.500
 1041BOLB   C4C24980  12.140  28.940  16.180
 1041BOLB   C1D24981  11.890  29.510  17.410
 1041BOLB   C2D24982  12.360  29.360  17.350
 1041BOLB   C3D24983  12.530  29.030  17.040
 1041BOLB   C4D24984  12.880  28.760  17.000
 1042BOLB   NC124985  19.510  29.720  13.570
 1042BOLB   PO124986  19.280  30.070  13.380
 1042BOLB   GL124987  19.390  30.510  13.320
 1042BOLB   GL224988  19.300  30.630  13.610
 1042BOLB   C1A24989  19.720  30.770  13.280
 1042BOLB   C2A24990  19.830  31.200  13.240
 1042BOLB   C3A24991  19.750  31.620  13.010
 1042BOLB   C4A24992  19.810  32.120  12.930
 1042BOLB   C1B24993  19.710  30.730  13.800
 1042BOLB   C2B24994  20.080  31.000  13.950
 1042BOLB   C3B24995  20.070  31.390  14.170
 1042BOLB   C4B24996  20.060  31.820  14.460
 1042BOLB   NC224997  18.720  34.850  13.610
 1042BOLB   PO224998  19.130  34.510  13.640
 1042BOLB   GL324999  19.300  34.120  13.860
 1042BOLB   GL425000  19.130  34.020  13.590
 1042BOLB   C1C25001  19.140  33.630  13.950
 1042BOLB   C2C25002  19.210  33.200  13.740
 1042BOLB   C3C25003  19.320  32.880  13.460
 1042BOLB   C4C25004  19.640  32.610  13.320
 1042BOLB   C1D25005  19.040  33.900  13.120
 1042BOLB   C2D25006  19.240  33.510  12.900
 1042BOLB   C3D25007  19.550  33.090  12.980
 1042BOLB   C4D25008  19.920  32.810  12.910
 1043BOLB   NC125009  17.920  29.770  12.790
 1043BOLB   PO125010  17.770  30.030  13.200
 1043BOLB   GL125011  17.810  30.500  13.290
 1043BOLB   GL225012  18.130  30.520  13.220
 1043BOLB   C1A25013  17.680  30.930  13.220
 1043BOLB   C2A25014  17.470  31.330  12.980
 1043BOLB   C3A25015  17.570  31.410  12.520
 1043BOLB   C4A25016  17.730  31.780  12.200
 1043BOLB   C1B25017  18.030  30.600  12.850
 1043BOLB   C2B25018  17.790  30.970  12.770
 1043BOLB   C3B25019  17.920  31.490  12.870
 1043BOLB   C4B25020  18.150  31.620  12.480
 1043BOLB   NC225021  17.880  34.330  11.270
 1043BOLB   PO225022  17.960  34.100  11.510
 1043BOLB   GL325023  17.940  33.740  11.680
 1043BOLB   GL425024  18.130  33.630  11.830
 1043BOLB   C1C25025  17.730  33.320  11.610
 1043BOLB   C2C25026  17.540  32.980  11.820
 1043BOLB   C3C25027  17.490  32.580  11.950
 1043BOLB   C4C25028  17.550  32.190  12.180
 1043BOLB   C1D25029  18.230  33.260  11.870
 1043BOLB   C2D25030  18.470  32.940  11.900
 1043BOLB   C3D25031  18.270  32.640  12.250
 1043BOLB   C4D25032  18.470  32.360  12.420
 1044BOLB   NC125033  13.270  27.070   9.870
 1044BOLB   PO125034  13.720  27.130   9.610
 1044BOLB   GL125035  13.500  27.510   9.610
 1044BOLB   GL225036  13.080  27.410   9.570
 1044BOLB   C1A25037  13.520  27.930   9.460
 1044BOLB   C2A25038  13.590  28.390   9.390
 1044BOLB   C3A25039  13.690  28.780   9.100
 1044BOLB   C4A25040  13.870  29.200   8.970
 1044BOLB   C1B25041  12.810  27.640   9.300
 1044BOLB   C2B25042  12.550  27.880   9.080
 1044BOLB   C3B25043  12.160  28.080   9.030
 1044BOLB   C4B25044  11.930  28.300   9.340
 1044BOLB   NC225045  13.570  31.810   7.390
 1044BOLB   PO225046  13.750  31.320   7.400
 1044BOLB   GL325047  13.770  30.920   7.560
 1044BOLB   GL425048  13.880  31.030   7.890
 1044BOLB   C1C25049  13.650  30.400   7.660
 1044BOLB   C2C25050  13.790  30.180   8.020
 1044BOLB   C3C25051  13.760  29.940   8.340
 1044BOLB   C4C25052  13.780  29.640   8.690
 1044BOLB   C1D25053  14.250  31.020   7.980
 1044BOLB   C2D25054  14.550  30.700   8.080
 1044BOLB   C3D25055  14.950  30.490   7.930
 1044BOLB   C4D25056  15.400  30.520   7.730
 1045BOLB   NC125057  16.190  29.330  13.130
 1045BOLB   PO125058  16.490  29.650  12.910
 1045BOLB   GL125059  16.620  30.070  12.910
 1045BOLB   GL225060  16.730  30.200  12.560
 1045BOLB   C1A25061  16.550  30.370  13.200
 1045BOLB   C2A25062  16.480  30.470  13.650
 1045BOLB   C3A25063  16.360  30.880  13.810
 1045BOLB   C4A25064  16.520  31.330  14.030
 1045BOLB   C1B25065  16.430  30.470  12.680
 1045BOLB   C2B25066  16.070  30.630  12.460
 1045BOLB   C3B25067  15.950  30.850  12.170
 1045BOLB   C4B25068  15.690  31.190  12.200
 1045BOLB   NC225069  15.660  33.770  13.810
 1045BOLB   PO225070  16.060  33.690  14.070
 1045BOLB   GL325071  16.210  33.460  13.870
 1045BOLB   GL425072  16.370  33.500  13.580
 1045BOLB   C1C25073  16.310  33.040  13.800
 1045BOLB   C2C25074  16.390  32.590  13.930
 1045BOLB   C3C25075  16.360  32.160  13.960
 1045BOLB   C4C25076  16.470  31.750  14.160
 1045BOLB   C1D25077  16.370  33.150  13.290
 1045BOLB   C2D25078  16.690  32.830  13.190
 1045BOLB   C3D25079  16.790  32.530  13.140
 1045BOLB   C4D25080  16.910  32.200  12.780
 1046BOLB   NC125081  25.340  26.810  12.870
 1046BOLB   PO125082  25.480  27.090  13.120
 1046BOLB   GL125083  25.790  27.270  13.330
 1046BOLB   GL225084  26.040  27.080  13.390
 1046BOLB   C1A25085  26.100  27.540  13.500
 1046BOLB   C2A25086  26.520  27.590  13.520
 1046BOLB   C3A25087  26.870  27.610  13.770
 1046BOLB   C4A25088  27.290  27.710  13.900
 1046BOLB   C1B25089  26.370  27.050  13.090
 1046BOLB   C2B25090  26.700  27.280  12.940
 1046BOLB   C3B25091  26.860  27.650  13.060
 1046BOLB   C4B25092  27.000  27.990  13.340
 1046BOLB   NC225093  29.260  27.990  14.180
 1046BOLB   PO225094  29.360  27.900  14.610
 1046BOLB   GL325095  28.920  27.770  14.660
 1046BOLB   GL425096  28.710  27.640  14.420
 1046BOLB   C1C25097  28.420  27.670  14.810
 1046BOLB   C2C25098  28.030  27.660  14.660
 1046BOLB   C3C25099  27.770  27.440  14.490
 1046BOLB   C4C25100  27.510  27.580  14.180
 1046BOLB   C1D25101  28.390  27.300  14.440
 1046BOLB   C2D25102  28.150  26.940  14.400
 1046BOLB   C3D25103  27.810  26.810  14.230
 1046BOLB   C4D25104  27.500  26.730  13.870
 1047BOLB   NC125105  15.210  24.590   7.110
 1047BOLB   PO125106  15.300  24.580   6.700
 1047BOLB   GL125107  15.210  24.740   6.350
 1047BOLB   GL225108  15.110  24.990   6.280
 1047BOLB   C1A25109  15.360  24.800   5.930
 1047BOLB   C2A25110  15.280  25.060   5.610
 1047BOLB   C3A25111  15.130  25.080   5.160
 1047BOLB   C4A25112  15.030  25.000   4.810
 1047BOLB   C1B25113  15.010  25.320   5.910
 1047BOLB   C2B25114  14.840  25.760   5.920
 1047BOLB   C3B25115  14.520  26.040   5.660
 1047BOLB   C4B25116  14.530  26.290   5.310
 1047BOLB   NC225117  13.900  24.960   2.510
 1047BOLB   PO225118  13.890  25.410   2.580
 1047BOLB   GL325119  13.870  25.270   3.050
 1047BOLB   GL425120  13.580  25.170   3.160
 1047BOLB   C1C25121  14.090  25.180   3.490
 1047BOLB   C2C25122  14.320  25.070   3.880
 1047BOLB   C3C25123  14.700  24.940   4.070
 1047BOLB   C4C25124  14.880  25.050   4.470
 1047BOLB   C1D25125  13.500  24.920   3.500
 1047BOLB   C2D25126  13.290  24.760   3.820
 1047BOLB   C3D25127  13.140  24.680   4.200
 1047BOLB   C4D25128  13.100  24.710   4.650
 1048BOLB   NC125129  19.530  21.480  20.220
 1048BOLB   PO125130  19.100  21.530  20.370
 1048BOLB   GL125131  19.050  21.620  20.810
 1048BOLB   GL225132  19.120  21.870  20.930
 1048BOLB   C1A25133  18.790  21.520  21.190
 1048BOLB   C2A25134  18.680  21.450  21.680
 1048BOLB   C3A25135  18.810  21.450  22.110
 1048BOLB   C4A25136  18.830  21.310  22.490
 1048BOLB   C1B25137  18.960  21.990  21.290
 1048BOLB   C2B25138  18.960  21.990  21.710
 1048BOLB   C3B25139  19.050  21.900  22.130
 1048BOLB   C4B25140  19.300  21.660  22.420
 1048BOLB   NC225141  18.930  20.670  25.180
 1048BOLB   PO225142  18.790  20.750  24.730
 1048BOLB   GL325143  19.170  20.770  24.430
 1048BOLB   GL425144  19.160  21.100  24.440
 1048BOLB   C1C25145  19.200  20.830  23.960
 1048BOLB   C2C25146  19.260  21.050  23.570
 1048BOLB   C3C25147  19.280  21.360  23.230
 1048BOLB   C4C25148  19.020  21.450  22.750
 1048BOLB   C1D25149  18.980  21.310  24.110
 1048BOLB   C2D25150  18.500  21.490  23.960
 1048BOLB   C3D25151  18.110  21.580  23.680
 1048BOLB   C4D25152  17.750  21.890  23.770
 1049BOLB   NC125153  20.210  29.790  11.280
 1049BOLB   PO125154  19.880  29.970  11.400
 1049BOLB   GL125155  19.700  30.350  11.350
 1049BOLB   GL225156  19.470  30.450  11.380
 1049BOLB   C1A25157  19.800  30.690  11.060
 1049BOLB   C2A25158  19.760  31.100  10.970
 1049BOLB   C3A25159  19.760  31.540  10.790
 1049BOLB   C4A25160  20.060  31.740  10.490
 1049BOLB   C1B25161  19.520  30.860  11.410
 1049BOLB   C2B25162  19.560  31.210  11.420
 1049BOLB   C3B25163  19.370  31.470  11.480
 1049BOLB   C4B25164  19.350  31.840  11.570
 1049BOLB   NC225165  20.700  33.890  10.700
 1049BOLB   PO225166  20.310  33.950  10.660
 1049BOLB   GL325167  20.100  33.570  10.600
 1049BOLB   GL425168  19.890  33.410  10.480
 1049BOLB   C1C25169  20.130  33.250  10.870
 1049BOLB   C2C25170  20.050  32.800  10.880
 1049BOLB   C3C25171  20.220  32.470  10.670
 1049BOLB   C4C25172  20.250  32.110  10.520
 1049BOLB   C1D25173  19.870  32.960  10.430
 1049BOLB   C2D25174  19.720  32.560  10.590
 1049BOLB   C3D25175  19.710  32.380  10.880
 1049BOLB   C4D25176  19.680  32.010  10.990
 1050BOLB   NC125177  12.360  18.160  18.940
 1050BOLB   PO125178  12.140  18.370  18.920
 1050BOLB   GL125179  11.850  18.450  19.240
 1050BOLB   GL225180  11.640  18.280  19.100
 1050BOLB   C1A25181  11.520  18.560  19.490
 1050BOLB   C2A25182  11.280  18.570  19.760
 1050BOLB   C3A25183  10.980  18.680  20.060
 1050BOLB   C4A25184  10.790  18.390  20.340
 1050BOLB   C1B25185  11.510  18.050  19.480
 1050BOLB   C2B25186  11.490  17.780  19.760
 1050BOLB   C3B25187  11.460  17.820  20.220
 1050BOLB   C4B25188  11.100  17.960  20.470
 1050BOLB   NC225189   9.300  17.460  22.230
 1050BOLB   PO225190   9.730  17.600  22.480
 1050BOLB   GL325191   9.720  17.440  22.030
 1050BOLB   GL425192  10.100  17.290  22.030
 1050BOLB   C1C25193   9.850  17.420  21.630
 1050BOLB   C2C25194  10.040  17.580  21.270
 1050BOLB   C3C25195  10.370  17.800  20.910
 1050BOLB   C4C25196  10.650  18.060  20.690
 1050BOLB   C1D25197  10.370  17.440  21.680
 1050BOLB   C2D25198  10.670  17.590  21.280
 1050BOLB   C3D25199  10.640  18.000  21.330
 1050BOLB   C4D25200  10.460  18.300  21.710
 1051BOLB   NC125201  20.440  29.700  13.350
 1051BOLB   PO125202  20.480  30.180  13.300
 1051BOLB   GL125203  20.610  30.570  13.100
 1051BOLB   GL225204  20.800  30.560  12.850
 1051BOLB   C1A25205  20.710  31.010  13.150
 1051BOLB   C2A25206  20.860  31.410  12.990
 1051BOLB   C3A25207  21.160  31.760  12.970
 1051BOLB   C4A25208  21.480  32.110  12.980
 1051BOLB   C1B25209  20.930  30.890  12.650
 1051BOLB   C2B25210  21.250  31.260  12.740
 1051BOLB   C3B25211  21.510  31.680  12.620
 1051BOLB   C4B25212  21.810  32.070  12.590
 1051BOLB   NC225213  22.010  34.600  13.860
 1051BOLB   PO225214  22.090  34.170  13.770
 1051BOLB   GL325215  22.170  33.830  13.770
 1051BOLB   GL425216  22.100  33.560  14.050
 1051BOLB   C1C25217  21.990  33.550  13.460
 1051BOLB   C2C25218  21.880  33.170  13.310
 1051BOLB   C3C25219  21.860  32.770  13.120
 1051BOLB   C4C25220  21.880  32.300  13.040
 1051BOLB   C1D25221  22.150  33.200  13.790
 1051BOLB   C2D25222  22.180  32.780  13.550
 1051BOLB   C3D25223  21.940  32.470  13.510
 1051BOLB   C4D25224  21.490  32.460  13.360
 1052BOLB   NC125225  21.960  27.520   9.210
 1052BOLB   PO125226  21.950  27.730   8.840
 1052BOLB   GL125227  22.110  28.060   8.540
 1052BOLB   GL225228  22.220  28.380   8.520
 1052BOLB   C1A25229  22.160  28.230   8.060
 1052BOLB   C2A25230  22.100  28.480   7.660
 1052BOLB   C3A25231  21.990  28.600   7.270
 1052BOLB   C4A25232  22.040  28.890   6.810
 1052BOLB   C1B25233  22.450  28.650   8.190
 1052BOLB   C2B25234  22.330  28.930   7.870
 1052BOLB   C3B25235  22.360  28.990   7.400
 1052BOLB   C4B25236  22.490  28.940   7.060
 1052BOLB   NC225237  21.450  29.560   5.010
 1052BOLB   PO225238  21.370  30.010   5.040
 1052BOLB   GL325239  21.340  30.090   5.480
 1052BOLB   GL425240  21.060  30.090   5.740
 1052BOLB   C1C25241  21.650  30.180   5.800
 1052BOLB   C2C25242  21.820  30.090   6.240
 1052BOLB   C3C25243  21.920  29.740   6.480
 1052BOLB   C4C25244  22.050  29.360   6.700
 1052BOLB   C1D25245  20.860  29.680   5.830
 1052BOLB   C2D25246  20.980  29.420   6.140
 1052BOLB   C3D25247  21.040  29.100   6.270
 1052BOLB   C4D25248  21.300  28.840   6.420
 1053BOLB   NC125249  22.870  29.240  13.920
 1053BOLB   PO125250  23.150  28.940  13.740
 1053BOLB   GL125251  23.390  29.370  13.810
 1053BOLB   GL225252  23.190  29.630  13.840
 1053BOLB   C1A25253  23.770  29.620  13.800
 1053BOLB   C2A25254  24.210  29.780  13.850
 1053BOLB   C3A25255  24.560  29.910  13.560
 1053BOLB   C4A25256  24.740  30.310  13.390
 1053BOLB   C1B25257  23.400  29.960  13.930
 1053BOLB   C2B25258  23.780  30.130  13.940
 1053BOLB   C3B25259  24.050  30.310  14.120
 1053BOLB   C4B25260  24.530  30.440  14.330
 1053BOLB   NC225261  26.650  31.540  14.150
 1053BOLB   PO225262  26.500  31.840  13.920
 1053BOLB   GL325263  26.290  31.420  13.820
 1053BOLB   GL425264  26.470  31.190  13.800
 1053BOLB   C1C25265  26.030  31.160  13.460
 1053BOLB   C2C25266  25.740  30.950  13.190
 1053BOLB   C3C25267  25.440  30.670  13.150
 1053BOLB   C4C25268  25.090  30.540  13.350
 1053BOLB   C1D25269  26.360  30.900  13.680
 1053BOLB   C2D25270  26.130  30.560  13.490
 1053BOLB   C3D25271  25.690  30.490  13.520
 1053BOLB   C4D25272  25.470  30.190  13.260
 1054BOLB   NC125273  12.310  19.670  19.090
 1054BOLB   PO125274  12.150  19.460  18.670
 1054BOLB   GL125275  11.930  19.240  19.000
 1054BOLB   GL225276  11.530  19.380  18.890
 1054BOLB   C1A25277  11.770  19.040  19.420
 1054BOLB   C2A25278  11.710  18.910  19.850
 1054BOLB   C3A25279  11.460  19.020  20.260
 1054BOLB   C4A25280  11.410  19.160  20.750
 1054BOLB   C1B25281  11.480  19.430  19.240
 1054BOLB   C2B25282  11.310  19.640  19.620
 1054BOLB   C3B25283  11.000  19.910  19.750
 1054BOLB   C4B25284  10.870  20.300  19.740
 1054BOLB   NC225285  11.120  18.630  23.380
 1054BOLB   PO225286  11.120  18.700  22.960
 1054BOLB   GL325287  11.240  18.740  22.580
 1054BOLB   GL425288  10.980  18.490  22.480
 1054BOLB   C1C25289  11.400  19.030  22.240
 1054BOLB   C2C25290  11.630  19.160  22.030
 1054BOLB   C3C25291  11.520  19.190  21.670
 1054BOLB   C4C25292  11.400  19.190  21.260
 1054BOLB   C1D25293  11.140  18.010  22.370
 1054BOLB   C2D25294  11.320  18.110  21.980
 1054BOLB   C3D25295  11.550  18.060  21.540
 1054BOLB   C4D25296  11.790  18.080  21.140
 1055BOLB   NC125297  15.770  28.800  10.210
 1055BOLB   PO125298  16.100  29.140  10.350
 1055BOLB   GL125299  16.120  29.550  10.380
 1055BOLB   GL225300  16.400  29.450  10.110
 1055BOLB   C1A25301  16.020  29.830  10.140
 1055BOLB   C2A25302  16.030  30.250  10.160
 1055BOLB   C3A25303  16.060  30.710  10.200
 1055BOLB   C4A25304  16.420  30.930  10.110
 1055BOLB   C1B25305  16.400  29.730   9.760
 1055BOLB   C2B25306  16.430  30.050   9.460
 1055BOLB   C3B25307  16.330  30.490   9.260
 1055BOLB   C4B25308  16.110  30.810   9.190
 1055BOLB   NC225309  15.640  33.670  10.210
 1055BOLB   PO225310  15.780  33.510  10.650
 1055BOLB   GL325311  16.070  33.070  10.660
 1055BOLB   GL425312  16.350  33.250  10.830
 1055BOLB   C1C25313  16.240  32.790  10.500
 1055BOLB   C2C25314  16.250  32.350  10.440
 1055BOLB   C3C25315  16.490  31.960  10.340
 1055BOLB   C4C25316  16.560  31.420  10.260
 1055BOLB   C1D25317  16.550  32.870  10.930
 1055BOLB   C2D25318  16.410  32.430  10.910
 1055BOLB   C3D25319  16.120  32.160  10.980
 1055BOLB   C4D25320  15.790  31.770  11.000
 1056BOLB   NC125321  14.980  16.000   6.290
 1056BOLB   PO125322  14.530  15.910   6.100
 1056BOLB   GL125323  14.130  15.610   5.920
 1056BOLB   GL225324  14.170  15.240   5.900
 1056BOLB   C1A25325  13.890  15.510   5.530
 1056BOLB   C2A25326  13.560  15.120   5.390
 1056BOLB   C3A25327  13.150  14.790   5.240
 1056BOLB   C4A25328  12.900  14.470   5.400
 1056BOLB   C1B25329  13.810  14.980   5.850
 1056BOLB   C2B25330  13.370  14.840   5.730
 1056BOLB   C3B25331  13.070  14.610   5.880
 1056BOLB   C4B25332  13.160  14.210   5.920
 1056BOLB   NC225333  11.280  12.990   5.750
 1056BOLB   PO225334  11.200  13.110   5.400
 1056BOLB   GL325335  11.510  13.330   5.470
 1056BOLB   GL425336  11.740  13.170   5.410
 1056BOLB   C1C25337  11.480  13.820   5.590
 1056BOLB   C2C25338  11.740  14.080   5.770
 1056BOLB   C3C25339  12.230  14.200   5.830
 1056BOLB   C4C25340  12.600  14.450   5.650
 1056BOLB   C1D25341  11.900  13.590   5.650
 1056BOLB   C2D25342  12.210  13.560   5.980
 1056BOLB   C3D25343  12.660  13.590   5.990
 1056BOLB   C4D25344  13.060  13.680   5.860
 1057BOLB   NC125345  22.830  28.730  15.110
 1057BOLB   PO125346  22.780  28.690  15.580
 1057BOLB   GL125347  22.870  29.170  15.450
 1057BOLB   GL225348  23.090  29.180  15.240
 1057BOLB   C1A25349  22.930  29.580  15.760
 1057BOLB   C2A25350  23.140  29.890  15.730
 1057BOLB   C3A25351  23.320  30.280  15.780
 1057BOLB   C4A25352  23.420  30.490  16.100
 1057BOLB   C1B25353  23.190  29.550  15.180
 1057BOLB   C2B25354  23.390  29.870  15.320
 1057BOLB   C3B25355  23.630  30.240  15.360
 1057BOLB   C4B25356  23.800  30.690  15.330
 1057BOLB   NC225357  25.220  31.790  17.520
 1057BOLB   PO225358  24.940  31.960  17.290
 1057BOLB   GL325359  24.600  31.620  17.410
 1057BOLB   GL425360  24.860  31.460  17.390
 1057BOLB   C1C25361  24.400  31.300  17.120
 1057BOLB   C2C25362  24.180  31.130  16.840
 1057BOLB   C3C25363  23.920  30.780  16.660
 1057BOLB   C4C25364  23.780  30.590  16.370
 1057BOLB   C1D25365  24.900  31.040  17.310
 1057BOLB   C2D25366  24.760  30.620  17.070
 1057BOLB   C3D25367  24.540  30.300  16.810
 1057BOLB   C4D25368  24.450  30.060  16.410
 1058BOLB   NC125369  11.800  24.550   8.330
 1058BOLB   PO125370  11.710  24.050   8.170
 1058BOLB   GL125371  11.450  24.050   7.740
 1058BOLB   GL225372  11.260  23.830   7.650
 1058BOLB   C1A25373  11.250  24.460   7.530
 1058BOLB   C2A25374  11.040  24.880   7.370
 1058BOLB   C3A25375  10.630  24.930   7.180
 1058BOLB   C4A25376  10.260  24.680   6.870
 1058BOLB   C1B25377  11.140  24.050   7.280
 1058BOLB   C2B25378  11.100  24.040   6.850
 1058BOLB   C3B25379  11.020  24.130   6.470
 1058BOLB   C4B25380  10.960  24.310   6.020
 1058BOLB   NC225381   8.140  24.920   6.310
 1058BOLB   PO225382   8.460  25.120   5.990
 1058BOLB   GL325383   8.700  24.820   6.330
 1058BOLB   GL425384   8.490  24.510   6.460
 1058BOLB   C1C25385   9.010  24.520   6.540
 1058BOLB   C2C25386   9.380  24.360   6.850
 1058BOLB   C3C25387   9.690  24.180   7.130
 1058BOLB   C4C25388  10.120  24.350   7.110
 1058BOLB   C1D25389   8.760  24.310   6.170
 1058BOLB   C2D25390   9.180  24.020   6.200
 1058BOLB   C3D25391   9.510  24.070   6.460
 1058BOLB   C4D25392   9.660  23.850   6.710
 1059BOLB   NC125393  16.380  28.910   9.980
 1059BOLB   PO125394  15.900  28.780   9.690
 1059BOLB   GL125395  15.930  29.150   9.880
 1059BOLB   GL225396  16.100  29.320   9.620
 1059BOLB   C1A25397  15.770  29.610   9.750
 1059BOLB   C2A25398  16.000  29.990   9.690
 1059BOLB   C3A25399  15.910  30.360   9.460
 1059BOLB   C4A25400  15.730  30.500   9.150
 1059BOLB   C1B25401  16.110  29.580   9.290
 1059BOLB   C2B25402  15.760  29.830   9.280
 1059BOLB   C3B25403  15.490  30.050   9.620
 1059BOLB   C4B25404  15.310  30.410   9.550
 1059BOLB   NC225405  14.320  31.800   8.140
 1059BOLB   PO225406  14.710  32.060   8.030
 1059BOLB   GL325407  14.860  31.810   8.280
 1059BOLB   GL425408  15.170  32.010   8.350
 1059BOLB   C1C25409  15.100  31.400   8.270
 1059BOLB   C2C25410  15.200  31.060   8.550
 1059BOLB   C3C25411  15.220  30.790   8.850
 1059BOLB   C4C25412  15.410  30.630   9.060
 1059BOLB   C1D25413  15.270  31.700   8.610
 1059BOLB   C2D25414  15.390  31.340   8.930
 1059BOLB   C3D25415  15.170  31.220   9.240
 1059BOLB   C4D25416  15.050  30.890   9.410
 1060BOLB   NC125417  11.700  26.510  11.800
 1060BOLB   PO125418  11.470  26.530  12.160
 1060BOLB   GL125419  11.300  26.880  12.380
 1060BOLB   GL225420  11.010  26.930  12.550
 1060BOLB   C1A25421  11.140  27.380  12.470
 1060BOLB   C2A25422  10.940  27.790  12.530
 1060BOLB   C3A25423  10.780  28.010  12.310
 1060BOLB   C4A25424  10.510  27.750  12.050
 1060BOLB   C1B25425  10.810  27.140  12.840
 1060BOLB   C2B25426  10.480  27.530  12.770
 1060BOLB   C3B25427  10.390  27.780  12.520
 1060BOLB   C4B25428  10.310  28.090  12.320
 1060BOLB   NC225429   8.930  29.860  12.690
 1060BOLB   PO225430   9.230  29.870  12.420
 1060BOLB   GL325431   9.400  29.370  12.410
 1060BOLB   GL425432   9.130  29.110  12.380
 1060BOLB   C1C25433   9.720  29.270  12.180
 1060BOLB   C2C25434   9.830  28.840  12.070
 1060BOLB   C3C25435  10.080  28.510  11.920
 1060BOLB   C4C25436  10.200  28.060  11.840
 1060BOLB   C1D25437   9.460  28.820  12.360
 1060BOLB   C2D25438   9.760  28.480  12.440
 1060BOLB   C3D25439   9.820  28.050  12.440
 1060BOLB   C4D25440   9.970  27.700  12.070
 1061BOLB   NC125441  12.770  24.380  23.370
 1061BOLB   PO125442  12.910  24.820  23.260
 1061BOLB   GL125443  13.070  24.570  22.940
 1061BOLB   GL225444  12.810  24.440  22.740
 1061BOLB   C1A25445  13.380  24.440  22.640
 1061BOLB   C2A25446  13.510  24.240  22.170
 1061BOLB   C3A25447  13.570  24.030  21.820
 1061BOLB   C4A25448  13.620  23.710  21.560
 1061BOLB   C1B25449  13.000  24.370  22.330
 1061BOLB   C2B25450  13.060  24.080  21.970
 1061BOLB   C3B25451  13.110  23.950  21.440
 1061BOLB   C4B25452  13.240  24.050  21.130
 1061BOLB   NC225453  14.230  23.250  19.000
 1061BOLB   PO225454  14.670  23.240  19.280
 1061BOLB   GL325455  14.350  23.550  19.440
 1061BOLB   GL425456  14.630  23.850  19.400
 1061BOLB   C1C25457  14.230  23.580  19.830
 1061BOLB   C2C25458  14.080  23.690  20.270
 1061BOLB   C3C25459  14.000  23.620  20.740
 1061BOLB   C4C25460  13.820  23.490  21.130
 1061BOLB   C1D25461  14.290  24.030  19.620
 1061BOLB   C2D25462  14.210  24.390  19.720
 1061BOLB   C3D25463  14.120  24.500  20.120
 1061BOLB   C4D25464  14.140  24.750  20.410
 1062BOLB   NC125465  14.170  13.420   9.420
 1062BOLB   PO125466  14.270  13.200   9.720
 1062BOLB   GL125467  13.950  13.020   9.560
 1062BOLB   GL225468  14.150  12.760   9.380
 1062BOLB   C1A25469  13.580  12.930   9.490
 1062BOLB   C2A25470  13.320  12.970   9.820
 1062BOLB   C3A25471  12.920  13.190   9.910
 1062BOLB   C4A25472  12.510  13.160   9.940
 1062BOLB   C1B25473  14.000  12.360   9.400
 1062BOLB   C2B25474  13.760  11.990   9.740
 1062BOLB   C3B25475  13.430  11.990  10.100
 1062BOLB   C4B25476  13.120  12.060  10.380
 1062BOLB   NC225477  10.090  12.900  10.400
 1062BOLB   PO225478  10.330  12.460  10.520
 1062BOLB   GL325479  10.550  12.760  10.610
 1062BOLB   GL425480  10.510  12.970  10.820
 1062BOLB   C1C25481  11.010  12.870  10.420
 1062BOLB   C2C25482  11.360  12.650  10.170
 1062BOLB   C3C25483  11.690  12.810  10.090
 1062BOLB   C4C25484  12.140  13.020   9.970
 1062BOLB   C1D25485  10.490  12.780  11.170
 1062BOLB   C2D25486  10.800  12.610  11.340
 1062BOLB   C3D25487  11.120  12.800  11.540
 1062BOLB   C4D25488  11.270  13.120  11.670
 1063BOLB   NC125489  13.720  27.250  13.670
 1063BOLB   PO125490  13.380  27.420  13.890
 1063BOLB   GL125491  12.980  27.770  13.750
 1063BOLB   GL225492  12.740  27.620  14.000
 1063BOLB   C1A25493  12.950  28.170  13.630
 1063BOLB   C2A25494  12.520  28.330  13.540
 1063BOLB   C3A25495  12.200  28.550  13.380
 1063BOLB   C4A25496  11.980  28.880  13.120
 1063BOLB   C1B25497  12.670  28.110  14.090
 1063BOLB   C2B25498  12.490  28.460  14.310
 1063BOLB   C3B25499  12.510  28.850  14.400
 1063BOLB   C4B25500  12.150  28.990  14.540
 1063BOLB   NC225501   9.780  30.030  14.230
 1063BOLB   PO225502  10.020  30.400  14.100
 1063BOLB   GL325503  10.330  30.060  14.030
 1063BOLB   GL425504  10.290  29.880  14.180
 1063BOLB   C1C25505  10.750  29.800  13.840
 1063BOLB   C2C25506  11.200  29.630  13.670
 1063BOLB   C3C25507  11.280  29.340  13.290
 1063BOLB   C4C25508  11.610  29.170  13.120
 1063BOLB   C1D25509  10.680  29.880  14.310
 1063BOLB   C2D25510  10.920  29.600  14.360
 1063BOLB   C3D25511  11.180  29.180  14.380
 1063BOLB   C4D25512  11.370  28.780  14.450
 1064BOLB   NC125513  22.950  28.700  14.290
 1064BOLB   PO125514  23.170  28.800  14.620
 1064BOLB   GL125515  23.440  29.060  14.920
 1064BOLB   GL225516  23.320  29.330  14.780
 1064BOLB   C1A25517  23.690  29.370  15.170
 1064BOLB   C2A25518  23.840  29.720  15.460
 1064BOLB   C3A25519  23.760  29.980  15.820
 1064BOLB   C4A25520  23.940  30.080  16.260
 1064BOLB   C1B25521  23.570  29.630  14.760
 1064BOLB   C2B25522  23.830  30.010  14.720
 1064BOLB   C3B25523  24.280  30.060  14.570
 1064BOLB   C4B25524  24.760  30.000  14.540
 1064BOLB   NC225525  25.400  31.130  18.140
 1064BOLB   PO225526  25.110  31.450  17.960
 1064BOLB   GL325527  24.940  31.110  17.800
 1064BOLB   GL425528  25.100  30.900  17.790
 1064BOLB   C1C25529  24.550  31.050  17.680
 1064BOLB   C2C25530  24.300  30.840  17.380
 1064BOLB   C3C25531  24.190  30.570  17.050
 1064BOLB   C4C25532  24.090  30.310  16.590
 1064BOLB   C1D25533  24.760  30.660  17.570
 1064BOLB   C2D25534  24.440  30.340  17.390
 1064BOLB   C3D25535  24.300  29.970  17.120
 1064BOLB   C4D25536  24.590  29.700  16.890
 1065BOLB   NC125537  22.730  22.580   7.220
 1065BOLB   PO125538  22.770  22.720   6.890
 1065BOLB   GL125539  22.990  22.630   6.560
 1065BOLB   GL225540  23.190  22.830   6.570
 1065BOLB   C1A25541  23.280  22.430   6.280
 1065BOLB   C2A25542  23.400  22.210   6.000
 1065BOLB   C3A25543  23.670  21.970   5.780
 1065BOLB   C4A25544  23.900  22.220   5.520
 1065BOLB   C1B25545  23.580  22.760   6.500
 1065BOLB   C2B25546  24.040  22.730   6.380
 1065BOLB   C3B25547  24.470  22.890   6.240
 1065BOLB   C4B25548  24.730  23.180   6.180
 1065BOLB   NC225549  25.460  22.200   3.550
 1065BOLB   PO225550  25.580  21.980   3.920
 1065BOLB   GL325551  25.150  21.920   4.100
 1065BOLB   GL425552  24.890  21.780   4.030
 1065BOLB   C1C25553  24.880  22.230   4.300
 1065BOLB   C2C25554  24.560  22.150   4.510
 1065BOLB   C3C25555  24.350  22.090   4.850
 1065BOLB   C4C25556  24.200  22.270   5.260
 1065BOLB   C1D25557  24.520  21.580   4.070
 1065BOLB   C2D25558  24.140  21.660   4.370
 1065BOLB   C3D25559  24.000  21.140   4.520
 1065BOLB   C4D25560  23.690  20.840   4.650
 1066BOLB   NC125561  15.290  29.020  10.760
 1066BOLB   PO125562  15.170  29.100  11.170
 1066BOLB   GL125563  15.250  29.510  10.930
 1066BOLB   GL225564  15.160  29.430  10.540
 1066BOLB   C1A25565  14.860  29.790  11.070
 1066BOLB   C2A25566  14.810  30.140  10.870
 1066BOLB   C3A25567  14.740  30.210  10.390
 1066BOLB   C4A25568  14.610  30.500  10.200
 1066BOLB   C1B25569  15.160  29.870  10.590
 1066BOLB   C2B25570  15.200  30.400  10.520
 1066BOLB   C3B25571  15.110  30.730  10.230
 1066BOLB   C4B25572  15.220  30.930   9.930
 1066BOLB   NC225573  14.700  33.030  10.150
 1066BOLB   PO225574  14.520  33.080   9.710
 1066BOLB   GL325575  14.660  32.650   9.800
 1066BOLB   GL425576  14.960  32.830   9.790
 1066BOLB   C1C25577  14.570  32.310  10.100
 1066BOLB   C2C25578  14.580  31.870  10.070
 1066BOLB   C3C25579  14.600  31.400  10.180
 1066BOLB   C4C25580  14.710  31.000  10.220
 1066BOLB   C1D25581  15.070  32.430   9.790
 1066BOLB   C2D25582  15.110  32.100  10.010
 1066BOLB   C3D25583  15.130  31.660  10.100
 1066BOLB   C4D25584  15.220  31.250  10.310
 1067BOLB   NC125585  21.550  30.130  12.880
 1067BOLB   PO125586  21.280  30.180  12.550
 1067BOLB   GL125587  21.430  30.690  12.620
 1067BOLB   GL225588  21.700  30.550  12.640
 1067BOLB   C1A25589  21.520  31.000  12.390
 1067BOLB   C2A25590  21.560  31.350  12.230
 1067BOLB   C3A25591  21.260  31.670  12.080
 1067BOLB   C4A25592  21.430  32.030  11.930
 1067BOLB   C1B25593  21.960  30.960  12.570
 1067BOLB   C2B25594  21.990  31.470  12.560
 1067BOLB   C3B25595  22.290  31.850  12.560
 1067BOLB   C4B25596  22.530  32.180  12.810
 1067BOLB   NC225597  23.300  34.130  12.870
 1067BOLB   PO225598  23.130  33.720  12.740
 1067BOLB   GL325599  22.990  33.350  12.700
 1067BOLB   GL425600  22.870  33.250  13.030
 1067BOLB   C1C25601  22.890  32.980  12.310
 1067BOLB   C2C25602  22.490  32.700  12.200
 1067BOLB   C3C25603  22.000  32.700  12.180
 1067BOLB   C4C25604  21.640  32.350  12.180
 1067BOLB   C1D25605  22.460  33.220  12.900
 1067BOLB   C2D25606  22.310  32.890  12.590
 1067BOLB   C3D25607  22.160  32.430  12.610
 1067BOLB   C4D25608  22.260  32.220  12.240
 1068BOLB   NC125609  13.010  27.340  10.740
 1068BOLB   PO125610  13.140  27.630  10.990
 1068BOLB   GL125611  12.790  27.820  10.760
 1068BOLB   GL225612  12.690  27.660  10.490
 1068BOLB   C1A25613  12.730  28.210  10.530
 1068BOLB   C2A25614  12.540  28.680  10.320
 1068BOLB   C3A25615  12.340  28.950  10.530
 1068BOLB   C4A25616  12.140  29.260  10.370
 1068BOLB   C1B25617  12.320  27.910  10.570
 1068BOLB   C2B25618  12.000  28.130  10.890
 1068BOLB   C3B25619  11.700  28.470  10.820
 1068BOLB   C4B25620  11.540  28.700  10.480
 1068BOLB   NC225621  11.110  30.510   8.270
 1068BOLB   PO225622  11.370  30.580   8.660
 1068BOLB   GL325623  11.370  30.510   9.050
 1068BOLB   GL425624  11.410  30.160   9.080
 1068BOLB   C1C25625  11.700  30.390   9.410
 1068BOLB   C2C25626  11.780  30.260   9.870
 1068BOLB   C3C25627  11.680  30.020  10.240
 1068BOLB   C4C25628  11.940  29.610  10.350
 1068BOLB   C1D25629  11.780  29.930   8.880
 1068BOLB   C2D25630  11.950  29.590   9.070
 1068BOLB   C3D25631  12.100  29.220   9.240
 1068BOLB   C4D25632  12.480  29.010   9.140
 1069BOLB   NC125633   7.630  28.770  10.900
 1069BOLB   PO125634   8.040  28.910  10.850
 1069BOLB   GL125635   8.480  28.670  10.960
 1069BOLB   GL225636   8.520  28.450  10.720
 1069BOLB   C1A25637   8.760  28.460  11.270
 1069BOLB   C2A25638   9.030  28.040  11.180
 1069BOLB   C3A25639   9.340  27.740  11.110
 1069BOLB   C4A25640   9.570  27.740  10.750
 1069BOLB   C1B25641   8.870  28.300  10.670
 1069BOLB   C2B25642   9.310  28.090  10.610
 1069BOLB   C3B25643   9.780  28.190  10.730
 1069BOLB   C4B25644  10.130  28.220  10.920
 1069BOLB   NC225645  11.580  25.760  10.790
 1069BOLB   PO225646  11.210  25.980  10.730
 1069BOLB   GL325647  11.110  26.400  10.500
 1069BOLB   GL425648  11.140  26.480  10.140
 1069BOLB   C1C25649  10.720  26.690  10.510
 1069BOLB   C2C25650  10.370  27.040  10.440
 1069BOLB   C3C25651  10.220  27.450  10.550
 1069BOLB   C4C25652   9.950  27.760  10.630
 1069BOLB   C1D25653  10.940  26.890  10.060
 1069BOLB   C2D25654  10.610  27.220  10.030
 1069BOLB   C3D25655  10.360  27.660   9.850
 1069BOLB   C4D25656  10.160  27.840  10.200
 1070BOLB   NC125657  12.970  27.490  12.620
 1070BOLB   PO125658  13.430  27.670  12.650
 1070BOLB   GL125659  13.040  27.960  12.700
 1070BOLB   GL225660  12.670  27.880  12.580
 1070BOLB   C1A25661  12.860  28.330  12.550
 1070BOLB   C2A25662  12.690  28.720  12.430
 1070BOLB   C3A25663  12.650  29.190  12.550
 1070BOLB   C4A25664  12.550  29.600  12.610
 1070BOLB   C1B25665  12.230  28.120  12.660
 1070BOLB   C2B25666  11.980  28.500  12.790
 1070BOLB   C3B25667  11.560  28.730  12.920
 1070BOLB   C4B25668  11.250  28.770  13.350
 1070BOLB   NC225669  10.760  30.730  12.510
 1070BOLB   PO225670  10.350  30.500  12.430
 1070BOLB   GL325671  10.730  30.240  12.390
 1070BOLB   GL425672  10.630  30.150  11.970
 1070BOLB   C1C25673  11.030  30.050  12.240
 1070BOLB   C2C25674  11.550  30.090  12.220
 1070BOLB   C3C25675  11.860  30.060  12.430
 1070BOLB   C4C25676  12.190  29.730  12.600
 1070BOLB   C1D25677  10.750  29.760  11.980
 1070BOLB   C2D25678  10.750  29.400  11.910
 1070BOLB   C3D25679  10.830  29.180  11.580
 1070BOLB   C4D25680  11.130  28.870  11.540
 1071BOLB   NC125681  25.420  32.260  16.090
 1071BOLB   PO125682  25.000  32.200  16.090
 1071BOLB   GL125683  24.610  31.970  15.810
 1071BOLB   GL225684  24.310  32.060  15.720
 1071BOLB   C1A25685  24.550  31.610  15.590
 1071BOLB   C2A25686  24.320  31.270  15.340
 1071BOLB   C3A25687  24.510  30.970  15.100
 1071BOLB   C4A25688  24.500  30.850  14.740
 1071BOLB   C1B25689  24.020  31.880  15.630
 1071BOLB   C2B25690  23.690  31.900  15.920
 1071BOLB   C3B25691  23.610  31.630  16.200
 1071BOLB   C4B25692  23.320  31.410  16.470
 1071BOLB   NC225693  25.050  32.650  14.760
 1071BOLB   PO225694  25.470  32.850  14.620
 1071BOLB   GL325695  25.330  32.470  14.380
 1071BOLB   GL425696  25.320  32.540  14.070
 1071BOLB   C1C25697  25.050  32.170  14.140
 1071BOLB   C2C25698  24.790  31.730  13.970
 1071BOLB   C3C25699  24.470  31.310  14.070
 1071BOLB   C4C25700  24.640  30.930  14.370
 1071BOLB   C1D25701  25.150  32.420  13.670
 1071BOLB   C2D25702  25.000  31.980  13.590
 1071BOLB   C3D25703  24.710  31.480  13.500
 1071BOLB   C4D25704  24.490  31.170  13.290
 1072BOLB   NC125705  13.980  28.030  10.650
 1072BOLB   PO125706  14.120  28.330  10.400
 1072BOLB   GL125707  14.080  28.660  10.190
 1072BOLB   GL225708  14.340  28.840  10.180
 1072BOLB   C1A25709  13.890  29.080  10.050
 1072BOLB   C2A25710  13.560  29.340   9.870
 1072BOLB   C3A25711  13.250  29.640   9.870
 1072BOLB   C4A25712  12.910  29.710  10.070
 1072BOLB   C1B25713  14.310  29.330  10.350
 1072BOLB   C2B25714  14.080  29.680  10.390
 1072BOLB   C3B25715  13.690  29.840  10.190
 1072BOLB   C4B25716  13.560  30.160   9.840
 1072BOLB   NC225717  12.200  32.240  10.180
 1072BOLB   PO225718  11.860  31.870  10.310
 1072BOLB   GL325719  12.090  31.530  10.140
 1072BOLB   GL425720  11.940  31.290   9.950
 1072BOLB   C1C25721  12.100  31.070  10.340
 1072BOLB   C2C25722  12.220  30.710  10.610
 1072BOLB   C3C25723  12.540  30.370  10.520
 1072BOLB   C4C25724  12.720  30.010  10.420
 1072BOLB   C1D25725  11.950  31.010   9.590
 1072BOLB   C2D25726  12.210  30.580   9.480
 1072BOLB   C3D25727  12.360  30.310   9.680
 1072BOLB   C4D25728  12.670  30.050   9.840
 1073BOLB   NC125729  10.590  25.000  10.830
 1073BOLB   PO125730  10.880  25.350  10.760
 1073BOLB   GL125731  10.630  25.730  10.590
 1073BOLB   GL225732  10.710  26.020  10.390
 1073BOLB   C1A25733  10.180  25.810  10.340
 1073BOLB   C2A25734   9.940  26.060  10.370
 1073BOLB   C3A25735   9.770  26.390  10.290
 1073BOLB   C4A25736   9.490  26.640  10.200
 1073BOLB   C1B25737  10.610  26.440  10.150
 1073BOLB   C2B25738  10.410  26.760   9.800
 1073BOLB   C3B25739  10.110  27.070   9.650
 1073BOLB   C4B25740   9.780  27.240   9.350
 1073BOLB   NC225741   8.580  28.520   7.710
 1073BOLB   PO225742   8.840  28.290   8.040
 1073BOLB   GL325743   9.110  27.950   8.400
 1073BOLB   GL425744   9.380  27.810   8.360
 1073BOLB   C1C25745   9.310  27.710   8.840
 1073BOLB   C2C25746   9.270  27.270   9.030
 1073BOLB   C3C25747   9.260  27.070   9.490
 1073BOLB   C4C25748   9.350  26.710   9.750
 1073BOLB   C1D25749   9.460  27.430   8.300
 1073BOLB   C2D25750   9.560  27.300   7.910
 1073BOLB   C3D25751   9.590  26.900   7.740
 1073BOLB   C4D25752   9.550  26.660   7.370
 1074BOLB   NC125753  26.110  21.780  11.830
 1074BOLB   PO125754  26.220  22.150  11.610
 1074BOLB   GL125755  26.360  22.140  11.180
 1074BOLB   GL225756  26.580  22.350  10.930
 1074BOLB   C1A25757  26.870  21.940  11.130
 1074BOLB   C2A25758  27.380  21.830  11.190
 1074BOLB   C3A25759  27.640  21.450  10.860
 1074BOLB   C4A25760  27.450  21.470  10.440
 1074BOLB   C1B25761  27.010  22.420  10.950
 1074BOLB   C2B25762  27.400  22.320  11.060
 1074BOLB   C3B25763  27.690  22.790  11.120
 1074BOLB   C4B25764  28.020  22.800  11.390
 1074BOLB   NC225765  29.950  21.200   9.920
 1074BOLB   PO225766  29.620  20.840  10.180
 1074BOLB   GL325767  29.070  20.750  10.290
 1074BOLB   GL425768  28.950  20.860  10.650
 1074BOLB   C1C25769  28.620  20.740  10.120
 1074BOLB   C2C25770  28.250  20.980  10.010
 1074BOLB   C3C25771  27.810  21.260   9.810
 1074BOLB   C4C25772  27.520  21.480  10.040
 1074BOLB   C1D25773  28.770  20.840  11.030
 1074BOLB   C2D25774  28.430  20.910  11.260
 1074BOLB   C3D25775  28.160  21.210  11.550
 1074BOLB   C4D25776  28.000  21.300  11.990
 1075BOLB   NC125777  26.070  25.020  15.580
 1075BOLB   PO125778  25.690  25.290  15.710
 1075BOLB   GL125779  26.050  25.470  15.960
 1075BOLB   GL225780  26.000  25.550  16.180
 1075BOLB   C1A25781  26.360  25.800  15.830
 1075BOLB   C2A25782  26.780  26.040  15.950
 1075BOLB   C3A25783  27.180  26.250  16.110
 1075BOLB   C4A25784  27.410  26.600  15.960
 1075BOLB   C1B25785  26.400  25.640  16.460
 1075BOLB   C2B25786  26.490  25.880  16.820
 1075BOLB   C3B25787  26.520  26.220  17.250
 1075BOLB   C4B25788  26.770  26.200  17.680
 1075BOLB   NC225789  29.760  27.690  14.950
 1075BOLB   PO225790  29.400  27.580  15.270
 1075BOLB   GL325791  29.000  27.580  15.140
 1075BOLB   GL425792  28.860  27.810  15.330
 1075BOLB   C1C25793  28.640  27.330  15.180
 1075BOLB   C2C25794  28.320  27.130  15.400
 1075BOLB   C3C25795  28.150  26.830  15.730
 1075BOLB   C4C25796  27.790  26.690  15.970
 1075BOLB   C1D25797  28.690  27.540  15.650
 1075BOLB   C2D25798  28.610  27.200  15.830
 1075BOLB   C3D25799  28.490  26.900  16.120
 1075BOLB   C4D25800  28.170  26.790  16.260
 1076BOLB   NC125801  13.660  27.100  16.370
 1076BOLB   PO125802  13.760  26.980  16.770
 1076BOLB   GL125803  13.840  27.090  17.100
 1076BOLB   GL225804  13.800  27.270  17.280
 1076BOLB   C1A25805  13.670  26.870  17.540
 1076BOLB   C2A25806  13.430  26.940  17.950
 1076BOLB   C3A25807  13.230  27.310  18.230
 1076BOLB   C4A25808  13.000  27.560  18.340
 1076BOLB   C1B25809  13.550  27.420  17.630
 1076BOLB   C2B25810  13.320  27.770  17.810
 1076BOLB   C3B25811  12.970  28.010  18.060
 1076BOLB   C4B25812  12.550  27.860  18.020
 1076BOLB   NC225813  10.980  28.470  19.330
 1076BOLB   PO225814  11.110  28.170  19.640
 1076BOLB   GL325815  11.490  28.140  19.440
 1076BOLB   GL425816  11.590  28.340  19.360
 1076BOLB   C1C25817  11.800  27.850  19.390
 1076BOLB   C2C25818  11.920  27.660  18.970
 1076BOLB   C3C25819  12.220  27.500  18.770
 1076BOLB   C4C25820  12.550  27.560  18.500
 1076BOLB   C1D25821  11.780  28.370  18.900
 1076BOLB   C2D25822  11.700  28.170  18.620
 1076BOLB   C3D25823  11.670  27.790  18.390
 1076BOLB   C4D25824  11.580  27.750  18.030
 1077BOLB   NC125825  11.770  23.910   8.850
 1077BOLB   PO125826  11.620  24.290   8.730
 1077BOLB   GL125827  11.330  24.260   8.370
 1077BOLB   GL225828  11.080  24.140   8.610
 1077BOLB   C1A25829  11.070  24.390   8.020
 1077BOLB   C2A25830  10.800  24.570   7.790
 1077BOLB   C3A25831  10.440  24.790   7.710
 1077BOLB   C4A25832  10.020  24.850   7.820
 1077BOLB   C1B25833  10.700  24.190   8.290
 1077BOLB   C2B25834  10.310  24.380   8.010
 1077BOLB   C3B25835  10.360  24.290   7.620
 1077BOLB   C4B25836  10.730  24.360   7.330
 1077BOLB   NC225837   7.880  25.940   6.000
 1077BOLB   PO225838   8.260  25.950   6.320
 1077BOLB   GL325839   8.480  25.730   6.680
 1077BOLB   GL425840   8.800  25.830   6.590
 1077BOLB   C1C25841   8.780  25.450   6.970
 1077BOLB   C2C25842   9.010  25.330   7.350
 1077BOLB   C3C25843   9.340  25.210   7.580
 1077BOLB   C4C25844   9.640  24.990   7.690
 1077BOLB   C1D25845   9.190  25.540   6.670
 1077BOLB   C2D25846   9.460  25.180   6.560
 1077BOLB   C3D25847   9.490  24.790   6.610
 1077BOLB   C4D25848   9.800  24.470   6.650
 1078BOLB   NC125849  18.650  29.620  11.060
 1078BOLB   PO125850  18.650  29.530  10.610
 1078BOLB   GL125851  18.740  29.860  10.310
 1078BOLB   GL225852  19.060  29.990  10.220
 1078BOLB   C1A25853  18.660  30.290  10.320
 1078BOLB   C2A25854  18.570  30.660  10.110
 1078BOLB   C3A25855  18.520  30.940   9.800
 1078BOLB   C4A25856  18.220  31.260   9.870
 1078BOLB   C1B25857  19.000  30.410   9.960
 1078BOLB   C2B25858  19.060  30.800   9.750
 1078BOLB   C3B25859  19.000  31.150   9.680
 1078BOLB   C4B25860  18.690  31.480   9.750
 1078BOLB   NC225861  17.740  33.630   9.220
 1078BOLB   PO225862  17.880  33.900   9.500
 1078BOLB   GL325863  17.730  33.500   9.750
 1078BOLB   GL425864  18.070  33.460   9.810
 1078BOLB   C1C25865  17.820  33.010   9.630
 1078BOLB   C2C25866  17.870  32.530   9.720
 1078BOLB   C3C25867  17.890  32.180   9.820
 1078BOLB   C4C25868  18.190  31.750   9.870
 1078BOLB   C1D25869  18.210  32.970   9.930
 1078BOLB   C2D25870  18.130  32.600  10.180
 1078BOLB   C3D25871  18.410  32.130  10.250
 1078BOLB   C4D25872  18.840  31.960  10.270
 1079BOLB   NC125873  14.280  14.770  18.100
 1079BOLB   PO125874  14.620  15.050  18.280
 1079BOLB   GL125875  14.650  14.790  18.650
 1079BOLB   GL225876  14.450  14.840  18.950
 1079BOLB   C1A25877  14.730  14.460  18.980
 1079BOLB   C2A25878  15.000  14.300  19.300
 1079BOLB   C3A25879  15.190  14.080  19.800
 1079BOLB   C4A25880  15.150  14.090  20.200
 1079BOLB   C1B25881  14.440  14.620  19.420
 1079BOLB   C2B25882  14.220  14.660  19.790
 1079BOLB   C3B25883  14.210  14.400  20.180
 1079BOLB   C4B25884  13.990  14.240  20.500
 1079BOLB   NC225885  15.580  12.840  22.040
 1079BOLB   PO225886  15.950  13.060  22.100
 1079BOLB   GL325887  15.770  13.260  21.800
 1079BOLB   GL425888  16.110  13.370  21.740
 1079BOLB   C1C25889  15.580  13.350  21.410
 1079BOLB   C2C25890  15.520  13.690  21.250
 1079BOLB   C3C25891  15.340  13.640  20.800
 1079BOLB   C4C25892  15.170  13.900  20.550
 1079BOLB   C1D25893  16.040  13.470  21.280
 1079BOLB   C2D25894  15.840  13.590  20.850
 1079BOLB   C3D25895  15.920  13.590  20.490
 1079BOLB   C4D25896  15.890  13.400  20.100
 1080BOLB   NC125897  14.750  28.910  13.060
 1080BOLB   PO125898  14.350  28.800  12.790
 1080BOLB   GL125899  14.340  29.180  12.780
 1080BOLB   GL225900  14.090  29.290  12.730
 1080BOLB   C1A25901  14.450  29.590  12.640
 1080BOLB   C2A25902  14.180  30.000  12.720
 1080BOLB   C3A25903  14.030  30.290  12.460
 1080BOLB   C4A25904  13.950  30.520  12.080
 1080BOLB   C1B25905  13.770  29.610  12.860
 1080BOLB   C2B25906  13.770  30.000  12.930
 1080BOLB   C3B25907  13.760  30.350  12.930
 1080BOLB   C4B25908  13.650  30.750  13.080
 1080BOLB   NC225909  12.960  32.340  10.840
 1080BOLB   PO225910  12.730  32.000  11.040
 1080BOLB   GL325911  13.170  32.040  11.170
 1080BOLB   GL425912  13.360  32.010  10.940
 1080BOLB   C1C25913  13.430  31.790  11.370
 1080BOLB   C2C25914  13.410  31.520  11.600
 1080BOLB   C3C25915  13.600  31.200  11.890
 1080BOLB   C4C25916  13.680  30.950  12.120
 1080BOLB   C1D25917  13.330  31.560  10.890
 1080BOLB   C2D25918  13.490  31.210  11.090
 1080BOLB   C3D25919  13.660  31.100  11.410
 1080BOLB   C4D25920  14.020  30.960  11.510
 1081BOLB   NC125921  25.820  20.960  13.150
 1081BOLB   PO125922  25.770  20.550  13.280
 1081BOLB   GL125923  26.130  20.540  13.420
 1081BOLB   GL225924  26.180  20.200  13.390
 1081BOLB   C1A25925  26.410  20.900  13.440
 1081BOLB   C2A25926  26.900  20.920  13.430
 1081BOLB   C3A25927  27.250  20.650  13.310
 1081BOLB   C4A25928  27.630  20.450  13.390
 1081BOLB   C1B25929  26.410  19.920  13.610
 1081BOLB   C2B25930  26.850  20.010  13.790
 1081BOLB   C3B25931  27.180  20.150  13.790
 1081BOLB   C4B25932  27.490  20.010  13.650
 1081BOLB   NC225933  30.210  20.010  13.420
 1081BOLB   PO225934  29.930  20.120  13.000
 1081BOLB   GL325935  29.600  20.270  12.790
 1081BOLB   GL425936  29.520  20.460  12.620
 1081BOLB   C1C25937  29.180  20.230  12.900
 1081BOLB   C2C25938  28.720  20.310  13.020
 1081BOLB   C3C25939  28.440  20.530  12.920
 1081BOLB   C4C25940  28.060  20.420  13.210
 1081BOLB   C1D25941  29.160  20.720  12.600
 1081BOLB   C2D25942  28.730  20.960  12.680
 1081BOLB   C3D25943  28.480  21.300  12.820
 1081BOLB   C4D25944  28.330  21.660  12.710
 1082BOLB   NC125945  24.140  22.460   8.620
 1082BOLB   PO125946  24.490  22.720   8.780
 1082BOLB   GL125947  24.860  22.760   8.690
 1082BOLB   GL225948  24.860  22.950   8.460
 1082BOLB   C1A25949  25.280  22.930   8.690
 1082BOLB   C2A25950  25.670  22.840   8.450
 1082BOLB   C3A25951  26.010  22.840   8.130
 1082BOLB   C4A25952  26.260  22.910   7.710
 1082BOLB   C1B25953  25.270  22.740   8.160
 1082BOLB   C2B25954  25.400  22.610   7.910
 1082BOLB   C3B25955  25.390  22.500   7.440
 1082BOLB   C4B25956  25.170  22.830   7.100
 1082BOLB   NC225957  27.310  23.480   5.580
 1082BOLB   PO225958  27.420  23.420   6.020
 1082BOLB   GL325959  26.980  23.460   6.150
 1082BOLB   GL425960  27.000  23.560   6.540
 1082BOLB   C1C25961  26.580  23.310   6.380
 1082BOLB   C2C25962  26.520  23.060   6.750
 1082BOLB   C3C25963  26.260  22.810   6.910
 1082BOLB   C4C25964  26.180  22.770   7.350
 1082BOLB   C1D25965  27.330  23.470   6.870
 1082BOLB   C2D25966  27.330  23.400   7.240
 1082BOLB   C3D25967  27.450  23.430   7.620
 1082BOLB   C4D25968  27.410  23.160   7.990
 1083BOLB   NC125969   9.600  20.860  10.240
 1083BOLB   PO125970   9.940  20.600  10.180
 1083BOLB   GL125971   9.630  20.260  10.250
 1083BOLB   GL225972   9.770  19.910  10.160
 1083BOLB   C1A25973   9.260  20.150  10.110
 1083BOLB   C2A25974   9.130  19.980   9.750
 1083BOLB   C3A25975   9.210  19.980   9.280
 1083BOLB   C4A25976   9.140  19.910   8.830
 1083BOLB   C1B25977  10.050  19.580  10.150
 1083BOLB   C2B25978  10.290  19.210  10.320
 1083BOLB   C3B25979  10.370  18.850  10.430
 1083BOLB   C4B25980  10.470  18.620  10.780
 1083BOLB   NC225981   6.560  20.120   7.570
 1083BOLB   PO225982   6.840  19.970   7.950
 1083BOLB   GL325983   7.230  19.730   7.980
 1083BOLB   GL425984   7.390  19.640   7.820
 1083BOLB   C1C25985   7.620  19.760   8.230
 1083BOLB   C2C25986   7.920  19.790   8.530
 1083BOLB   C3C25987   8.370  19.810   8.510
 1083BOLB   C4C25988   8.810  19.880   8.490
 1083BOLB   C1D25989   7.800  19.520   7.810
 1083BOLB   C2D25990   8.080  19.880   8.050
 1083BOLB   C3D25991   8.540  20.130   8.050
 1083BOLB   C4D25992   8.790  20.220   7.670
 1084BOLB   NC125993  23.440  28.410  10.970
 1084BOLB   PO125994  23.700  28.150  10.800
 1084BOLB   GL125995  23.910  28.380  10.610
 1084BOLB   GL225996  24.150  28.150  10.480
 1084BOLB   C1A25997  24.250  28.700  10.470
 1084BOLB   C2A25998  24.360  28.960  10.230
 1084BOLB   C3A25999  24.190  29.330   9.920
 1084BOLB   C4A26000  24.350  29.600   9.660
 1084BOLB   C1B26001  24.570  28.330  10.330
 1084BOLB   C2B26002  24.770  28.690  10.390
 1084BOLB   C3B26003  24.820  29.140  10.210
 1084BOLB   C4B26004  24.700  29.580  10.140
 1084BOLB   NC226005  25.950  30.660   8.800
 1084BOLB   PO226006  26.370  30.530   8.930
 1084BOLB   GL326007  26.020  30.560   9.310
 1084BOLB   GL426008  26.150  30.200   9.260
 1084BOLB   C1C26009  25.740  30.590   9.640
 1084BOLB   C2C26010  25.340  30.400   9.720
 1084BOLB   C3C26011  25.010  30.100   9.710
 1084BOLB   C4C26012  24.590  29.940   9.600
 1084BOLB   C1D26013  25.990  30.090   9.550
 1084BOLB   C2D26014  25.820  29.770   9.800
 1084BOLB   C3D26015  25.410  29.640   9.960
 1084BOLB   C4D26016  25.360  29.140   9.890
 1085BOLB   NC126017  15.670  32.270   7.700
 1085BOLB   PO126018  15.560  31.830   7.760
 1085BOLB   GL126019  16.040  31.800   7.910
 1085BOLB   GL226020  16.180  32.060   8.140
 1085BOLB   C1A26021  16.350  31.480   8.010
 1085BOLB   C2A26022  16.720  31.380   8.180
 1085BOLB   C3A26023  16.910  31.320   8.560
 1085BOLB   C4A26024  17.080  31.360   8.860
 1085BOLB   C1B26025  15.750  31.770   8.330
 1085BOLB   C2B26026  15.790  31.310   8.470
 1085BOLB   C3B26027  15.690  30.950   8.760
 1085BOLB   C4B26028  15.580  30.520   8.570
 1085BOLB   NC226029  16.920  33.310   8.780
 1085BOLB   PO226030  16.920  32.920   8.600
 1085BOLB   GL326031  16.920  32.500   8.610
 1085BOLB   GL426032  16.960  32.380   8.960
 1085BOLB   C1C26033  17.180  32.190   8.440
 1085BOLB   C2C26034  17.560  31.940   8.580
 1085BOLB   C3C26035  17.680  31.800   8.980
 1085BOLB   C4C26036  17.420  31.500   9.070
 1085BOLB   C1D26037  17.340  32.370   9.090
 1085BOLB   C2D26038  17.700  32.260   9.310
 1085BOLB   C3D26039  17.880  31.860   9.440
 1085BOLB   C4D26040  17.870  31.390   9.520
 1086BOLB   NC126041   7.230  19.510   7.250
 1086BOLB   PO126042   7.310  19.690   6.940
 1086BOLB   GL126043   7.740  19.770   7.090
 1086BOLB   GL226044   7.710  19.590   7.350
 1086BOLB   C1A26045   8.080  19.940   6.910
 1086BOLB   C2A26046   8.320  19.940   6.580
 1086BOLB   C3A26047   8.660  19.800   6.570
 1086BOLB   C4A26048   9.100  19.720   6.410
 1086BOLB   C1B26049   8.180  19.500   7.490
 1086BOLB   C2B26050   8.410  19.520   7.880
 1086BOLB   C3B26051   8.670  19.480   8.180
 1086BOLB   C4B26052   9.130  19.410   8.390
 1086BOLB   NC226053   6.770  18.730   5.300
 1086BOLB   PO226054   7.070  18.940   5.420
 1086BOLB   GL326055   7.470  18.910   5.580
 1086BOLB   GL426056   7.690  18.590   5.380
 1086BOLB   C1C26057   7.880  19.060   5.660
 1086BOLB   C2C26058   8.290  19.380   5.500
 1086BOLB   C3C26059   8.730  19.510   5.600
 1086BOLB   C4C26060   9.040  19.680   5.890
 1086BOLB   C1D26061   8.160  18.760   5.360
 1086BOLB   C2D26062   8.580  18.940   5.470
 1086BOLB   C3D26063   8.900  19.080   5.840
 1086BOLB   C4D26064   8.920  18.980   6.270
 1087BOLB   NC126065  15.240  28.290  14.950
 1087BOLB   PO126066  15.290  28.750  14.910
 1087BOLB   GL126067  15.160  29.120  14.890
 1087BOLB   GL226068  15.240  29.360  15.050
 1087BOLB   C1A26069  15.080  29.500  14.600
 1087BOLB   C2A26070  15.100  29.930  14.460
 1087BOLB   C3A26071  15.210  30.200  14.760
 1087BOLB   C4A26072  15.210  30.610  15.080
 1087BOLB   C1B26073  15.020  29.470  15.400
 1087BOLB   C2B26074  15.010  29.900  15.660
 1087BOLB   C3B26075  14.730  30.220  15.770
 1087BOLB   C4B26076  14.430  30.600  15.810
 1087BOLB   NC226077  15.470  33.170  14.900
 1087BOLB   PO226078  15.480  33.340  15.450
 1087BOLB   GL326079  15.440  32.840  15.400
 1087BOLB   GL426080  15.830  32.860  15.210
 1087BOLB   C1C26081  15.420  32.370  15.340
 1087BOLB   C2C26082  15.420  31.890  15.270
 1087BOLB   C3C26083  15.330  31.480  15.210
 1087BOLB   C4C26084  15.230  31.060  15.200
 1087BOLB   C1D26085  15.950  32.390  15.250
 1087BOLB   C2D26086  16.350  32.380  15.500
 1087BOLB   C3D26087  16.710  32.110  15.430
 1087BOLB   C4D26088  17.020  31.900  15.550
 1088BOLB   NC126089  17.040  29.080  10.640
 1088BOLB   PO126090  17.180  29.410  10.430
 1088BOLB   GL126091  17.370  29.830  10.360
 1088BOLB   GL226092  17.370  29.860  10.040
 1088BOLB   C1A26093  17.270  30.270  10.380
 1088BOLB   C2A26094  17.390  30.640  10.280
 1088BOLB   C3A26095  17.570  30.900  10.160
 1088BOLB   C4A26096  17.720  31.230  10.060
 1088BOLB   C1B26097  17.150  30.320   9.970
 1088BOLB   C2B26098  16.880  30.590  10.200
 1088BOLB   C3B26099  16.820  30.860  10.450
 1088BOLB   C4B26100  16.890  30.870  10.930
 1088BOLB   NC226101  17.270  33.840  10.110
 1088BOLB   PO226102  17.190  33.520   9.910
 1088BOLB   GL326103  17.180  33.090   9.800
 1088BOLB   GL426104  16.870  32.950   9.850
 1088BOLB   C1C26105  17.390  32.720   9.600
 1088BOLB   C2C26106  17.390  32.300   9.720
 1088BOLB   C3C26107  17.490  32.000  10.080
 1088BOLB   C4C26108  17.640  31.550   9.960
 1088BOLB   C1D26109  17.050  32.580   9.970
 1088BOLB   C2D26110  16.980  32.230  10.180
 1088BOLB   C3D26111  16.920  31.740  10.450
 1088BOLB   C4D26112  17.030  31.340  10.540
 1089BOLB   NC126113  13.370  25.630   8.060
 1089BOLB   PO126114  13.480  26.000   8.420
 1089BOLB   GL126115  13.100  26.270   8.260
 1089BOLB   GL226116  13.140  26.130   7.970
 1089BOLB   C1A26117  12.870  26.520   8.090
 1089BOLB   C2A26118  12.530  26.760   7.790
 1089BOLB   C3A26119  12.210  27.030   7.460
 1089BOLB   C4A26120  12.110  27.270   7.160
 1089BOLB   C1B26121  13.270  26.620   7.820
 1089BOLB   C2B26122  13.000  26.950   7.640
 1089BOLB   C3B26123  13.020  27.290   7.470
 1089BOLB   C4B26124  12.940  27.760   7.390
 1089BOLB   NC226125  11.530  29.310   6.700
 1089BOLB   PO226126  11.470  29.600   7.170
 1089BOLB   GL326127  11.640  29.240   7.370
 1089BOLB   GL426128  11.920  29.370   7.400
 1089BOLB   C1C26129  11.730  28.810   7.290
 1089BOLB   C2C26130  12.000  28.450   7.250
 1089BOLB   C3C26131  11.980  28.070   7.240
 1089BOLB   C4C26132  12.130  27.600   7.280
 1089BOLB   C1D26133  12.180  29.150   7.660
 1089BOLB   C2D26134  12.600  29.150   7.800
 1089BOLB   C3D26135  12.900  29.020   7.470
 1089BOLB   C4D26136  12.810  29.030   7.020
 1090BOLB   NC126137  11.390  21.070   8.100
 1090BOLB   PO126138  11.160  20.850   7.770
 1090BOLB   GL126139  10.810  20.880   7.570
 1090BOLB   GL226140  10.880  21.160   7.370
 1090BOLB   C1A26141  10.550  20.860   7.130
 1090BOLB   C2A26142  10.140  21.060   6.940
 1090BOLB   C3A26143  10.010  20.860   6.560
 1090BOLB   C4A26144   9.560  20.790   6.470
 1090BOLB   C1B26145  10.720  21.610   7.500
 1090BOLB   C2B26146  10.390  21.870   7.400
 1090BOLB   C3B26147  10.090  22.120   7.300
 1090BOLB   C4B26148  10.020  22.350   6.950
 1090BOLB   NC226149   7.430  20.310   5.620
 1090BOLB   PO226150   7.370  20.290   6.030
 1090BOLB   GL326151   7.730  20.470   5.970
 1090BOLB   GL426152   7.820  20.690   5.790
 1090BOLB   C1C26153   8.130  20.400   6.060
 1090BOLB   C2C26154   8.460  20.320   6.330
 1090BOLB   C3C26155   8.860  20.270   6.530
 1090BOLB   C4C26156   9.250  20.540   6.490
 1090BOLB   C1D26157   8.200  20.980   5.870
 1090BOLB   C2D26158   8.520  21.220   6.100
 1090BOLB   C3D26159   8.740  21.280   6.490
 1090BOLB   C4D26160   8.910  21.500   6.860
 1091BOLB   NC126161  24.620  25.680  16.610
 1091BOLB   PO126162  25.150  25.590  16.540
 1091BOLB   GL126163  25.540  25.790  16.700
 1091BOLB   GL226164  25.950  25.780  16.810
 1091BOLB   C1A26165  25.870  26.270  16.840
 1091BOLB   C2A26166  26.190  26.550  17.130
 1091BOLB   C3A26167  26.380  26.720  17.430
 1091BOLB   C4A26168  26.760  26.710  17.300
 1091BOLB   C1B26169  26.120  26.040  16.490
 1091BOLB   C2B26170  26.470  26.140  16.310
 1091BOLB   C3B26171  26.900  26.140  16.500
 1091BOLB   C4B26172  27.350  26.190  16.570
 1091BOLB   NC226173  28.450  27.140  19.080
 1091BOLB   PO226174  28.540  27.400  18.700
 1091BOLB   GL326175  28.290  27.230  18.400
 1091BOLB   GL426176  28.250  26.870  18.460
 1091BOLB   C1C26177  28.060  27.060  17.990
 1091BOLB   C2C26178  27.780  27.000  17.610
 1091BOLB   C3C26179  27.500  26.880  17.380
 1091BOLB   C4C26180  27.090  26.590  17.390
 1091BOLB   C1D26181  27.850  26.750  18.540
 1091BOLB   C2D26182  27.410  26.830  18.440
 1091BOLB   C3D26183  27.010  26.490  18.370
 1091BOLB   C4D26184  26.660  26.360  18.190
 1092BOLB   NC126185  11.070  19.700   8.160
 1092BOLB   PO126186  10.690  19.810   8.500
 1092BOLB   GL126187  10.380  19.550   8.340
 1092BOLB   GL226188  10.130  19.650   8.260
 1092BOLB   C1A26189  10.320  19.250   8.020
 1092BOLB   C2A26190  10.060  19.360   7.700
 1092BOLB   C3A26191   9.680  19.170   7.540
 1092BOLB   C4A26192   9.480  18.840   7.240
 1092BOLB   C1B26193   9.690  19.600   7.970
 1092BOLB   C2B26194   9.610  19.780   7.560
 1092BOLB   C3B26195   9.630  19.640   7.210
 1092BOLB   C4B26196   9.360  19.510   6.940
 1092BOLB   NC226197   7.810  17.640   6.210
 1092BOLB   PO226198   8.160  17.720   5.920
 1092BOLB   GL326199   8.530  17.870   6.090
 1092BOLB   GL426200   8.750  18.040   5.950
 1092BOLB   C1C26201   8.740  17.760   6.430
 1092BOLB   C2C26202   8.770  17.910   6.800
 1092BOLB   C3C26203   9.020  18.270   6.950
 1092BOLB   C4C26204   9.210  18.470   7.270
 1092BOLB   C1D26205   9.120  18.040   6.310
 1092BOLB   C2D26206   9.350  18.350   6.610
 1092BOLB   C3D26207   9.480  18.710   6.570
 1092BOLB   C4D26208   9.380  19.140   6.540
 1093BOLB   NC126209  16.400  29.190  14.600
 1093BOLB   PO126210  16.670  29.480  14.880
 1093BOLB   GL126211  16.490  29.860  14.940
 1093BOLB   GL226212  16.710  30.030  15.110
 1093BOLB   C1A26213  16.280  30.240  15.120
 1093BOLB   C2A26214  16.330  30.620  15.290
 1093BOLB   C3A26215  16.030  30.940  15.510
 1093BOLB   C4A26216  16.190  31.390  15.610
 1093BOLB   C1B26217  16.720  30.540  15.000
 1093BOLB   C2B26218  17.070  30.800  15.000
 1093BOLB   C3B26219  17.340  31.180  15.200
 1093BOLB   C4B26220  17.250  31.480  15.390
 1093BOLB   NC226221  16.020  33.040  17.630
 1093BOLB   PO226222  16.190  33.270  17.290
 1093BOLB   GL326223  16.440  33.120  16.960
 1093BOLB   GL426224  16.580  32.850  17.040
 1093BOLB   C1C26225  16.310  32.810  16.580
 1093BOLB   C2C26226  16.300  32.630  16.090
 1093BOLB   C3C26227  16.320  32.160  15.960
 1093BOLB   C4C26228  16.210  31.790  15.850
 1093BOLB   C1D26229  16.670  32.460  16.720
 1093BOLB   C2D26230  16.780  32.080  16.710
 1093BOLB   C3D26231  16.980  31.740  16.620
 1093BOLB   C4D26232  17.230  31.670  16.870
 1094BOLB   NC126233  30.390  24.380  16.730
 1094BOLB   PO126234  30.380  23.810  16.570
 1094BOLB   GL126235  30.140  23.660  16.240
 1094BOLB   GL226236  30.110  23.300  16.320
 1094BOLB   C1A26237  29.690  23.530  16.260
 1094BOLB   C2A26238  29.350  23.390  16.420
 1094BOLB   C3A26239  28.920  23.380  16.320
 1094BOLB   C4A26240  28.540  23.210  16.320
 1094BOLB   C1B26241  29.750  23.070  16.170
 1094BOLB   C2B26242  29.260  23.070  16.060
 1094BOLB   C3B26243  28.890  22.980  15.890
 1094BOLB   C4B26244  28.460  22.890  15.770
 1094BOLB   NC226245  30.780  22.950  15.840
 1094BOLB   PO226246  30.500  22.760  15.790
 1094BOLB   GL326247  30.090  22.770  15.710
 1094BOLB   GL426248  29.920  22.690  15.410
 1094BOLB   C1C26249  29.610  22.630  15.870
 1094BOLB   C2C26250  29.190  22.540  15.960
 1094BOLB   C3C26251  28.860  22.490  16.010
 1094BOLB   C4C26252  28.600  22.750  16.240
 1094BOLB   C1D26253  29.560  22.970  15.400
 1094BOLB   C2D26254  29.320  23.160  14.970
 1094BOLB   C3D26255  29.290  23.530  14.810
 1094BOLB   C4D26256  29.170  23.970  14.770
 1095BOLB   NC126257  14.890  33.500  10.860
 1095BOLB   PO126258  14.900  33.080  10.620
 1095BOLB   GL126259  15.130  32.890  10.370
 1095BOLB   GL226260  14.970  32.590  10.290
 1095BOLB   C1A26261  15.460  32.750   9.920
 1095BOLB   C2A26262  15.570  32.350   9.760
 1095BOLB   C3A26263  15.640  31.840   9.650
 1095BOLB   C4A26264  15.370  31.480   9.590
 1095BOLB   C1B26265  15.340  32.470  10.280
 1095BOLB   C2B26266  15.610  32.020  10.140
 1095BOLB   C3B26267  15.770  31.650  10.140
 1095BOLB   C4B26268  16.010  31.280  10.290
 1095BOLB   NC226269  12.910  32.220   8.840
 1095BOLB   PO226270  13.300  32.180   9.140
 1095BOLB   GL326271  13.300  31.810   9.340
 1095BOLB   GL426272  13.200  31.830   9.650
 1095BOLB   C1C26273  13.720  31.660   9.490
 1095BOLB   C2C26274  14.060  31.440   9.450
 1095BOLB   C3C26275  14.430  31.460   9.660
 1095BOLB   C4C26276  14.940  31.380   9.700
 1095BOLB   C1D26277  13.360  31.590   9.860
 1095BOLB   C2D26278  13.510  31.180  10.080
 1095BOLB   C3D26279  13.740  30.780   9.970
 1095BOLB   C4D26280  14.020  30.910   9.600
 1096BOLB   NC126281  21.480  29.350  11.550
 1096BOLB   PO126282  21.950  29.410  11.650
 1096BOLB   GL126283  22.200  29.760  11.700
 1096BOLB   GL226284  22.440  29.730  11.470
 1096BOLB   C1A26285  22.310  30.180  11.690
 1096BOLB   C2A26286  22.520  30.570  11.460
 1096BOLB   C3A26287  22.780  30.610  11.140
 1096BOLB   C4A26288  23.100  30.900  11.020
 1096BOLB   C1B26289  22.550  30.080  11.220
 1096BOLB   C2B26290  22.740  30.070  10.890
 1096BOLB   C3B26291  23.120  30.290  11.050
 1096BOLB   C4B26292  23.520  30.440  11.050
 1096BOLB   NC226293  24.400  32.700  10.630
 1096BOLB   PO226294  23.940  32.920  10.580
 1096BOLB   GL326295  23.880  32.580  10.800
 1096BOLB   GL426296  24.120  32.440  10.940
 1096BOLB   C1C26297  23.830  32.160  10.550
 1096BOLB   C2C26298  23.630  31.870  10.460
 1096BOLB   C3C26299  23.420  31.610  10.710
 1096BOLB   C4C26300  23.210  31.240  10.740
 1096BOLB   C1D26301  23.800  32.070  11.080
 1096BOLB   C2D26302  23.720  31.610  11.130
 1096BOLB   C3D26303  23.600  31.170  11.070
 1096BOLB   C4D26304  23.700  30.840  10.810
 1097BOLB   NC126305  10.420  20.480  10.280
 1097BOLB   PO126306  10.370  20.700  10.610
 1097BOLB   GL126307  10.390  20.250  10.760
 1097BOLB   GL226308  10.670  20.150  10.580
 1097BOLB   C1A26309  10.310  19.920  11.000
 1097BOLB   C2A26310  10.090  19.590  10.980
 1097BOLB   C3A26311   9.830  19.490  10.630
 1097BOLB   C4A26312   9.710  19.200  10.410
 1097BOLB   C1B26313  10.750  19.750  10.570
 1097BOLB   C2B26314  10.510  19.360  10.760
 1097BOLB   C3B26315  10.280  19.070  10.910
 1097BOLB   C4B26316  10.210  18.820  11.250
 1097BOLB   NC226317   9.300  17.400  11.400
 1097BOLB   PO226318   9.220  17.300  10.930
 1097BOLB   GL326319   9.020  17.600  10.630
 1097BOLB   GL426320   8.930  17.480  10.310
 1097BOLB   C1C26321   9.140  17.950  10.580
 1097BOLB   C2C26322   9.390  18.210  10.510
 1097BOLB   C3C26323   9.910  18.400  10.300
 1097BOLB   C4C26324   9.810  18.810  10.190
 1097BOLB   C1D26325   9.110  17.850  10.090
 1097BOLB   C2D26326   9.340  17.960   9.910
 1097BOLB   C3D26327   9.570  18.180   9.520
 1097BOLB   C4D26328   9.820  17.990   9.310
 1098BOLB   NC126329   9.270  22.710  10.690
 1098BOLB   PO126330   9.220  22.630  10.240
 1098BOLB   GL126331   8.950  22.470  10.070
 1098BOLB   GL226332   9.010  22.350   9.770
 1098BOLB   C1A26333   8.520  22.480   9.980
 1098BOLB   C2A26334   8.090  22.480  10.020
 1098BOLB   C3A26335   7.640  22.430  10.020
 1098BOLB   C4A26336   7.380  22.270   9.870
 1098BOLB   C1B26337   8.640  22.420   9.460
 1098BOLB   C2B26338   8.170  22.510   9.450
 1098BOLB   C3B26339   7.860  22.620   9.100
 1098BOLB   C4B26340   7.560  22.530   8.970
 1098BOLB   NC226341   4.570  22.290  10.130
 1098BOLB   PO226342   4.920  21.990  10.200
 1098BOLB   GL326343   5.290  22.090  10.050
 1098BOLB   GL426344   5.290  22.410   9.930
 1098BOLB   C1C26345   5.740  22.320  10.140
 1098BOLB   C2C26346   6.070  22.450   9.930
 1098BOLB   C3C26347   6.430  22.330   9.840
 1098BOLB   C4C26348   6.860  22.410   9.860
 1098BOLB   C1D26349   5.600  22.480   9.700
 1098BOLB   C2D26350   5.980  22.570   9.410
 1098BOLB   C3D26351   6.350  22.710   9.240
 1098BOLB   C4D26352   6.730  22.640   9.350
 1099BOLB   NC126353  13.290  17.560   6.580
 1099BOLB   PO126354  12.940  17.530   6.870
 1099BOLB   GL126355  12.640  17.300   6.630
 1099BOLB   GL226356  12.760  17.280   6.340
 1099BOLB   C1A26357  12.120  17.280   6.600
 1099BOLB   C2A26358  11.920  17.300   6.210
 1099BOLB   C3A26359  11.750  17.350   5.840
 1099BOLB   C4A26360  11.520  17.310   5.590
 1099BOLB   C1B26361  12.420  17.190   6.110
 1099BOLB   C2B26362  12.210  16.860   5.970
 1099BOLB   C3B26363  12.060  16.400   5.990
 1099BOLB   C4B26364  12.270  15.980   6.010
 1099BOLB   NC226365   9.950  16.730   4.120
 1099BOLB   PO226366  10.300  16.480   4.100
 1099BOLB   GL326367  10.470  16.830   4.150
 1099BOLB   GL426368  10.810  16.570   3.980
 1099BOLB   C1C26369  10.840  16.840   4.380
 1099BOLB   C2C26370  11.290  16.960   4.410
 1099BOLB   C3C26371  11.350  17.150   4.870
 1099BOLB   C4C26372  11.460  17.380   5.170
 1099BOLB   C1D26373  11.280  16.860   3.810
 1099BOLB   C2D26374  11.640  16.930   3.960
 1099BOLB   C3D26375  12.100  16.810   4.210
 1099BOLB   C4D26376  12.440  16.900   4.430
 1100BOLB   NC126377   5.890  22.010   7.400
 1100BOLB   PO126378   6.070  22.250   7.800
 1100BOLB   GL126379   6.450  22.320   8.090
 1100BOLB   GL226380   6.530  22.580   8.320
 1100BOLB   C1A26381   6.590  22.070   8.430
 1100BOLB   C2A26382   6.740  21.790   8.780
 1100BOLB   C3A26383   6.960  21.610   9.060
 1100BOLB   C4A26384   7.310  21.720   9.170
 1100BOLB   C1B26385   6.890  22.420   8.350
 1100BOLB   C2B26386   7.320  22.460   8.490
 1100BOLB   C3B26387   7.820  22.340   8.540
 1100BOLB   C4B26388   8.150  22.090   8.510
 1100BOLB   NC226389   9.070  21.480  10.360
 1100BOLB   PO226390   9.390  21.300  10.090
 1100BOLB   GL326391   9.040  21.090   9.920
 1100BOLB   GL426392   8.670  21.090  10.040
 1100BOLB   C1C26393   8.720  20.960   9.580
 1100BOLB   C2C26394   8.380  21.140   9.430
 1100BOLB   C3C26395   8.000  21.200   9.330
 1100BOLB   C4C26396   7.850  21.550   9.210
 1100BOLB   C1D26397   8.450  20.770  10.160
 1100BOLB   C2D26398   8.360  20.310  10.340
 1100BOLB   C3D26399   8.230  19.830  10.370
 1100BOLB   C4D26400   8.270  19.440  10.250
 1101BOLB   NC126401   6.100  18.340  13.040
 1101BOLB   PO126402   6.480  18.550  12.880
 1101BOLB   GL126403   6.500  18.920  13.060
 1101BOLB   GL226404   6.730  18.810  13.270
 1101BOLB   C1A26405   6.820  19.190  12.900
 1101BOLB   C2A26406   7.200  19.510  12.810
 1101BOLB   C3A26407   7.550  19.610  12.660
 1101BOLB   C4A26408   7.730  19.580  12.270
 1101BOLB   C1B26409   7.020  19.130  13.460
 1101BOLB   C2B26410   7.330  19.470  13.330
 1101BOLB   C3B26411   7.680  19.630  13.270
 1101BOLB   C4B26412   7.990  19.820  13.010
 1101BOLB   NC226413   6.290  18.740  12.180
 1101BOLB   PO226414   5.970  18.950  11.930
 1101BOLB   GL326415   6.280  19.250  12.000
 1101BOLB   GL426416   6.510  19.110  11.930
 1101BOLB   C1C26417   6.400  19.590  11.780
 1101BOLB   C2C26418   6.730  19.690  11.520
 1101BOLB   C3C26419   7.220  19.630  11.660
 1101BOLB   C4C26420   7.580  19.660  11.810
 1101BOLB   C1D26421   6.730  19.220  11.650
 1101BOLB   C2D26422   7.210  19.130  11.620
 1101BOLB   C3D26423   7.680  19.230  11.510
 1101BOLB   C4D26424   8.070  19.060  11.410
 1102BOLB   NC126425  12.750  24.620  17.400
 1102BOLB   PO126426  13.050  25.000  17.380
 1102BOLB   GL126427  12.580  25.050  17.510
 1102BOLB   GL226428  12.340  25.200  17.260
 1102BOLB   C1A26429  12.400  25.370  17.780
 1102BOLB   C2A26430  12.210  25.650  18.020
 1102BOLB   C3A26431  12.330  25.740  18.340
 1102BOLB   C4A26432  12.130  25.720  18.830
 1102BOLB   C1B26433  12.020  25.100  17.600
 1102BOLB   C2B26434  11.640  25.030  17.690
 1102BOLB   C3B26435  11.300  25.270  17.910
 1102BOLB   C4B26436  10.860  25.300  17.780
 1102BOLB   NC226437  11.320  26.120  21.330
 1102BOLB   PO226438  11.190  26.250  20.920
 1102BOLB   GL326439  11.260  26.190  20.500
 1102BOLB   GL426440  10.950  26.150  20.240
 1102BOLB   C1C26441  11.490  25.880  20.350
 1102BOLB   C2C26442  11.700  25.690  19.940
 1102BOLB   C3C26443  11.920  25.620  19.580
 1102BOLB   C4C26444  11.870  25.680  19.170
 1102BOLB   C1D26445  11.170  25.830  19.990
 1102BOLB   C2D26446  11.350  25.390  19.670
 1102BOLB   C3D26447  11.540  24.980  19.680
 1102BOLB   C4D26448  11.250  24.650  19.640
 1103BOLB   NC126449  25.430  22.240  16.500
 1103BOLB   PO126450  25.830  22.270  16.310
 1103BOLB   GL126451  26.220  22.110  16.390
 1103BOLB   GL226452  26.360  22.440  16.330
 1103BOLB   C1A26453  26.440  21.810  16.800
 1103BOLB   C2A26454  26.750  21.630  16.860
 1103BOLB   C3A26455  27.020  21.280  16.800
 1103BOLB   C4A26456  27.270  20.990  17.000
 1103BOLB   C1B26457  26.680  22.180  16.510
 1103BOLB   C2B26458  27.060  22.050  16.670
 1103BOLB   C3B26459  27.310  21.970  16.980
 1103BOLB   C4B26460  27.450  21.830  17.400
 1103BOLB   NC226461  29.560  20.660  18.380
 1103BOLB   PO226462  29.120  20.680  18.170
 1103BOLB   GL326463  28.740  20.820  17.980
 1103BOLB   GL426464  28.650  21.140  17.890
 1103BOLB   C1C26465  28.450  20.660  17.680
 1103BOLB   C2C26466  28.150  20.560  17.500
 1103BOLB   C3C26467  27.650  20.520  17.410
 1103BOLB   C4C26468  27.350  20.530  17.140
 1103BOLB   C1D26469  28.790  21.390  17.550
 1103BOLB   C2D26470  28.690  21.650  17.130
 1103BOLB   C3D26471  28.260  21.440  16.910
 1103BOLB   C4D26472  27.860  21.270  16.880
 1104BOLB   NC126473  14.130  22.960   6.300
 1104BOLB   PO126474  14.520  22.850   6.150
 1104BOLB   GL126475  14.650  23.010   5.750
 1104BOLB   GL226476  15.010  23.080   5.720
 1104BOLB   C1A26477  14.490  23.130   5.390
 1104BOLB   C2A26478  14.500  23.510   5.100
 1104BOLB   C3A26479  14.530  23.850   4.860
 1104BOLB   C4A26480  14.570  24.160   4.550
 1104BOLB   C1B26481  14.830  23.500   5.450
 1104BOLB   C2B26482  14.910  23.800   5.150
 1104BOLB   C3B26483  14.760  24.250   5.020
 1104BOLB   C4B26484  14.330  24.420   4.990
 1104BOLB   NC226485  12.290  25.140   3.530
 1104BOLB   PO226486  12.590  25.450   3.180
 1104BOLB   GL326487  13.040  25.440   3.400
 1104BOLB   GL426488  13.120  25.720   3.550
 1104BOLB   C1C26489  13.370  25.340   3.690
 1104BOLB   C2C26490  13.820  25.120   3.960
 1104BOLB   C3C26491  14.070  24.850   4.250
 1104BOLB   C4C26492  14.400  24.610   4.470
 1104BOLB   C1D26493  13.190  25.670   3.980
 1104BOLB   C2D26494  13.170  25.690   4.340
 1104BOLB   C3D26495  13.440  25.440   4.710
 1104BOLB   C4D26496  13.510  25.000   4.760
 1105BOLB   NC126497  13.720  27.840  13.020
 1105BOLB   PO126498  13.970  28.010  12.620
 1105BOLB   GL126499  13.580  28.310  12.760
 1105BOLB   GL226500  13.580  28.410  13.110
 1105BOLB   C1A26501  13.380  28.630  12.680
 1105BOLB   C2A26502  13.040  28.910  12.790
 1105BOLB   C3A26503  12.940  29.230  13.040
 1105BOLB   C4A26504  12.710  29.510  13.300
 1105BOLB   C1B26505  13.410  28.760  13.210
 1105BOLB   C2B26506  13.200  29.090  13.460
 1105BOLB   C3B26507  13.130  29.640  13.510
 1105BOLB   C4B26508  13.020  30.060  13.810
 1105BOLB   NC226509  11.930  31.620  13.970
 1105BOLB   PO226510  12.380  31.770  13.910
 1105BOLB   GL326511  12.290  31.450  13.670
 1105BOLB   GL426512  12.450  31.370  13.330
 1105BOLB   C1C26513  12.300  31.050  13.870
 1105BOLB   C2C26514  12.360  30.620  13.990
 1105BOLB   C3C26515  12.600  30.320  13.650
 1105BOLB   C4C26516  12.660  29.920  13.500
 1105BOLB   C1D26517  12.840  31.460  13.090
 1105BOLB   C2D26518  13.050  31.160  12.820
 1105BOLB   C3D26519  13.350  30.960  12.660
 1105BOLB   C4D26520  13.690  30.740  12.580
 1106BOLB   NC126521  15.810  29.020  12.730
 1106BOLB   PO126522  15.430  29.030  12.520
 1106BOLB   GL126523  15.490  29.460  12.630
 1106BOLB   GL226524  15.250  29.590  12.770
 1106BOLB   C1A26525  15.630  29.860  12.820
 1106BOLB   C2A26526  15.590  30.250  12.890
 1106BOLB   C3A26527  15.450  30.610  13.130
 1106BOLB   C4A26528  15.410  31.050  13.180
 1106BOLB   C1B26529  15.090  29.870  12.900
 1106BOLB   C2B26530  14.750  30.170  12.990
 1106BOLB   C3B26531  14.550  30.570  13.250
 1106BOLB   C4B26532  14.540  30.860  13.590
 1106BOLB   NC226533  14.280  33.140  13.350
 1106BOLB   PO226534  14.250  32.930  12.980
 1106BOLB   GL326535  14.640  32.740  13.060
 1106BOLB   GL426536  14.910  32.970  13.280
 1106BOLB   C1C26537  14.840  32.320  13.150
 1106BOLB   C2C26538  15.120  32.030  13.030
 1106BOLB   C3C26539  15.340  31.770  12.900
 1106BOLB   C4C26540  15.400  31.490  13.120
 1106BOLB   C1D26541  15.060  32.650  13.490
 1106BOLB   C2D26542  15.190  32.390  13.630
 1106BOLB   C3D26543  15.100  31.980  13.530
 1106BOLB   C4D26544  14.870  31.610  13.330
 1107BOLB   NC126545  20.110  27.540  18.320
 1107BOLB   PO126546  19.900  27.940  18.470
 1107BOLB   GL126547  19.890  28.400  18.540
 1107BOLB   GL226548  20.130  28.570  18.500
 1107BOLB   C1A26549  19.610  28.600  18.830
 1107BOLB   C2A26550  19.420  29.020  18.840
 1107BOLB   C3A26551  19.280  29.420  18.950
 1107BOLB   C4A26552  18.940  29.770  18.860
 1107BOLB   C1B26553  19.840  28.920  18.590
 1107BOLB   C2B26554  19.860  29.200  18.870
 1107BOLB   C3B26555  19.630  29.550  19.240
 1107BOLB   C4B26556  19.610  29.480  19.640
 1107BOLB   NC226557  19.410  31.910  19.810
 1107BOLB   PO226558  19.050  32.010  19.580
 1107BOLB   GL326559  18.760  31.700  19.640
 1107BOLB   GL426560  18.790  31.650  19.270
 1107BOLB   C1C26561  18.800  31.210  19.590
 1107BOLB   C2C26562  18.890  30.920  19.350
 1107BOLB   C3C26563  18.880  30.510  19.100
 1107BOLB   C4C26564  18.750  30.160  18.920
 1107BOLB   C1D26565  18.550  31.830  18.940
 1107BOLB   C2D26566  18.460  32.000  18.470
 1107BOLB   C3D26567  18.520  31.680  18.190
 1107BOLB   C4D26568  18.610  31.510  17.940
 1108BOLB   NC126569  18.050  29.950  14.880
 1108BOLB   PO126570  18.460  29.940  14.870
 1108BOLB   GL126571  18.710  30.240  15.000
 1108BOLB   GL226572  18.690  30.250  15.360
 1108BOLB   C1A26573  18.930  30.730  15.090
 1108BOLB   C2A26574  18.940  31.020  15.330
 1108BOLB   C3A26575  18.830  31.410  15.140
 1108BOLB   C4A26576  18.520  31.750  15.060
 1108BOLB   C1B26577  18.540  30.610  15.480
 1108BOLB   C2B26578  18.540  31.040  15.540
 1108BOLB   C3B26579  18.730  31.440  15.610
 1108BOLB   C4B26580  18.860  31.880  15.560
 1108BOLB   NC226581  19.260  34.320  15.650
 1108BOLB   PO226582  19.300  33.840  15.680
 1108BOLB   GL326583  19.130  33.520  15.690
 1108BOLB   GL426584  19.400  33.300  15.720
 1108BOLB   C1C26585  18.790  33.330  15.500
 1108BOLB   C2C26586  18.720  32.960  15.400
 1108BOLB   C3C26587  18.490  32.610  15.370
 1108BOLB   C4C26588  18.560  32.150  15.270
 1108BOLB   C1D26589  19.070  33.020  15.780
 1108BOLB   C2D26590  18.740  32.950  15.920
 1108BOLB   C3D26591  18.440  32.580  15.890
 1108BOLB   C4D26592  18.520  32.170  15.730
 1109BOLB   NC126593  19.190  18.340   5.960
 1109BOLB   PO126594  19.410  18.150   5.720
 1109BOLB   GL126595  19.790  17.780   5.560
 1109BOLB   GL226596  19.670  17.460   5.480
 1109BOLB   C1A26597  20.150  17.710   5.220
 1109BOLB   C2A26598  20.310  17.600   4.840
 1109BOLB   C3A26599  20.420  17.810   4.560
 1109BOLB   C4A26600  20.740  17.980   4.310
 1109BOLB   C1B26601  20.050  17.210   5.260
 1109BOLB   C2B26602  20.230  17.140   4.910
 1109BOLB   C3B26603  20.310  17.190   4.500
 1109BOLB   C4B26604  20.150  17.050   4.200
 1109BOLB   NC226605  22.560  16.580   2.510
 1109BOLB   PO226606  22.180  16.830   2.660
 1109BOLB   GL326607  21.960  17.220   2.730
 1109BOLB   GL426608  22.160  17.390   2.910
 1109BOLB   C1C26609  21.690  17.440   2.980
 1109BOLB   C2C26610  21.430  17.540   3.330
 1109BOLB   C3C26611  21.360  17.700   3.850
 1109BOLB   C4C26612  21.040  17.670   4.080
 1109BOLB   C1D26613  22.160  17.380   3.320
 1109BOLB   C2D26614  21.830  17.200   3.550
 1109BOLB   C3D26615  21.460  17.250   3.710
 1109BOLB   C4D26616  21.160  17.080   4.150
 1110BOLB   NC126617  11.380  23.780   8.500
 1110BOLB   PO126618  11.270  23.320   8.400
 1110BOLB   GL126619  11.030  23.540   8.230
 1110BOLB   GL226620  10.930  23.420   7.950
 1110BOLB   C1A26621  10.960  23.900   7.990
 1110BOLB   C2A26622  10.760  23.960   7.650
 1110BOLB   C3A26623  10.520  23.890   7.300
 1110BOLB   C4A26624  10.600  23.980   6.970
 1110BOLB   C1B26625  10.870  23.480   7.610
 1110BOLB   C2B26626  10.770  23.170   7.430
 1110BOLB   C3B26627  10.530  23.340   6.980
 1110BOLB   C4B26628  10.490  23.150   6.590
 1110BOLB   NC226629   8.860  24.900   5.820
 1110BOLB   PO226630   9.270  24.970   5.660
 1110BOLB   GL326631   9.530  24.930   6.030
 1110BOLB   GL426632   9.210  24.870   6.170
 1110BOLB   C1C26633   9.870  24.840   6.300
 1110BOLB   C2C26634  10.310  24.860   6.180
 1110BOLB   C3C26635  10.660  24.670   6.340
 1110BOLB   C4C26636  10.620  24.330   6.700
 1110BOLB   C1D26637   9.510  24.460   6.200
 1110BOLB   C2D26638   9.950  24.330   6.160
 1110BOLB   C3D26639  10.120  24.130   6.550
 1110BOLB   C4D26640  10.410  23.620   6.580
 1111BOLB   NC126641  17.600  23.490   5.840
 1111BOLB   PO126642  17.710  23.810   5.520
 1111BOLB   GL126643  17.570  23.880   5.180
 1111BOLB   GL226644  17.400  23.680   5.120
 1111BOLB   C1A26645  17.690  24.190   4.950
 1111BOLB   C2A26646  17.920  24.200   4.510
 1111BOLB   C3A26647  17.900  24.130   4.030
 1111BOLB   C4A26648  17.660  24.350   3.760
 1111BOLB   C1B26649  17.250  23.870   4.790
 1111BOLB   C2B26650  16.970  23.860   4.410
 1111BOLB   C3B26651  17.120  23.710   4.030
 1111BOLB   C4B26652  16.950  23.760   3.640
 1111BOLB   NC226653  18.180  25.310   1.090
 1111BOLB   PO226654  18.170  25.420   1.620
 1111BOLB   GL326655  18.210  25.450   2.050
 1111BOLB   GL426656  18.560  25.360   2.260
 1111BOLB   C1C26657  18.050  25.040   2.320
 1111BOLB   C2C26658  17.840  24.890   2.660
 1111BOLB   C3C26659  17.800  24.710   3.030
 1111BOLB   C4C26660  17.820  24.540   3.440
 1111BOLB   C1D26661  18.520  25.010   2.540
 1111BOLB   C2D26662  18.280  24.800   2.930
 1111BOLB   C3D26663  18.490  24.660   3.330
 1111BOLB   C4D26664  18.790  24.570   3.740
 1112BOLB   NC126665  19.820  14.410   9.830
 1112BOLB   PO126666  19.910  14.560   9.390
 1112BOLB   GL126667  19.940  14.150   9.290
 1112BOLB   GL226668  19.930  14.120   8.930
 1112BOLB   C1A26669  20.150  13.740   9.450
 1112BOLB   C2A26670  20.340  13.440   9.130
 1112BOLB   C3A26671  20.320  13.030   8.900
 1112BOLB   C4A26672  20.480  12.640   9.030
 1112BOLB   C1B26673  19.940  13.730   8.890
 1112BOLB   C2B26674  20.010  13.300   8.620
 1112BOLB   C3B26675  19.800  13.020   8.720
 1112BOLB   C4B26676  19.860  12.630   8.650
 1112BOLB   NC226677  21.610  10.310   9.240
 1112BOLB   PO226678  21.150  10.260   9.030
 1112BOLB   GL326679  21.260  10.730   9.190
 1112BOLB   GL426680  21.520  10.970   9.130
 1112BOLB   C1C26681  21.000  11.080   9.240
 1112BOLB   C2C26682  20.970  11.480   9.070
 1112BOLB   C3C26683  20.970  11.900   9.050
 1112BOLB   C4C26684  20.730  12.210   9.280
 1112BOLB   C1D26685  21.440  11.400   8.890
 1112BOLB   C2D26686  21.290  11.720   8.730
 1112BOLB   C3D26687  21.110  12.100   8.600
 1112BOLB   C4D26688  20.750  12.250   8.770
 1113BOLB   NC126689  14.220  27.650  14.110
 1113BOLB   PO126690  13.990  27.710  13.830
 1113BOLB   GL126691  13.850  28.170  13.890
 1113BOLB   GL226692  14.150  28.410  14.050
 1113BOLB   C1A26693  13.620  28.590  13.990
 1113BOLB   C2A26694  13.460  28.920  13.900
 1113BOLB   C3A26695  13.360  29.320  13.940
 1113BOLB   C4A26696  13.270  29.680  14.140
 1113BOLB   C1B26697  14.130  28.750  13.930
 1113BOLB   C2B26698  14.110  29.160  13.740
 1113BOLB   C3B26699  13.950  29.500  13.880
 1113BOLB   C4B26700  13.640  29.900  13.780
 1113BOLB   NC226701  11.750  31.350  14.970
 1113BOLB   PO226702  12.230  31.630  14.820
 1113BOLB   GL326703  12.550  31.290  14.800
 1113BOLB   GL426704  12.730  31.250  14.580
 1113BOLB   C1C26705  12.800  31.040  15.070
 1113BOLB   C2C26706  13.050  30.710  14.940
 1113BOLB   C3C26707  13.180  30.420  14.700
 1113BOLB   C4C26708  13.150  30.010  14.460
 1113BOLB   C1D26709  13.070  30.940  14.480
 1113BOLB   C2D26710  13.310  30.780  14.120
 1113BOLB   C3D26711  13.250  31.160  13.810
 1113BOLB   C4D26712  13.380  31.610  13.900
 1114BOLB   NC126713  16.630  28.210   9.400
 1114BOLB   PO126714  16.560  28.730   9.540
 1114BOLB   GL126715  16.530  29.080   9.230
 1114BOLB   GL226716  16.140  29.030   9.220
 1114BOLB   C1A26717  16.600  29.340   8.810
 1114BOLB   C2A26718  16.630  29.580   8.470
 1114BOLB   C3A26719  17.030  29.700   8.280
 1114BOLB   C4A26720  17.160  30.120   8.270
 1114BOLB   C1B26721  15.840  29.260   8.950
 1114BOLB   C2B26722  15.660  29.660   8.740
 1114BOLB   C3B26723  15.590  29.950   8.410
 1114BOLB   C4B26724  15.500  30.210   8.130
 1114BOLB   NC226725  16.230  31.720   7.050
 1114BOLB   PO226726  16.500  31.710   6.710
 1114BOLB   GL326727  16.690  31.410   6.940
 1114BOLB   GL426728  16.540  31.220   7.160
 1114BOLB   C1C26729  16.980  31.500   7.120
 1114BOLB   C2C26730  17.160  31.290   7.510
 1114BOLB   C3C26731  17.330  30.870   7.660
 1114BOLB   C4C26732  17.420  30.480   7.970
 1114BOLB   C1D26733  16.840  30.980   7.240
 1114BOLB   C2D26734  16.870  30.560   7.420
 1114BOLB   C3D26735  16.720  30.100   7.430
 1114BOLB   C4D26736  16.480  29.870   7.250
 1115BOLB   NC126737  18.200  27.450   7.870
 1115BOLB   PO126738  18.510  27.110   7.850
 1115BOLB   GL126739  18.610  27.520   7.580
 1115BOLB   GL226740  18.980  27.750   7.630
 1115BOLB   C1A26741  18.470  27.810   7.240
 1115BOLB   C2A26742  18.400  28.170   7.050
 1115BOLB   C3A26743  18.540  28.520   6.740
 1115BOLB   C4A26744  18.490  28.860   6.550
 1115BOLB   C1B26745  19.050  27.900   7.220
 1115BOLB   C2B26746  18.930  28.220   6.890
 1115BOLB   C3B26747  19.110  28.470   6.500
 1115BOLB   C4B26748  18.800  28.760   6.180
 1115BOLB   NC226749  17.440  30.110   4.570
 1115BOLB   PO226750  17.740  30.410   4.780
 1115BOLB   GL326751  17.750  30.200   5.160
 1115BOLB   GL426752  17.510  30.220   5.390
 1115BOLB   C1C26753  17.900  29.870   5.440
 1115BOLB   C2C26754  18.000  29.760   5.830
 1115BOLB   C3C26755  18.280  29.490   5.990
 1115BOLB   C4C26756  18.410  29.270   6.380
 1115BOLB   C1D26757  17.470  29.970   5.680
 1115BOLB   C2D26758  17.470  29.570   5.940
 1115BOLB   C3D26759  17.160  29.270   6.150
 1115BOLB   C4D26760  16.930  28.910   6.390
 1116BOLB   NC126761  19.350  18.490   5.280
 1116BOLB   PO126762  18.930  18.360   5.190
 1116BOLB   GL126763  19.220  18.360   4.820
 1116BOLB   GL226764  18.960  18.460   4.580
 1116BOLB   C1A26765  19.560  18.200   4.600
 1116BOLB   C2A26766  19.760  18.210   4.160
 1116BOLB   C3A26767  19.850  18.380   3.830
 1116BOLB   C4A26768  19.660  18.450   3.490
 1116BOLB   C1B26769  19.290  18.550   4.330
 1116BOLB   C2B26770  19.720  18.640   4.440
 1116BOLB   C3B26771  20.130  18.740   4.110
 1116BOLB   C4B26772  20.260  19.110   3.810
 1116BOLB   NC226773  19.440  16.630   1.300
 1116BOLB   PO226774  19.610  17.000   1.640
 1116BOLB   GL326775  19.430  17.060   2.000
 1116BOLB   GL426776  19.550  16.910   2.280
 1116BOLB   C1C26777  19.280  17.300   2.430
 1116BOLB   C2C26778  19.100  17.710   2.600
 1116BOLB   C3C26779  19.150  18.060   2.940
 1116BOLB   C4C26780  19.300  18.340   3.280
 1116BOLB   C1D26781  19.460  16.930   2.730
 1116BOLB   C2D26782  19.290  17.160   3.050
 1116BOLB   C3D26783  19.030  17.280   3.370
 1116BOLB   C4D26784  18.670  17.140   3.520
 1117BOLB   NC126785  13.390  24.240   7.420
 1117BOLB   PO126786  13.510  24.120   7.030
 1117BOLB   GL126787  13.480  24.330   6.590
 1117BOLB   GL226788  13.780  24.190   6.320
 1117BOLB   C1A26789  13.120  24.440   6.300
 1117BOLB   C2A26790  12.800  24.740   6.080
 1117BOLB   C3A26791  12.470  24.910   6.130
 1117BOLB   C4A26792  12.140  25.080   5.890
 1117BOLB   C1B26793  13.660  24.340   5.910
 1117BOLB   C2B26794  13.610  24.450   5.420
 1117BOLB   C3B26795  13.740  24.620   5.060
 1117BOLB   C4B26796  13.990  24.910   4.860
 1117BOLB   NC226797   9.880  26.460   5.630
 1117BOLB   PO226798  10.160  26.680   5.250
 1117BOLB   GL326799  10.460  26.460   5.500
 1117BOLB   GL426800  10.280  26.190   5.670
 1117BOLB   C1C26801  10.830  26.270   5.710
 1117BOLB   C2C26802  11.110  25.840   5.730
 1117BOLB   C3C26803  11.570  25.570   5.650
 1117BOLB   C4C26804  11.860  25.220   5.600
 1117BOLB   C1D26805  10.360  26.150   6.070
 1117BOLB   C2D26806  10.580  26.130   6.500
 1117BOLB   C3D26807  10.860  26.120   6.810
 1117BOLB   C4D26808  11.190  25.940   6.990
 1118BOLB   NC126809  13.810  28.270  11.650
 1118BOLB   PO126810  13.800  28.270  11.250
 1118BOLB   GL126811  13.760  28.710  11.430
 1118BOLB   GL226812  13.980  28.910  11.200
 1118BOLB   C1A26813  13.460  28.970  11.270
 1118BOLB   C2A26814  13.160  29.320  11.200
 1118BOLB   C3A26815  12.950  29.590  11.360
 1118BOLB   C4A26816  12.720  29.760  11.690
 1118BOLB   C1B26817  13.780  29.340  11.270
 1118BOLB   C2B26818  13.470  29.670  11.070
 1118BOLB   C3B26819  13.500  30.050  10.810
 1118BOLB   C4B26820  13.470  30.450  10.830
 1118BOLB   NC226821  11.310  31.580  12.000
 1118BOLB   PO226822  11.600  31.760  12.310
 1118BOLB   GL326823  11.700  31.320  12.380
 1118BOLB   GL426824  11.680  31.080  12.650
 1118BOLB   C1C26825  11.840  30.950  12.140
 1118BOLB   C2C26826  12.080  30.920  11.830
 1118BOLB   C3C26827  12.300  30.570  11.770
 1118BOLB   C4C26828  12.570  30.210  11.770
 1118BOLB   C1D26829  11.980  30.780  12.790
 1118BOLB   C2D26830  12.440  30.730  12.760
 1118BOLB   C3D26831  12.840  30.650  12.800
 1118BOLB   C4D26832  13.250  30.440  12.780
 1119BOLB   NC126833  13.270  19.330   5.250
 1119BOLB   PO126834  13.210  19.780   5.330
 1119BOLB   GL126835  12.990  19.780   4.980
 1119BOLB   GL226836  12.750  20.070   5.000
 1119BOLB   C1A26837  12.960  19.700   4.560
 1119BOLB   C2A26838  12.960  19.760   4.140
 1119BOLB   C3A26839  13.010  20.080   3.760
 1119BOLB   C4A26840  12.920  20.500   3.660
 1119BOLB   C1B26841  12.480  20.340   5.040
 1119BOLB   C2B26842  12.210  20.650   4.980
 1119BOLB   C3B26843  11.820  20.940   4.800
 1119BOLB   C4B26844  11.540  21.400   4.760
 1119BOLB   NC226845  11.690  19.850   1.900
 1119BOLB   PO226846  11.600  20.250   1.890
 1119BOLB   GL326847  11.770  20.270   2.290
 1119BOLB   GL426848  11.920  20.010   2.430
 1119BOLB   C1C26849  12.110  20.440   2.560
 1119BOLB   C2C26850  12.100  20.650   2.930
 1119BOLB   C3C26851  12.250  20.800   3.400
 1119BOLB   C4C26852  12.630  20.750   3.590
 1119BOLB   C1D26853  12.350  20.020   2.730
 1119BOLB   C2D26854  12.380  20.230   3.140
 1119BOLB   C3D26855  12.430  20.220   3.610
 1119BOLB   C4D26856  12.500  19.830   3.890
 1120BOLB   NC126857  20.990  21.900   6.300
 1120BOLB   PO126858  21.040  21.980   5.800
 1120BOLB   GL126859  21.010  22.250   5.460
 1120BOLB   GL226860  21.270  22.300   5.330
 1120BOLB   C1A26861  20.770  22.350   5.160
 1120BOLB   C2A26862  20.770  22.500   4.750
 1120BOLB   C3A26863  20.990  22.570   4.460
 1120BOLB   C4A26864  20.900  22.450   4.030
 1120BOLB   C1B26865  21.200  22.210   4.870
 1120BOLB   C2B26866  20.890  22.120   4.460
 1120BOLB   C3B26867  20.560  21.920   4.260
 1120BOLB   C4B26868  20.550  21.770   3.800
 1120BOLB   NC226869  22.080  22.660   1.710
 1120BOLB   PO226870  22.270  23.000   1.930
 1120BOLB   GL326871  22.190  22.730   2.320
 1120BOLB   GL426872  22.540  22.790   2.470
 1120BOLB   C1C26873  21.930  22.400   2.660
 1120BOLB   C2C26874  21.610  22.210   2.900
 1120BOLB   C3C26875  21.350  22.170   3.330
 1120BOLB   C4C26876  21.080  22.330   3.650
 1120BOLB   C1D26877  22.290  22.770   2.900
 1120BOLB   C2D26878  22.050  23.040   3.250
 1120BOLB   C3D26879  21.960  22.890   3.710
 1120BOLB   C4D26880  21.630  22.930   3.990
 1121BOLB   NC126881  23.060  10.860  17.290
 1121BOLB   PO126882  22.910  11.330  17.430
 1121BOLB   GL126883  22.850  11.280  17.090
 1121BOLB   GL226884  22.550  11.550  17.180
 1121BOLB   C1A26885  22.780  11.120  16.670
 1121BOLB   C2A26886  22.600  10.960  16.300
 1121BOLB   C3A26887  22.420  11.160  16.000
 1121BOLB   C4A26888  22.020  11.380  15.970
 1121BOLB   C1B26889  22.260  11.700  16.870
 1121BOLB   C2B26890  21.860  11.840  16.760
 1121BOLB   C3B26891  21.660  12.090  16.480
 1121BOLB   C4B26892  21.470  12.470  16.430
 1121BOLB   NC226893  23.220  10.350  15.850
 1121BOLB   PO226894  23.220  10.610  16.200
 1121BOLB   GL326895  23.010  10.850  15.850
 1121BOLB   GL426896  22.810  10.640  15.590
 1121BOLB   C1C26897  22.700  11.200  15.570
 1121BOLB   C2C26898  22.330  11.330  15.240
 1121BOLB   C3C26899  22.040  11.650  15.270
 1121BOLB   C4C26900  21.960  11.750  15.680
 1121BOLB   C1D26901  22.450  10.770  15.630
 1121BOLB   C2D26902  22.000  11.070  15.490
 1121BOLB   C3D26903  21.710  11.270  15.160
 1121BOLB   C4D26904  21.800  11.250  14.720
 1122BOLB   NC126905  17.730  24.630   6.010
 1122BOLB   PO126906  18.090  24.800   5.720
 1122BOLB   GL126907  18.200  25.020   5.400
 1122BOLB   GL226908  18.480  25.100   5.580
 1122BOLB   C1A26909  18.210  25.090   4.980
 1122BOLB   C2A26910  17.790  25.220   4.750
 1122BOLB   C3A26911  17.660  25.200   4.380
 1122BOLB   C4A26912  17.230  25.210   4.220
 1122BOLB   C1B26913  18.780  25.160   5.190
 1122BOLB   C2B26914  19.060  25.390   4.880
 1122BOLB   C3B26915  19.280  25.220   4.580
 1122BOLB   C4B26916  19.440  25.000   4.150
 1122BOLB   NC226917  16.970  26.830   2.520
 1122BOLB   PO226918  16.780  26.440   2.390
 1122BOLB   GL326919  16.730  26.430   2.760
 1122BOLB   GL426920  16.920  26.170   2.870
 1122BOLB   C1C26921  16.770  26.560   3.160
 1122BOLB   C2C26922  17.130  26.280   3.360
 1122BOLB   C3C26923  17.200  25.960   3.740
 1122BOLB   C4C26924  17.050  25.530   3.940
 1122BOLB   C1D26925  16.980  25.850   3.240
 1122BOLB   C2D26926  17.220  25.500   3.450
 1122BOLB   C3D26927  17.120  25.100   3.600
 1122BOLB   C4D26928  16.890  24.890   3.860
 1123BOLB   NC126929  25.400  19.090  14.730
 1123BOLB   PO126930  25.160  18.750  14.720
 1123BOLB   GL126931  25.550  18.510  14.610
 1123BOLB   GL226932  25.610  18.840  14.370
 1123BOLB   C1A26933  25.860  18.170  14.760
 1123BOLB   C2A26934  26.030  17.750  14.920
 1123BOLB   C3A26935  26.270  17.440  14.850
 1123BOLB   C4A26936  26.540  17.160  15.200
 1123BOLB   C1B26937  25.980  18.490  14.310
 1123BOLB   C2B26938  26.470  18.450  14.360
 1123BOLB   C3B26939  26.880  18.320  14.670
 1123BOLB   C4B26940  27.020  18.070  15.020
 1123BOLB   NC226941  27.700  15.240  15.120
 1123BOLB   PO226942  28.090  15.510  15.300
 1123BOLB   GL326943  27.780  15.850  15.190
 1123BOLB   GL426944  27.780  16.120  15.410
 1123BOLB   C1C26945  27.650  16.170  14.810
 1123BOLB   C2C26946  27.470  16.510  14.740
 1123BOLB   C3C26947  27.200  16.920  14.950
 1123BOLB   C4C26948  26.920  17.000  15.250
 1123BOLB   C1D26949  27.390  15.970  15.550
 1123BOLB   C2D26950  27.010  15.980  15.480
 1123BOLB   C3D26951  26.720  16.290  15.400
 1123BOLB   C4D26952  26.570  16.650  15.310
 1124BOLB   NC126953  23.640  18.130  16.360
 1124BOLB   PO126954  24.200  18.200  16.540
 1124BOLB   GL126955  24.640  18.060  16.630
 1124BOLB   GL226956  24.890  17.890  16.370
 1124BOLB   C1A26957  24.940  17.870  16.860
 1124BOLB   C2A26958  25.430  17.690  16.950
 1124BOLB   C3A26959  25.810  17.500  16.960
 1124BOLB   C4A26960  26.250  17.540  16.890
 1124BOLB   C1B26961  25.110  17.450  16.580
 1124BOLB   C2B26962  25.590  17.190  16.610
 1124BOLB   C3B26963  25.640  16.770  16.660
 1124BOLB   C4B26964  25.790  16.510  16.950
 1124BOLB   NC226965  28.550  17.330  17.590
 1124BOLB   PO226966  28.300  16.990  17.900
 1124BOLB   GL326967  27.980  17.190  17.900
 1124BOLB   GL426968  27.770  17.030  17.580
 1124BOLB   C1C26969  27.670  17.550  17.700
 1124BOLB   C2C26970  27.220  17.460  17.470
 1124BOLB   C3C26971  26.890  17.760  17.330
 1124BOLB   C4C26972  26.650  17.730  17.080
 1124BOLB   C1D26973  27.660  17.390  17.210
 1124BOLB   C2D26974  27.290  17.570  16.990
 1124BOLB   C3D26975  27.000  17.910  16.770
 1124BOLB   C4D26976  26.650  18.120  16.740
 1125BOLB   NC126977  16.730  19.310   4.450
 1125BOLB   PO126978  16.330  19.480   4.650
 1125BOLB   GL126979  16.220  19.480   4.240
 1125BOLB   GL226980  15.920  19.670   4.150
 1125BOLB   C1A26981  16.320  19.420   3.830
 1125BOLB   C2A26982  16.350  19.260   3.440
 1125BOLB   C3A26983  16.000  18.990   3.260
 1125BOLB   C4A26984  15.590  19.060   3.000
 1125BOLB   C1B26985  15.910  19.580   3.650
 1125BOLB   C2B26986  15.950  19.510   3.180
 1125BOLB   C3B26987  16.030  19.440   2.920
 1125BOLB   C4B26988  16.300  19.600   2.560
 1125BOLB   NC226989  15.200  19.590   0.720
 1125BOLB   PO226990  14.820  19.510   0.760
 1125BOLB   GL326991  14.770  19.560   1.210
 1125BOLB   GL426992  14.490  19.740   1.170
 1125BOLB   C1C26993  14.940  19.640   1.640
 1125BOLB   C2C26994  14.970  19.500   1.960
 1125BOLB   C3C26995  15.210  19.370   2.310
 1125BOLB   C4C26996  15.470  19.190   2.640
 1125BOLB   C1D26997  14.470  19.830   1.670
 1125BOLB   C2D26998  14.430  19.900   2.080
 1125BOLB   C3D26999  14.380  19.830   2.470
 1125BOLB   C4D27000  14.770  20.090   2.680
 1126BOLB   NC127001   9.910  20.520  14.600
 1126BOLB   PO127002   9.910  20.330  14.260
 1126BOLB   GL127003   9.990  19.940  14.420
 1126BOLB   GL227004  10.110  19.850  14.090
 1126BOLB   C1A27005   9.970  19.430  14.270
 1126BOLB   C2A27006   9.760  19.150  14.260
 1126BOLB   C3A27007   9.660  18.870  13.920
 1126BOLB   C4A27008   9.890  18.490  13.840
 1126BOLB   C1B27009  10.380  19.560  13.840
 1126BOLB   C2B27010  10.710  19.820  13.700
 1126BOLB   C3B27011  10.920  20.100  13.560
 1126BOLB   C4B27012  10.780  20.450  13.330
 1126BOLB   NC227013  10.320  16.900  12.220
 1126BOLB   PO227014  10.210  17.150  12.520
 1126BOLB   GL327015  10.120  17.280  12.980
 1126BOLB   GL427016  10.390  17.480  12.930
 1126BOLB   C1C27017  10.010  17.160  13.400
 1126BOLB   C2C27018  10.040  17.390  13.810
 1126BOLB   C3C27019  10.120  17.810  13.890
 1126BOLB   C4C27020  10.220  18.180  13.740
 1126BOLB   C1D27021  10.190  17.830  12.780
 1126BOLB   C2D27022  10.200  18.180  13.150
 1126BOLB   C3D27023   9.920  18.440  13.360
 1126BOLB   C4D27024   9.900  18.770  13.430
 1127BOLB   NC127025  12.960  23.540   6.600
 1127BOLB   PO127026  13.340  23.310   6.610
 1127BOLB   GL127027  13.310  23.580   6.160
 1127BOLB   GL227028  13.130  23.870   6.240
 1127BOLB   C1A27029  13.400  23.510   5.660
 1127BOLB   C2A27030  13.330  23.560   5.240
 1127BOLB   C3A27031  13.430  23.760   4.930
 1127BOLB   C4A27032  13.570  23.980   4.510
 1127BOLB   C1B27033  13.100  24.000   5.830
 1127BOLB   C2B27034  12.900  23.830   5.550
 1127BOLB   C3B27035  12.800  23.610   5.090
 1127BOLB   C4B27036  12.560  23.300   5.070
 1127BOLB   NC227037  13.030  25.180   2.990
 1127BOLB   PO227038  13.340  24.960   2.720
 1127BOLB   GL327039  13.420  24.640   3.070
 1127BOLB   GL427040  13.250  24.550   3.280
 1127BOLB   C1C27041  13.420  24.120   3.100
 1127BOLB   C2C27042  13.480  23.750   3.420
 1127BOLB   C3C27043  13.590  23.870   3.720
 1127BOLB   C4C27044  13.820  23.920   4.180
 1127BOLB   C1D27045  13.500  24.330   3.610
 1127BOLB   C2D27046  13.470  24.290   4.110
 1127BOLB   C3D27047  13.120  24.180   4.370
 1127BOLB   C4D27048  13.000  23.990   4.650
 1128BOLB   NC127049  20.250  30.230  14.190
 1128BOLB   PO127050  19.820  30.110  14.280
 1128BOLB   GL127051  19.660  30.410  14.560
 1128BOLB   GL227052  19.640  30.280  14.930
 1128BOLB   C1A27053  19.550  30.820  14.790
 1128BOLB   C2A27054  19.320  31.230  14.830
 1128BOLB   C3A27055  19.260  31.690  14.470
 1128BOLB   C4A27056  19.110  31.960  14.150
 1128BOLB   C1B27057  19.710  30.580  15.260
 1128BOLB   C2B27058  19.560  31.020  15.240
 1128BOLB   C3B27059  19.370  31.310  15.450
 1128BOLB   C4B27060  19.200  31.690  15.290
 1128BOLB   NC227061  19.060  34.340  14.650
 1128BOLB   PO227062  18.710  34.180  14.810
 1128BOLB   GL327063  19.020  33.850  14.840
 1128BOLB   GL427064  19.300  33.690  14.680
 1128BOLB   C1C27065  19.030  33.310  14.900
 1128BOLB   C2C27066  18.800  32.910  14.670
 1128BOLB   C3C27067  18.740  32.790  14.260
 1128BOLB   C4C27068  18.820  32.400  14.190
 1128BOLB   C1D27069  19.250  33.400  14.410
 1128BOLB   C2D27070  19.230  33.020  14.210
 1128BOLB   C3D27071  19.110  32.690  13.930
 1128BOLB   C4D27072  19.230  32.370  13.840
 1129BOLB   NC127073  15.450  25.840  18.470
 1129BOLB   PO127074  15.420  25.470  18.810
 1129BOLB   GL127075  15.170  25.780  19.150
 1129BOLB   GL227076  15.010  25.960  18.930
 1129BOLB   C1A27077  15.090  25.860  19.550
 1129BOLB   C2A27078  14.930  25.810  20.020
 1129BOLB   C3A27079  14.630  25.740  20.270
 1129BOLB   C4A27080  14.680  25.890  20.710
 1129BOLB   C1B27081  14.660  26.070  19.390
 1129BOLB   C2B27082  14.640  26.350  19.670
 1129BOLB   C3B27083  14.790  26.790  19.880
 1129BOLB   C4B27084  15.090  27.120  20.000
 1129BOLB   NC227085  15.160  27.640  22.840
 1129BOLB   PO227086  14.970  27.230  22.660
 1129BOLB   GL327087  15.050  27.200  22.230
 1129BOLB   GL427088  14.790  27.510  22.060
 1129BOLB   C1C27089  15.270  27.020  21.970
 1129BOLB   C2C27090  15.440  26.740  21.570
 1129BOLB   C3C27091  15.210  26.330  21.310
 1129BOLB   C4C27092  14.770  26.240  21.050
 1129BOLB   C1D27093  15.130  27.480  21.800
 1129BOLB   C2D27094  15.430  27.720  21.450
 1129BOLB   C3D27095  15.610  28.100  21.280
 1129BOLB   C4D27096  15.950  28.330  21.470
 1130BOLB   NC127097  22.110  18.080   7.810
 1130BOLB   PO127098  22.010  17.870   8.110
 1130BOLB   GL127099  22.460  17.740   8.050
 1130BOLB   GL227100  22.390  17.450   8.060
 1130BOLB   C1A27101  22.910  17.620   8.130
 1130BOLB   C2A27102  23.310  17.400   8.180
 1130BOLB   C3A27103  23.480  17.010   7.960
 1130BOLB   C4A27104  23.830  16.680   8.160
 1130BOLB   C1B27105  22.610  17.090   7.880
 1130BOLB   C2B27106  23.020  16.980   7.770
 1130BOLB   C3B27107  23.360  16.760   7.530
 1130BOLB   C4B27108  23.820  16.670   7.670
 1130BOLB   NC227109  25.860  15.180   7.470
 1130BOLB   PO227110  26.170  15.530   7.280
 1130BOLB   GL327111  25.840  15.680   7.410
 1130BOLB   GL427112  25.830  15.990   7.240
 1130BOLB   C1C27113  25.410  15.790   7.640
 1130BOLB   C2C27114  25.070  15.980   7.730
 1130BOLB   C3C27115  24.660  16.110   7.940
 1130BOLB   C4C27116  24.300  16.410   8.050
 1130BOLB   C1D27117  25.430  16.250   7.340
 1130BOLB   C2D27118  25.060  16.400   7.420
 1130BOLB   C3D27119  24.590  16.600   7.370
 1130BOLB   C4D27120  24.210  16.990   7.420
 1131BOLB   NC127121  10.210  24.480  14.900
 1131BOLB   PO127122  10.320  24.920  14.910
 1131BOLB   GL127123  10.190  25.270  15.020
 1131BOLB   GL227124  10.220  25.230  15.390
 1131BOLB   C1A27125   9.830  25.600  15.080
 1131BOLB   C2A27126   9.830  26.080  15.130
 1131BOLB   C3A27127   9.800  26.480  15.110
 1131BOLB   C4A27128   9.750  26.920  15.340
 1131BOLB   C1B27129   9.800  25.180  15.350
 1131BOLB   C2B27130   9.380  25.080  15.440
 1131BOLB   C3B27131   9.050  25.440  15.330
 1131BOLB   C4B27132   8.750  25.520  15.020
 1131BOLB   NC227133   8.210  28.280  15.810
 1131BOLB   PO227134   8.380  28.460  15.450
 1131BOLB   GL327135   8.730  28.410  15.690
 1131BOLB   GL427136   8.760  28.250  15.970
 1131BOLB   C1C27137   9.170  28.360  15.660
 1131BOLB   C2C27138   9.570  28.010  15.520
 1131BOLB   C3C27139   9.690  27.710  15.290
 1131BOLB   C4C27140   9.720  27.320  15.270
 1131BOLB   C1D27141   8.910  27.900  15.740
 1131BOLB   C2D27142   9.080  27.570  15.920
 1131BOLB   C3D27143   9.120  27.130  15.910
 1131BOLB   C4D27144   9.310  26.800  16.090
 1132BOLB   NC127145  19.310  27.540   8.260
 1132BOLB   PO127146  19.420  27.500   7.850
 1132BOLB   GL127147  19.460  27.590   7.460
 1132BOLB   GL227148  19.200  27.430   7.280
 1132BOLB   C1A27149  19.570  27.950   7.280
 1132BOLB   C2A27150  19.740  28.280   7.170
 1132BOLB   C3A27151  19.770  28.580   6.830
 1132BOLB   C4A27152  20.020  28.600   6.440
 1132BOLB   C1B27153  19.350  27.710   6.880
 1132BOLB   C2B27154  19.420  28.150   6.710
 1132BOLB   C3B27155  19.540  28.340   6.370
 1132BOLB   C4B27156  19.620  28.850   6.260
 1132BOLB   NC227157  20.900  30.140   5.260
 1132BOLB   PO227158  20.560  30.190   5.100
 1132BOLB   GL327159  20.500  29.830   5.140
 1132BOLB   GL427160  20.540  29.520   4.980
 1132BOLB   C1C27161  20.490  29.580   5.450
 1132BOLB   C2C27162  20.410  29.430   5.890
 1132BOLB   C3C27163  20.510  29.170   6.260
 1132BOLB   C4C27164  20.310  28.830   6.350
 1132BOLB   C1D27165  20.430  29.110   5.330
 1132BOLB   C2D27166  20.180  28.930   5.630
 1132BOLB   C3D27167  20.210  28.610   5.930
 1132BOLB   C4D27168  20.250  28.270   6.130
 1133BOLB   NC127169  16.510  12.070  14.500
 1133BOLB   PO127170  16.430  11.820  14.800
 1133BOLB   GL127171  16.340  11.440  14.760
 1133BOLB   GL227172  16.590  11.390  14.580
 1133BOLB   C1A27173  16.600  11.090  14.970
 1133BOLB   C2A27174  16.650  10.710  15.040
 1133BOLB   C3A27175  16.910  10.280  14.950
 1133BOLB   C4A27176  17.000   9.820  14.760
 1133BOLB   C1B27177  16.440  10.880  14.430
 1133BOLB   C2B27178  16.320  10.610  14.650
 1133BOLB   C3B27179  16.420  10.210  14.660
 1133BOLB   C4B27180  16.500   9.940  14.950
 1133BOLB   NC227181  15.530   8.560  16.440
 1133BOLB   PO227182  15.770   8.180  16.290
 1133BOLB   GL327183  15.960   8.570  16.160
 1133BOLB   GL427184  16.220   8.740  16.300
 1133BOLB   C1C27185  16.270   8.830  15.770
 1133BOLB   C2C27186  16.220   9.040  15.340
 1133BOLB   C3C27187  16.470   9.250  15.030
 1133BOLB   C4C27188  16.830   9.500  14.810
 1133BOLB   C1D27189  16.190   9.210  16.270
 1133BOLB   C2D27190  16.160   9.480  16.690
 1133BOLB   C3D27191  16.060   9.840  16.750
 1133BOLB   C4D27192  15.710  10.150  16.670
 1134BOLB   NC127193  16.900  24.820   6.340
 1134BOLB   PO127194  17.240  25.020   6.060
 1134BOLB   GL127195  17.360  25.240   5.750
 1134BOLB   GL227196  17.610  25.130   5.680
 1134BOLB   C1A27197  17.140  25.430   5.390
 1134BOLB   C2A27198  17.040  25.670   4.980
 1134BOLB   C3A27199  16.880  26.080   4.980
 1134BOLB   C4A27200  16.810  26.530   4.920
 1134BOLB   C1B27201  17.700  25.110   5.270
 1134BOLB   C2B27202  17.680  24.770   4.860
 1134BOLB   C3B27203  17.720  24.640   4.450
 1134BOLB   C4B27204  17.900  24.740   4.070
 1134BOLB   NC227205  16.190  27.730   2.390
 1134BOLB   PO227206  16.220  27.750   2.780
 1134BOLB   GL327207  16.280  27.610   3.320
 1134BOLB   GL427208  16.020  27.630   3.500
 1134BOLB   C1C27209  16.540  27.530   3.690
 1134BOLB   C2C27210  16.830  27.290   3.890
 1134BOLB   C3C27211  16.930  26.860   4.150
 1134BOLB   C4C27212  16.820  26.710   4.530
 1134BOLB   C1D27213  15.870  27.420   3.850
 1134BOLB   C2D27214  15.840  27.160   4.130
 1134BOLB   C3D27215  16.030  26.890   4.450
 1134BOLB   C4D27216  16.350  26.700   4.670
 1135BOLB   NC127217  24.970  18.990  13.170
 1135BOLB   PO127218  25.340  19.210  13.090
 1135BOLB   GL127219  25.670  19.090  12.670
 1135BOLB   GL227220  25.740  18.930  12.410
 1135BOLB   C1A27221  26.150  19.080  12.570
 1135BOLB   C2A27222  26.530  19.080  12.380
 1135BOLB   C3A27223  26.790  18.690  12.150
 1135BOLB   C4A27224  27.250  18.650  12.020
 1135BOLB   C1B27225  26.020  18.480  12.480
 1135BOLB   C2B27226  26.430  18.430  12.410
 1135BOLB   C3B27227  26.820  18.630  12.680
 1135BOLB   C4B27228  26.820  18.850  13.000
 1135BOLB   NC227229  29.680  18.600  11.930
 1135BOLB   PO227230  29.520  18.250  12.180
 1135BOLB   GL327231  29.170  18.550  12.020
 1135BOLB   GL427232  28.810  18.360  12.030
 1135BOLB   C1C27233  28.750  18.840  12.080
 1135BOLB   C2C27234  28.380  18.920  12.200
 1135BOLB   C3C27235  27.990  18.920  12.330
 1135BOLB   C4C27236  27.680  18.700  12.140
 1135BOLB   C1D27237  28.350  18.360  12.140
 1135BOLB   C2D27238  28.000  18.360  11.930
 1135BOLB   C3D27239  27.770  17.990  11.730
 1135BOLB   C4D27240  27.820  17.570  11.690
 1136BOLB   NC127241  14.290  27.370  16.970
 1136BOLB   PO127242  14.310  27.610  16.640
 1136BOLB   GL127243  13.950  27.910  16.950
 1136BOLB   GL227244  14.040  27.690  17.270
 1136BOLB   C1A27245  13.570  28.200  16.950
 1136BOLB   C2A27246  13.510  28.650  16.910
 1136BOLB   C3A27247  13.750  29.070  17.070
 1136BOLB   C4A27248  13.520  29.440  17.330
 1136BOLB   C1B27249  14.120  27.930  17.590
 1136BOLB   C2B27250  14.220  28.150  17.930
 1136BOLB   C3B27251  14.270  28.210  18.410
 1136BOLB   C4B27252  14.430  28.630  18.650
 1136BOLB   NC227253  11.900  30.660  17.950
 1136BOLB   PO227254  11.850  30.550  18.510
 1136BOLB   GL327255  11.670  30.210  18.150
 1136BOLB   GL427256  11.450  30.000  17.890
 1136BOLB   C1C27257  11.960  29.960  17.900
 1136BOLB   C2C27258  12.310  29.800  17.640
 1136BOLB   C3C27259  12.700  29.900  17.510
 1136BOLB   C4C27260  13.210  29.720  17.570
 1136BOLB   C1D27261  11.650  30.050  17.490
 1136BOLB   C2D27262  11.960  30.090  17.210
 1136BOLB   C3D27263  12.230  29.760  17.090
 1136BOLB   C4D27264  12.480  29.550  16.940
 1137BOLB   NC127265  23.870  16.700  12.740
 1137BOLB   PO127266  23.620  16.520  13.090
 1137BOLB   GL127267  23.880  16.160  12.980
 1137BOLB   GL227268  24.160  16.340  12.810
 1137BOLB   C1A27269  24.220  15.870  13.020
 1137BOLB   C2A27270  24.400  15.410  12.940
 1137BOLB   C3A27271  24.350  14.960  12.900
 1137BOLB   C4A27272  24.560  14.580  12.700
 1137BOLB   C1B27273  24.530  16.140  12.650
 1137BOLB   C2B27274  24.930  15.860  12.660
 1137BOLB   C3B27275  25.000  15.460  12.650
 1137BOLB   C4B27276  25.100  15.220  12.980
 1137BOLB   NC227277  26.020  12.460  12.160
 1137BOLB   PO227278  25.590  12.760  12.360
 1137BOLB   GL327279  25.200  12.780  12.400
 1137BOLB   GL427280  25.250  13.090  12.480
 1137BOLB   C1C27281  24.870  12.990  12.170
 1137BOLB   C2C27282  24.610  13.410  12.170
 1137BOLB   C3C27283  24.490  13.800  12.340
 1137BOLB   C4C27284  24.650  14.180  12.550
 1137BOLB   C1D27285  24.820  13.330  12.570
 1137BOLB   C2D27286  24.380  13.460  12.660
 1137BOLB   C3D27287  23.990  13.580  12.790
 1137BOLB   C4D27288  23.820  13.910  13.130
 1138BOLB   NC127289  10.700  24.340   9.710
 1138BOLB   PO127290  10.470  24.300  10.060
 1138BOLB   GL127291  10.160  24.350   9.760
 1138BOLB   GL227292  10.260  24.240   9.370
 1138BOLB   C1A27293   9.880  24.650   9.560
 1138BOLB   C2A27294   9.490  24.630   9.410
 1138BOLB   C3A27295   9.110  24.730   9.400
 1138BOLB   C4A27296   8.940  25.050   9.200
 1138BOLB   C1B27297   9.840  24.220   9.320
 1138BOLB   C2B27298   9.410  24.220   9.050
 1138BOLB   C3B27299   9.000  24.530   8.900
 1138BOLB   C4B27300   8.600  24.700   9.070
 1138BOLB   NC227301   7.670  26.100   7.720
 1138BOLB   PO227302   7.800  26.060   7.360
 1138BOLB   GL327303   7.900  25.660   7.620
 1138BOLB   GL427304   7.760  25.360   7.570
 1138BOLB   C1C27305   8.200  25.680   7.930
 1138BOLB   C2C27306   8.180  25.460   8.340
 1138BOLB   C3C27307   8.430  25.380   8.650
 1138BOLB   C4C27308   8.730  25.110   8.790
 1138BOLB   C1D27309   7.910  25.200   8.050
 1138BOLB   C2D27310   8.210  24.920   8.190
 1138BOLB   C3D27311   8.600  24.920   8.270
 1138BOLB   C4D27312   8.920  24.770   8.500
 1139BOLB   NC127313  22.370  14.900  12.910
 1139BOLB   PO127314  22.400  15.170  13.220
 1139BOLB   GL127315  22.850  14.950  13.290
 1139BOLB   GL227316  23.140  15.110  13.330
 1139BOLB   C1A27317  23.040  14.550  13.290
 1139BOLB   C2A27318  23.300  14.230  13.370
 1139BOLB   C3A27319  23.410  13.780  13.540
 1139BOLB   C4A27320  23.720  13.420  13.600
 1139BOLB   C1B27321  23.500  14.810  13.200
 1139BOLB   C2B27322  23.910  14.690  13.170
 1139BOLB   C3B27323  24.180  14.360  12.900
 1139BOLB   C4B27324  24.270  13.980  12.790
 1139BOLB   NC227325  24.750  11.750  15.370
 1139BOLB   PO227326  24.910  11.910  14.940
 1139BOLB   GL327327  24.630  12.160  14.920
 1139BOLB   GL427328  24.710  12.280  15.340
 1139BOLB   C1C27329  24.490  12.590  14.620
 1139BOLB   C2C27330  24.130  12.580  14.230
 1139BOLB   C3C27331  24.080  12.830  13.880
 1139BOLB   C4C27332  23.780  13.040  13.770
 1139BOLB   C1D27333  24.430  12.610  15.500
 1139BOLB   C2D27334  24.020  12.870  15.390
 1139BOLB   C3D27335  23.820  12.880  15.070
 1139BOLB   C4D27336  23.680  13.210  14.840
 1140BOLB   NC127337  10.310  20.170   8.420
 1140BOLB   PO127338  10.800  20.170   8.180
 1140BOLB   GL127339  10.520  19.840   7.930
 1140BOLB   GL227340  10.710  19.590   7.860
 1140BOLB   C1A27341  10.050  19.890   7.820
 1140BOLB   C2A27342   9.950  20.270   7.620
 1140BOLB   C3A27343   9.670  20.270   7.260
 1140BOLB   C4A27344   9.460  20.090   6.990
 1140BOLB   C1B27345  10.450  19.720   7.490
 1140BOLB   C2B27346  10.180  19.530   7.270
 1140BOLB   C3B27347   9.880  19.190   7.010
 1140BOLB   C4B27348   9.820  19.010   6.660
 1140BOLB   NC227349   7.190  19.260   6.720
 1140BOLB   PO227350   7.370  18.820   6.780
 1140BOLB   GL327351   7.620  19.100   6.990
 1140BOLB   GL427352   7.520  18.950   7.340
 1140BOLB   C1C27353   8.090  19.280   7.030
 1140BOLB   C2C27354   8.440  19.540   7.080
 1140BOLB   C3C27355   8.850  19.620   7.000
 1140BOLB   C4C27356   9.040  19.980   6.850
 1140BOLB   C1D27357   7.880  19.110   7.440
 1140BOLB   C2D27358   8.400  19.070   7.260
 1140BOLB   C3D27359   8.780  19.290   7.410
 1140BOLB   C4D27360   9.150  19.270   7.520
 1141BOLB   NC127361  17.170  20.570   4.740
 1141BOLB   PO127362  16.850  20.910   4.730
 1141BOLB   GL127363  16.930  20.800   4.280
 1141BOLB   GL227364  17.310  20.760   4.250
 1141BOLB   C1A27365  16.740  20.830   3.930
 1141BOLB   C2A27366  16.510  20.960   3.560
 1141BOLB   C3A27367  16.320  20.950   3.240
 1141BOLB   C4A27368  16.390  21.300   2.870
 1141BOLB   C1B27369  17.480  20.710   3.840
 1141BOLB   C2B27370  17.420  20.550   3.500
 1141BOLB   C3B27371  17.310  20.310   3.250
 1141BOLB   C4B27372  17.470  20.050   2.860
 1141BOLB   NC227373  16.900  22.930   0.770
 1141BOLB   PO227374  17.020  22.460   0.930
 1141BOLB   GL327375  17.060  22.330   1.270
 1141BOLB   GL427376  17.270  22.050   1.280
 1141BOLB   C1C27377  16.840  22.320   1.700
 1141BOLB   C2C27378  16.810  21.870   1.800
 1141BOLB   C3C27379  16.740  21.540   2.060
 1141BOLB   C4C27380  16.570  21.410   2.540
 1141BOLB   C1D27381  17.290  22.060   1.660
 1141BOLB   C2D27382  17.090  22.090   2.100
 1141BOLB   C3D27383  16.960  22.380   2.460
 1141BOLB   C4D27384  17.170  22.680   2.870
 1142BOLB   NC127385  23.080  23.970   7.050
 1142BOLB   PO127386  22.990  23.690   6.790
 1142BOLB   GL127387  23.150  23.750   6.370
 1142BOLB   GL227388  22.990  23.510   6.170
 1142BOLB   C1A27389  23.410  23.780   5.960
 1142BOLB   C2A27390  23.720  23.490   5.790
 1142BOLB   C3A27391  24.160  23.560   5.750
 1142BOLB   C4A27392  24.530  23.490   5.610
 1142BOLB   C1B27393  23.290  23.300   5.830
 1142BOLB   C2B27394  23.540  23.100   5.510
 1142BOLB   C3B27395  23.880  22.790   5.310
 1142BOLB   C4B27396  23.890  22.530   4.870
 1142BOLB   NC227397  26.360  22.270   4.480
 1142BOLB   PO227398  26.260  22.680   4.300
 1142BOLB   GL327399  26.020  22.840   4.680
 1142BOLB   GL427400  26.250  22.820   4.900
 1142BOLB   C1C27401  25.710  22.850   5.070
 1142BOLB   C2C27402  25.380  22.750   5.320
 1142BOLB   C3C27403  25.090  22.750   5.650
 1142BOLB   C4C27404  24.700  22.950   5.760
 1142BOLB   C1D27405  26.210  22.830   5.270
 1142BOLB   C2D27406  25.770  22.910   5.540
 1142BOLB   C3D27407  25.440  23.160   5.720
 1142BOLB   C4D27408  25.010  23.410   5.800
 1143BOLB   NC127409  16.450  22.410   5.230
 1143BOLB   PO127410  16.620  22.660   5.470
 1143BOLB   GL127411  16.440  22.950   5.140
 1143BOLB   GL227412  16.760  23.110   4.990
 1143BOLB   C1A27413  16.210  23.270   4.730
 1143BOLB   C2A27414  15.960  23.310   4.300
 1143BOLB   C3A27415  15.490  23.290   4.180
 1143BOLB   C4A27416  15.340  23.230   3.900
 1143BOLB   C1B27417  16.680  23.100   4.530
 1143BOLB   C2B27418  16.450  22.930   4.200
 1143BOLB   C3B27419  16.110  23.090   3.840
 1143BOLB   C4B27420  15.780  23.350   3.670
 1143BOLB   NC227421  14.530  24.740   2.060
 1143BOLB   PO227422  14.760  24.380   1.880
 1143BOLB   GL327423  15.040  24.360   2.270
 1143BOLB   GL427424  14.900  24.550   2.480
 1143BOLB   C1C27425  15.250  24.100   2.510
 1143BOLB   C2C27426  15.410  23.870   2.870
 1143BOLB   C3C27427  15.410  23.770   3.310
 1143BOLB   C4C27428  15.150  23.560   3.570
 1143BOLB   C1D27429  14.870  24.530   2.920
 1143BOLB   C2D27430  15.100  24.190   3.040
 1143BOLB   C3D27431  15.220  24.180   3.500
 1143BOLB   C4D27432  15.230  24.110   3.910
 1144BOLB   NC127433  20.420  28.480   9.520
 1144BOLB   PO127434  20.690  28.780   9.280
 1144BOLB   GL127435  20.660  29.140   8.900
 1144BOLB   GL227436  20.640  28.970   8.680
 1144BOLB   C1A27437  20.790  29.480   8.760
 1144BOLB   C2A27438  21.190  29.740   8.810
 1144BOLB   C3A27439  21.290  30.180   8.850
 1144BOLB   C4A27440  21.760  30.360   8.800
 1144BOLB   C1B27441  20.540  29.240   8.410
 1144BOLB   C2B27442  20.540  29.630   8.160
 1144BOLB   C3B27443  20.610  30.110   8.100
 1144BOLB   C4B27444  20.610  30.530   8.150
 1144BOLB   NC227445  22.050  32.190   7.240
 1144BOLB   PO227446  21.690  32.380   7.380
 1144BOLB   GL327447  21.650  32.000   7.660
 1144BOLB   GL427448  21.370  32.140   7.710
 1144BOLB   C1C27449  21.790  31.630   7.910
 1144BOLB   C2C27450  21.780  31.230   8.240
 1144BOLB   C3C27451  21.760  30.960   8.420
 1144BOLB   C4C27452  21.780  30.810   8.810
 1144BOLB   C1D27453  21.270  31.750   7.940
 1144BOLB   C2D27454  21.240  31.340   8.030
 1144BOLB   C3D27455  21.320  30.980   8.220
 1144BOLB   C4D27456  21.130  30.600   8.120
 1145BOLB   NC127457  14.190  17.280   5.130
 1145BOLB   PO127458  14.330  16.850   5.180
 1145BOLB   GL127459  14.220  16.670   4.950
 1145BOLB   GL227460  14.080  16.950   4.740
 1145BOLB   C1A27461  13.900  16.380   4.760
 1145BOLB   C2A27462  13.440  16.370   4.600
 1145BOLB   C3A27463  13.380  16.170   4.310
 1145BOLB   C4A27464  13.480  15.800   4.320
 1145BOLB   C1B27465  14.120  16.760   4.460
 1145BOLB   C2B27466  14.330  16.350   4.480
 1145BOLB   C3B27467  14.460  15.880   4.570
 1145BOLB   C4B27468  14.680  15.760   4.190
 1145BOLB   NC227469  12.760  14.070   2.500
 1145BOLB   PO227470  13.120  14.170   2.420
 1145BOLB   GL327471  13.350  14.510   2.800
 1145BOLB   GL427472  13.620  14.660   2.680
 1145BOLB   C1C27473  13.310  14.720   3.300
 1145BOLB   C2C27474  13.640  14.760   3.600
 1145BOLB   C3C27475  13.720  15.030   3.880
 1145BOLB   C4C27476  13.680  15.450   4.070
 1145BOLB   C1D27477  13.380  15.010   2.860
 1145BOLB   C2D27478  13.120  15.240   3.120
 1145BOLB   C3D27479  12.940  15.320   3.500
 1145BOLB   C4D27480  13.160  15.480   3.900
 1146BOLB   NC127481  22.930  27.490   8.720
 1146BOLB   PO127482  22.650  27.170   8.500
 1146BOLB   GL127483  22.720  27.520   8.230
 1146BOLB   GL227484  23.130  27.600   8.210
 1146BOLB   C1A27485  22.830  27.600   7.770
 1146BOLB   C2A27486  23.250  27.820   7.660
 1146BOLB   C3A27487  23.630  28.060   7.510
 1146BOLB   C4A27488  23.900  28.220   7.300
 1146BOLB   C1B27489  22.960  28.040   8.030
 1146BOLB   C2B27490  22.850  28.340   7.970
 1146BOLB   C3B27491  22.630  28.590   7.730
 1146BOLB   C4B27492  22.800  29.070   7.760
 1146BOLB   NC227493  23.880  28.920   4.640
 1146BOLB   PO227494  23.830  29.130   5.070
 1146BOLB   GL327495  23.780  29.040   5.460
 1146BOLB   GL427496  24.050  28.910   5.540
 1146BOLB   C1C27497  23.630  28.830   5.860
 1146BOLB   C2C27498  23.730  28.610   6.120
 1146BOLB   C3C27499  23.820  28.350   6.380
 1146BOLB   C4C27500  23.950  28.250   6.850
 1146BOLB   C1D27501  23.770  28.540   5.510
 1146BOLB   C2D27502  23.370  28.230   5.640
 1146BOLB   C3D27503  22.990  28.110   5.960
 1146BOLB   C4D27504  22.830  27.940   6.330
 1147BOLB   NC127505  17.900  27.640   8.550
 1147BOLB   PO127506  18.000  27.840   8.150
 1147BOLB   GL127507  17.770  27.850   7.780
 1147BOLB   GL227508  17.430  27.860   7.630
 1147BOLB   C1A27509  17.710  28.230   7.610
 1147BOLB   C2A27510  17.680  28.610   7.320
 1147BOLB   C3A27511  17.720  28.980   7.250
 1147BOLB   C4A27512  17.860  29.320   7.110
 1147BOLB   C1B27513  17.310  28.050   7.210
 1147BOLB   C2B27514  16.840  28.250   7.100
 1147BOLB   C3B27515  16.760  28.600   6.840
 1147BOLB   C4B27516  16.600  29.020   6.860
 1147BOLB   NC227517  16.660  31.370   6.420
 1147BOLB   PO227518  16.720  31.240   5.960
 1147BOLB   GL327519  16.780  30.870   6.230
 1147BOLB   GL427520  16.930  30.940   6.500
 1147BOLB   C1C27521  16.940  30.540   6.260
 1147BOLB   C2C27522  17.280  30.350   6.580
 1147BOLB   C3C27523  17.450  30.000   6.840
 1147BOLB   C4C27524  17.500  29.510   6.910
 1147BOLB   C1D27525  16.870  30.630   6.810
 1147BOLB   C2D27526  16.770  30.350   6.980
 1147BOLB   C3D27527  16.410  29.990   6.800
 1147BOLB   C4D27528  16.220  29.490   6.760
 1148BOLB   NC127529  12.250  20.870   7.010
 1148BOLB   PO127530  11.760  20.920   7.110
 1148BOLB   GL127531  11.530  20.880   6.820
 1148BOLB   GL227532  11.580  21.200   6.680
 1148BOLB   C1A27533  11.200  20.950   6.410
 1148BOLB   C2A27534  10.800  20.940   6.200
 1148BOLB   C3A27535  10.530  21.000   5.880
 1148BOLB   C4A27536  10.340  20.960   5.410
 1148BOLB   C1B27537  11.430  21.360   6.330
 1148BOLB   C2B27538  11.230  21.310   6.070
 1148BOLB   C3B27539  11.020  21.200   5.750
 1148BOLB   C4B27540  10.840  21.140   5.390
 1148BOLB   NC227541   9.370  20.750   3.330
 1148BOLB   PO227542   9.670  20.610   3.500
 1148BOLB   GL327543   9.650  20.750   3.870
 1148BOLB   GL427544   9.810  20.890   3.950
 1148BOLB   C1C27545   9.390  20.480   4.160
 1148BOLB   C2C27546   9.390  20.560   4.590
 1148BOLB   C3C27547   9.630  20.750   4.900
 1148BOLB   C4C27548   9.940  20.970   5.110
 1148BOLB   C1D27549   9.650  21.360   4.120
 1148BOLB   C2D27550   9.750  21.740   4.210
 1148BOLB   C3D27551  10.130  21.920   4.410
 1148BOLB   C4D27552  10.410  22.290   4.280
 1149BOLB   NC127553  16.720  22.080   5.420
 1149BOLB   PO127554  16.760  22.160   4.930
 1149BOLB   GL127555  16.750  22.050   4.500
 1149BOLB   GL227556  16.440  21.810   4.450
 1149BOLB   C1A27557  16.680  22.130   4.080
 1149BOLB   C2A27558  16.510  22.030   3.680
 1149BOLB   C3A27559  16.670  21.930   3.300
 1149BOLB   C4A27560  16.780  21.730   2.830
 1149BOLB   C1B27561  16.180  21.980   4.080
 1149BOLB   C2B27562  15.810  22.150   4.120
 1149BOLB   C3B27563  15.460  22.460   4.140
 1149BOLB   C4B27564  15.210  22.750   4.250
 1149BOLB   NC227565  16.290  22.730   0.810
 1149BOLB   PO227566  16.430  23.100   0.970
 1149BOLB   GL327567  16.590  22.740   1.170
 1149BOLB   GL427568  16.800  22.800   1.300
 1149BOLB   C1C27569  16.460  22.360   1.340
 1149BOLB   C2C27570  16.360  22.060   1.660
 1149BOLB   C3C27571  16.420  22.020   2.070
 1149BOLB   C4C27572  16.680  21.890   2.450
 1149BOLB   C1D27573  16.680  22.820   1.790
 1149BOLB   C2D27574  16.520  22.570   2.160
 1149BOLB   C3D27575  16.350  22.280   2.460
 1149BOLB   C4D27576  16.400  22.100   2.870
 1150BOLB   NC127577  17.450  12.260  12.320
 1150BOLB   PO127578  17.030  12.190  12.130
 1150BOLB   GL127579  17.140  11.820  12.350
 1150BOLB   GL227580  17.470  11.800  12.150
 1150BOLB   C1A27581  17.210  11.310  12.400
 1150BOLB   C2A27582  17.490  11.230  12.500
 1150BOLB   C3A27583  17.660  10.830  12.690
 1150BOLB   C4A27584  17.980  10.540  12.790
 1150BOLB   C1B27585  17.730  11.520  12.100
 1150BOLB   C2B27586  17.820  11.240  12.140
 1150BOLB   C3B27587  17.930  10.770  12.320
 1150BOLB   C4B27588  18.050  10.280  12.250
 1150BOLB   NC227589  19.530   8.500  13.280
 1150BOLB   PO227590  19.300   8.310  12.920
 1150BOLB   GL327591  19.190   8.780  12.990
 1150BOLB   GL427592  19.360   9.010  12.740
 1150BOLB   C1C27593  18.940   9.140  13.030
 1150BOLB   C2C27594  18.760   9.530  12.970
 1150BOLB   C3C27595  18.470   9.810  13.080
 1150BOLB   C4C27596  18.150  10.130  12.940
 1150BOLB   C1D27597  19.320   9.440  12.820
 1150BOLB   C2D27598  19.210   9.900  12.920
 1150BOLB   C3D27599  19.250  10.280  13.190
 1150BOLB   C4D27600  19.250  10.610  13.360
 1151BOLB   NC127601  24.670  26.080  10.670
 1151BOLB   PO127602  24.860  26.210  10.460
 1151BOLB   GL127603  25.240  26.450  10.200
 1151BOLB   GL227604  25.310  26.050  10.080
 1151BOLB   C1A27605  25.500  26.430   9.780
 1151BOLB   C2A27606  25.820  26.720   9.510
 1151BOLB   C3A27607  26.160  26.830   9.250
 1151BOLB   C4A27608  26.400  26.750   8.970
 1151BOLB   C1B27609  25.750  25.990  10.000
 1151BOLB   C2B27610  26.020  25.930   9.710
 1151BOLB   C3B27611  26.430  26.050   9.540
 1151BOLB   C4B27612  26.800  26.180   9.680
 1151BOLB   NC227613  27.350  28.100   7.560
 1151BOLB   PO227614  27.710  27.820   7.680
 1151BOLB   GL327615  27.270  27.590   7.680
 1151BOLB   GL427616  26.970  27.790   7.440
 1151BOLB   C1C27617  27.160  27.390   7.920
 1151BOLB   C2C27618  27.050  27.370   8.260
 1151BOLB   C3C27619  26.780  27.140   8.410
 1151BOLB   C4C27620  26.520  27.000   8.700
 1151BOLB   C1D27621  26.790  27.480   7.540
 1151BOLB   C2D27622  26.560  27.190   7.350
 1151BOLB   C3D27623  26.420  27.000   6.900
 1151BOLB   C4D27624  26.360  26.810   6.550
 1152BOLB   NC127625  16.070  24.290   6.210
 1152BOLB   PO127626  15.760  24.590   6.420
 1152BOLB   GL127627  15.800  24.980   6.180
 1152BOLB   GL227628  16.030  25.220   6.310
 1152BOLB   C1A27629  15.680  25.200   5.790
 1152BOLB   C2A27630  15.610  25.440   5.410
 1152BOLB   C3A27631  15.730  25.360   5.030
 1152BOLB   C4A27632  15.660  25.260   4.610
 1152BOLB   C1B27633  15.920  25.580   6.050
 1152BOLB   C2B27634  15.880  25.830   5.750
 1152BOLB   C3B27635  15.550  25.940   5.560
 1152BOLB   C4B27636  15.330  26.020   5.180
 1152BOLB   NC227637  14.610  25.900   2.760
 1152BOLB   PO227638  14.250  26.010   3.020
 1152BOLB   GL327639  14.540  25.850   3.290
 1152BOLB   GL427640  14.740  25.980   3.530
 1152BOLB   C1C27641  14.590  25.460   3.460
 1152BOLB   C2C27642  14.800  25.350   3.850
 1152BOLB   C3C27643  15.100  25.350   4.130
 1152BOLB   C4C27644  15.350  25.250   4.530
 1152BOLB   C1D27645  14.880  26.250   3.880
 1152BOLB   C2D27646  14.600  26.280   4.300
 1152BOLB   C3D27647  14.640  26.090   4.670
 1152BOLB   C4D27648  14.780  25.850   5.050
 1153BOLB   NC127649  22.770  24.700   7.500
 1153BOLB   PO127650  22.600  25.020   7.250
 1153BOLB   GL127651  22.770  25.260   6.940
 1153BOLB   GL227652  22.900  25.510   6.980
 1153BOLB   C1A27653  23.010  25.320   6.560
 1153BOLB   C2A27654  23.450  25.360   6.430
 1153BOLB   C3A27655  23.680  25.760   6.330
 1153BOLB   C4A27656  23.990  26.150   6.200
 1153BOLB   C1B27657  23.180  25.740   6.720
 1153BOLB   C2B27658  23.100  25.970   6.390
 1153BOLB   C3B27659  22.980  26.070   6.000
 1153BOLB   C4B27660  22.790  26.330   5.620
 1153BOLB   NC227661  25.700  27.560   4.710
 1153BOLB   PO227662  25.570  27.110   4.750
 1153BOLB   GL327663  25.270  27.120   4.990
 1153BOLB   GL427664  24.980  27.330   5.060
 1153BOLB   C1C27665  24.950  26.780   5.100
 1153BOLB   C2C27666  24.540  26.690   5.270
 1153BOLB   C3C27667  24.370  26.550   5.570
 1153BOLB   C4C27668  24.320  26.160   5.890
 1153BOLB   C1D27669  25.120  27.210   5.520
 1153BOLB   C2D27670  25.050  27.130   5.910
 1153BOLB   C3D27671  25.190  26.810   6.240
 1153BOLB   C4D27672  25.040  26.340   6.380
 1154BOLB   NC127673  13.800  23.340   6.270
 1154BOLB   PO127674  13.730  22.940   6.010
 1154BOLB   GL127675  13.300  23.050   5.920
 1154BOLB   GL227676  13.150  23.080   6.140
 1154BOLB   C1A27677  12.990  23.110   5.550
 1154BOLB   C2A27678  13.060  23.190   5.200
 1154BOLB   C3A27679  13.130  23.370   4.800
 1154BOLB   C4A27680  13.110  23.230   4.500
 1154BOLB   C1B27681  12.880  23.480   5.900
 1154BOLB   C2B27682  12.510  23.450   5.660
 1154BOLB   C3B27683  12.070  23.610   5.540
 1154BOLB   C4B27684  11.830  23.990   5.730
 1154BOLB   NC227685  13.240  23.620   2.160
 1154BOLB   PO227686  13.490  23.960   2.340
 1154BOLB   GL327687  13.300  23.830   2.680
 1154BOLB   GL427688  13.240  23.470   2.620
 1154BOLB   C1C27689  13.500  23.430   3.030
 1154BOLB   C2C27690  13.310  23.280   3.320
 1154BOLB   C3C27691  13.450  23.310   3.660
 1154BOLB   C4C27692  13.220  23.210   3.970
 1154BOLB   C1D27693  13.000  23.440   2.940
 1154BOLB   C2D27694  12.670  23.330   3.250
 1154BOLB   C3D27695  12.400  23.300   3.680
 1154BOLB   C4D27696  11.980  23.280   3.800
 1155BOLB   NC127697  17.860  28.440   8.960
 1155BOLB   PO127698  18.280  28.730   8.940
 1155BOLB   GL127699  18.280  28.900   8.570
 1155BOLB   GL227700  18.080  29.150   8.500
 1155BOLB   C1A27701  18.550  29.300   8.330
 1155BOLB   C2A27702  18.790  29.230   8.140
 1155BOLB   C3A27703  19.090  29.280   7.750
 1155BOLB   C4A27704  19.300  29.620   7.540
 1155BOLB   C1B27705  18.070  29.480   8.240
 1155BOLB   C2B27706  18.100  29.880   7.960
 1155BOLB   C3B27707  17.970  30.260   7.850
 1155BOLB   C4B27708  18.140  30.520   7.570
 1155BOLB   NC227709  18.620  31.850   6.740
 1155BOLB   PO227710  18.740  31.530   6.420
 1155BOLB   GL327711  18.740  31.370   6.860
 1155BOLB   GL427712  18.380  31.470   7.010
 1155BOLB   C1C27713  18.900  30.950   7.210
 1155BOLB   C2C27714  18.950  30.600   7.060
 1155BOLB   C3C27715  19.210  30.240   6.870
 1155BOLB   C4C27716  19.310  29.900   7.100
 1155BOLB   C1D27717  18.460  31.170   7.380
 1155BOLB   C2D27718  18.440  30.940   7.700
 1155BOLB   C3D27719  18.540  30.670   7.970
 1155BOLB   C4D27720  18.510  30.180   7.830
 1156BOLB   NC127721  18.930  17.040   5.950
 1156BOLB   PO127722  18.530  16.880   5.730
 1156BOLB   GL127723  18.500  16.470   5.570
 1156BOLB   GL227724  18.410  16.520   5.250
 1156BOLB   C1A27725  18.800  16.200   5.370
 1156BOLB   C2A27726  19.120  16.220   5.170
 1156BOLB   C3A27727  19.420  16.440   4.850
 1156BOLB   C4A27728  19.510  16.320   4.530
 1156BOLB   C1B27729  18.690  16.360   4.930
 1156BOLB   C2B27730  18.920  16.190   4.590
 1156BOLB   C3B27731  19.160  15.960   4.360
 1156BOLB   C4B27732  19.500  15.800   4.300
 1156BOLB   NC227733  19.830  16.120   2.060
 1156BOLB   PO227734  20.210  15.750   2.280
 1156BOLB   GL327735  20.030  16.060   2.580
 1156BOLB   GL427736  20.010  16.450   2.540
 1156BOLB   C1C27737  19.920  16.130   2.990
 1156BOLB   C2C27738  19.950  16.220   3.410
 1156BOLB   C3C27739  19.850  16.210   3.750
 1156BOLB   C4C27740  19.720  16.330   4.110
 1156BOLB   C1D27741  20.300  16.430   2.740
 1156BOLB   C2D27742  20.270  16.500   3.130
 1156BOLB   C3D27743  20.240  16.650   3.520
 1156BOLB   C4D27744  20.590  16.850   3.780
 1157BOLB   NC127745   9.920  21.020   9.320
 1157BOLB   PO127746   9.730  20.620   9.360
 1157BOLB   GL127747   9.470  20.500   9.020
 1157BOLB   GL227748   9.440  20.660   8.690
 1157BOLB   C1A27749   9.060  20.410   8.910
 1157BOLB   C2A27750   8.720  20.350   8.570
 1157BOLB   C3A27751   8.560  20.650   8.370
 1157BOLB   C4A27752   8.390  20.920   8.170
 1157BOLB   C1B27753   9.050  20.850   8.530
 1157BOLB   C2B27754   8.640  21.100   8.570
 1157BOLB   C3B27755   8.190  21.280   8.470
 1157BOLB   C4B27756   8.040  21.570   8.630
 1157BOLB   NC227757   6.630  22.520   7.030
 1157BOLB   PO227758   7.020  22.600   6.820
 1157BOLB   GL327759   7.400  22.400   7.030
 1157BOLB   GL427760   7.150  22.210   7.170
 1157BOLB   C1C27761   7.720  22.070   7.150
 1157BOLB   C2C27762   7.670  21.640   7.310
 1157BOLB   C3C27763   7.740  21.300   7.610
 1157BOLB   C4C27764   8.070  21.180   7.900
 1157BOLB   C1D27765   7.410  22.360   7.520
 1157BOLB   C2D27766   7.720  22.530   7.430
 1157BOLB   C3D27767   8.020  22.510   7.140
 1157BOLB   C4D27768   8.410  22.360   7.000
 1158BOLB   NC127769  25.800  23.500  12.430
 1158BOLB   PO127770  25.990  23.590  12.020
 1158BOLB   GL127771  26.390  23.880  12.030
 1158BOLB   GL227772  26.420  23.860  11.750
 1158BOLB   C1A27773  26.770  24.040  12.070
 1158BOLB   C2A27774  27.120  24.330  12.120
 1158BOLB   C3A27775  27.360  24.580  11.840
 1158BOLB   C4A27776  27.640  24.870  11.590
 1158BOLB   C1B27777  26.780  23.630  11.730
 1158BOLB   C2B27778  27.160  23.520  11.790
 1158BOLB   C3B27779  27.560  23.500  11.930
 1158BOLB   C4B27780  27.930  23.680  12.170
 1158BOLB   NC227781  30.130  24.840  11.520
 1158BOLB   PO227782  30.100  25.300  11.450
 1158BOLB   GL327783  29.730  25.150  11.250
 1158BOLB   GL427784  29.580  25.080  11.420
 1158BOLB   C1C27785  29.250  25.130  11.060
 1158BOLB   C2C27786  28.820  25.020  11.110
 1158BOLB   C3C27787  28.430  24.980  11.280
 1158BOLB   C4C27788  27.920  25.030  11.330
 1158BOLB   C1D27789  29.130  25.120  11.570
 1158BOLB   C2D27790  28.760  25.240  11.750
 1158BOLB   C3D27791  28.310  25.330  11.620
 1158BOLB   C4D27792  27.930  25.300  11.810
 1159BOLB   NC127793  20.850  23.570   6.100
 1159BOLB   PO127794  21.130  23.250   6.200
 1159BOLB   GL127795  21.260  23.420   5.790
 1159BOLB   GL227796  21.250  23.720   5.680
 1159BOLB   C1A27797  21.780  23.540   5.580
 1159BOLB   C2A27798  21.930  23.560   5.130
 1159BOLB   C3A27799  22.190  23.520   4.770
 1159BOLB   C4A27800  22.130  23.670   4.330
 1159BOLB   C1B27801  21.370  23.850   5.290
 1159BOLB   C2B27802  21.310  23.890   4.780
 1159BOLB   C3B27803  21.180  23.870   4.420
 1159BOLB   C4B27804  21.120  23.780   3.960
 1159BOLB   NC227805  22.590  23.910   1.760
 1159BOLB   PO227806  22.300  23.900   2.030
 1159BOLB   GL327807  22.310  23.770   2.340
 1159BOLB   GL427808  22.460  23.310   2.350
 1159BOLB   C1C27809  22.290  23.760   2.760
 1159BOLB   C2C27810  22.110  23.910   3.210
 1159BOLB   C3C27811  22.070  23.780   3.660
 1159BOLB   C4C27812  22.260  23.720   3.980
 1159BOLB   C1D27813  22.410  23.280   2.820
 1159BOLB   C2D27814  22.400  23.450   3.260
 1159BOLB   C3D27815  22.390  23.330   3.690
 1159BOLB   C4D27816  22.400  23.270   4.150
 1160BOLB   NC127817  19.840  15.440   1.950
 1160BOLB   PO127818  19.620  15.720   1.840
 1160BOLB   GL127819  19.310  16.010   2.010
 1160BOLB   GL227820  19.030  15.890   1.960
 1160BOLB   C1A27821  19.120  16.290   2.360
 1160BOLB   C2A27822  19.190  16.510   2.550
 1160BOLB   C3A27823  19.220  16.560   2.980
 1160BOLB   C4A27824  19.160  16.730   3.380
 1160BOLB   C1B27825  18.930  16.350   1.850
 1160BOLB   C2B27826  18.650  16.520   2.230
 1160BOLB   C3B27827  18.750  16.460   2.710
 1160BOLB   C4B27828  18.740  16.580   3.160
 1160BOLB   NC227829  18.300  17.180   5.310
 1160BOLB   PO227830  17.920  16.920   5.290
 1160BOLB   GL327831  17.910  16.980   4.850
 1160BOLB   GL427832  18.000  17.290   4.740
 1160BOLB   C1C27833  18.220  16.630   4.690
 1160BOLB   C2C27834  18.460  16.550   4.410
 1160BOLB   C3C27835  18.620  16.500   4.030
 1160BOLB   C4C27836  18.910  16.670   3.720
 1160BOLB   C1D27837  18.070  17.080   4.370
 1160BOLB   C2D27838  18.270  16.840   3.980
 1160BOLB   C3D27839  18.420  16.610   3.590
 1160BOLB   C4D27840  18.350  16.210   3.280
 1161BOLB   NC127841  18.390  23.450   5.190
 1161BOLB   PO127842  18.540  23.840   5.230
 1161BOLB   GL127843  18.450  23.770   4.830
 1161BOLB   GL227844  18.770  23.730   4.800
 1161BOLB   C1A27845  18.430  24.190   4.510
 1161BOLB   C2A27846  18.200  24.590   4.520
 1161BOLB   C3A27847  18.190  24.900   4.480
 1161BOLB   C4A27848  18.290  25.250   4.280
 1161BOLB   C1B27849  19.190  23.930   4.550
 1161BOLB   C2B27850  19.370  23.990   4.170
 1161BOLB   C3B27851  19.630  23.880   3.920
 1161BOLB   C4B27852  19.740  23.410   3.770
 1161BOLB   NC227853  19.180  26.720   2.430
 1161BOLB   PO227854  19.590  26.710   2.650
 1161BOLB   GL327855  19.370  26.370   2.810
 1161BOLB   GL427856  19.500  26.480   3.110
 1161BOLB   C1C27857  19.280  26.060   3.240
 1161BOLB   C2C27858  18.850  26.030   3.540
 1161BOLB   C3C27859  18.530  25.900   3.880
 1161BOLB   C4C27860  18.490  25.520   3.940
 1161BOLB   C1D27861  19.760  26.220   3.190
 1161BOLB   C2D27862  19.650  25.930   3.600
 1161BOLB   C3D27863  19.320  25.860   3.890
 1161BOLB   C4D27864  19.110  25.970   4.240
 1162BOLB   NC127865  20.190  27.680   8.480
 1162BOLB   PO127866  19.870  27.950   8.340
 1162BOLB   GL127867  19.990  28.270   8.000
 1162BOLB   GL227868  20.210  28.480   8.050
 1162BOLB   C1A27869  20.250  28.310   7.600
 1162BOLB   C2A27870  20.160  28.590   7.210
 1162BOLB   C3A27871  20.280  28.790   6.870
 1162BOLB   C4A27872  20.460  29.160   6.780
 1162BOLB   C1B27873  20.300  28.820   7.760
 1162BOLB   C2B27874  20.220  29.140   7.510
 1162BOLB   C3B27875  20.030  29.240   7.130
 1162BOLB   C4B27876  19.810  29.070   6.810
 1162BOLB   NC227877  19.920  30.470   5.110
 1162BOLB   PO227878  20.230  30.420   5.390
 1162BOLB   GL327879  20.470  30.400   5.630
 1162BOLB   GL427880  20.490  30.020   5.590
 1162BOLB   C1C27881  20.830  30.450   6.050
 1162BOLB   C2C27882  20.920  30.010   6.250
 1162BOLB   C3C27883  20.680  29.670   6.370
 1162BOLB   C4C27884  20.390  29.500   6.680
 1162BOLB   C1D27885  20.480  29.980   6.020
 1162BOLB   C2D27886  20.410  30.090   6.440
 1162BOLB   C3D27887  20.310  30.020   6.840
 1162BOLB   C4D27888  20.220  29.760   7.130
 1163BOLB   NC127889  15.710  28.850  15.210
 1163BOLB   PO127890  15.760  29.080  15.450
 1163BOLB   GL127891  15.420  29.170  15.510
 1163BOLB   GL227892  15.290  29.030  15.750
 1163BOLB   C1A27893  15.410  29.570  15.730
 1163BOLB   C2A27894  15.510  29.980  15.880
 1163BOLB   C3A27895  15.750  30.320  15.870
 1163BOLB   C4A27896  15.960  30.710  16.060
 1163BOLB   C1B27897  15.020  28.820  16.050
 1163BOLB   C2B27898  14.670  28.990  16.300
 1163BOLB   C3B27899  14.490  29.330  16.540
 1163BOLB   C4B27900  14.330  29.310  16.980
 1163BOLB   NC227901  15.060  32.940  15.650
 1163BOLB   PO227902  15.000  32.990  16.100
 1163BOLB   GL327903  15.240  32.640  16.020
 1163BOLB   GL427904  15.280  32.520  15.780
 1163BOLB   C1C27905  15.540  32.250  16.160
 1163BOLB   C2C27906  15.580  31.880  16.260
 1163BOLB   C3C27907  15.850  31.560  15.980
 1163BOLB   C4C27908  15.930  31.160  15.970
 1163BOLB   C1D27909  15.260  32.010  15.800
 1163BOLB   C2D27910  15.420  31.600  15.730
 1163BOLB   C3D27911  15.530  31.200  15.570
 1163BOLB   C4D27912  15.610  30.770  15.410
 1164BOLB   NC127913  18.490  25.890   6.570
 1164BOLB   PO127914  18.830  26.000   6.880
 1164BOLB   GL127915  18.940  26.220   6.480
 1164BOLB   GL227916  19.190  26.290   6.360
 1164BOLB   C1A27917  18.750  26.640   6.310
 1164BOLB   C2A27918  18.680  26.820   5.900
 1164BOLB   C3A27919  18.530  26.990   5.430
 1164BOLB   C4A27920  18.580  27.100   5.000
 1164BOLB   C1B27921  19.120  26.340   5.960
 1164BOLB   C2B27922  19.010  26.580   5.680
 1164BOLB   C3B27923  18.670  26.480   5.420
 1164BOLB   C4B27924  18.660  26.590   4.970
 1164BOLB   NC227925  19.690  28.170   2.920
 1164BOLB   PO227926  19.980  28.160   3.340
 1164BOLB   GL327927  19.700  27.970   3.600
 1164BOLB   GL427928  19.930  28.210   3.850
 1164BOLB   C1C27929  19.660  27.850   4.020
 1164BOLB   C2C27930  19.440  27.680   4.320
 1164BOLB   C3C27931  19.200  27.650   4.660
 1164BOLB   C4C27932  18.890  27.340   4.780
 1164BOLB   C1D27933  20.000  28.130   4.290
 1164BOLB   C2D27934  20.330  28.130   4.720
 1164BOLB   C3D27935  20.230  28.150   5.190
 1164BOLB   C4D27936  20.180  28.230   5.610
 1165BOLB   NC127937  14.360  15.430   6.440
 1165BOLB   PO127938  13.870  15.410   6.420
 1165BOLB   GL127939  13.620  15.210   6.190
 1165BOLB   GL227940  13.630  15.490   5.960
 1165BOLB   C1A27941  13.470  14.790   6.250
 1165BOLB   C2A27942  13.230  14.520   6.350
 1165BOLB   C3A27943  13.230  14.010   6.400
 1165BOLB   C4A27944  13.010  13.640   6.430
 1165BOLB   C1B27945  13.250  15.450   5.680
 1165BOLB   C2B27946  13.010  15.300   5.350
 1165BOLB   C3B27947  12.670  15.190   5.050
 1165BOLB   C4B27948  12.280  15.160   5.010
 1165BOLB   NC227949  11.210  12.410   6.340
 1165BOLB   PO227950  11.460  12.780   6.200
 1165BOLB   GL327951  11.740  12.840   5.830
 1165BOLB   GL427952  11.830  12.670   5.620
 1165BOLB   C1C27953  12.120  13.070   5.830
 1165BOLB   C2C27954  12.430  13.060   6.090
 1165BOLB   C3C27955  12.480  13.240   6.430
 1165BOLB   C4C27956  12.700  13.460   6.590
 1165BOLB   C1D27957  12.050  12.800   5.230
 1165BOLB   C2D27958  12.370  13.180   5.210
 1165BOLB   C3D27959  12.410  13.400   5.540
 1165BOLB   C4D27960  12.550  13.830   5.490
 1166BOLB   NC127961  15.870  18.740   4.810
 1166BOLB   PO127962  15.530  18.400   4.920
 1166BOLB   GL127963  15.450  18.400   4.480
 1166BOLB   GL227964  15.750  18.500   4.330
 1166BOLB   C1A27965  15.330  18.490   4.000
 1166BOLB   C2A27966  15.360  18.680   3.610
 1166BOLB   C3A27967  15.430  18.620   3.220
 1166BOLB   C4A27968  15.250  18.430   2.880
 1166BOLB   C1B27969  15.920  18.420   3.900
 1166BOLB   C2B27970  16.060  18.300   3.430
 1166BOLB   C3B27971  15.960  17.980   3.090
 1166BOLB   C4B27972  15.820  17.540   2.870
 1166BOLB   NC227973  14.360  17.700   1.080
 1166BOLB   PO227974  14.640  17.260   1.130
 1166BOLB   GL327975  14.800  17.550   1.390
 1166BOLB   GL427976  14.560  17.830   1.600
 1166BOLB   C1C27977  15.050  17.530   1.800
 1166BOLB   C2C27978  15.310  17.560   2.150
 1166BOLB   C3C27979  15.500  17.800   2.460
 1166BOLB   C4C27980  15.350  18.090   2.640
 1166BOLB   C1D27981  14.770  17.940   1.970
 1166BOLB   C2D27982  14.910  17.750   2.370
 1166BOLB   C3D27983  14.970  17.840   2.760
 1166BOLB   C4D27984  14.920  18.070   3.120
 1167BOLB   NC127985   8.690  23.030  12.270
 1167BOLB   PO127986   8.530  22.820  11.830
 1167BOLB   GL127987   8.240  22.890  12.080
 1167BOLB   GL227988   8.130  22.890  12.330
 1167BOLB   C1A27989   7.920  23.240  12.120
 1167BOLB   C2A27990   7.660  23.430  11.780
 1167BOLB   C3A27991   7.490  23.800  11.670
 1167BOLB   C4A27992   7.260  24.190  11.720
 1167BOLB   C1B27993   7.710  22.830  12.470
 1167BOLB   C2B27994   7.280  22.830  12.610
 1167BOLB   C3B27995   7.000  23.060  12.360
 1167BOLB   C4B27996   6.750  22.980  12.090
 1167BOLB   NC227997   5.420  25.780  12.040
 1167BOLB   PO227998   5.440  25.640  11.620
 1167BOLB   GL327999   5.900  25.690  11.770
 1167BOLB   GL428000   6.190  25.560  11.580
 1167BOLB   C1C28001   6.140  25.490  12.030
 1167BOLB   C2C28002   6.510  25.150  12.080
 1167BOLB   C3C28003   6.730  24.830  11.980
 1167BOLB   C4C28004   6.920  24.560  11.800
 1167BOLB   C1D28005   6.630  25.420  11.630
 1167BOLB   C2D28006   6.980  25.340  11.270
 1167BOLB   C3D28007   7.190  25.450  11.010
 1167BOLB   C4D28008   7.620  25.450  11.040
 1168BOLB   NC128009  23.850  27.710  16.860
 1168BOLB   PO128010  24.270  27.670  16.610
 1168BOLB   GL128011  24.430  28.060  16.750
 1168BOLB   GL228012  24.730  27.930  16.730
 1168BOLB   C1A28013  24.740  28.420  16.810
 1168BOLB   C2A28014  25.040  28.580  17.130
 1168BOLB   C3A28015  24.990  28.830  17.530
 1168BOLB   C4A28016  24.910  28.800  17.940
 1168BOLB   C1B28017  25.200  28.170  16.740
 1168BOLB   C2B28018  25.230  28.490  16.720
 1168BOLB   C3B28019  25.060  28.880  16.630
 1168BOLB   C4B28020  25.140  29.330  16.470
 1168BOLB   NC228021  26.140  29.090  20.170
 1168BOLB   PO228022  25.680  28.950  20.230
 1168BOLB   GL328023  25.670  28.720  19.790
 1168BOLB   GL428024  25.390  28.470  19.830
 1168BOLB   C1C28025  25.590  28.690  19.390
 1168BOLB   C2C28026  25.410  28.910  19.050
 1168BOLB   C3C28027  25.090  28.940  18.790
 1168BOLB   C4C28028  24.970  28.980  18.310
 1168BOLB   C1D28029  24.900  28.500  19.820
 1168BOLB   C2D28030  24.720  28.190  19.570
 1168BOLB   C3D28031  24.710  28.030  19.180
 1168BOLB   C4D28032  24.670  28.460  18.940
 1169BOLB   NC128033  19.610  21.030   5.540
 1169BOLB   PO128034  19.970  20.960   5.340
 1169BOLB   GL128035  19.840  21.050   5.030
 1169BOLB   GL228036  19.860  21.420   4.940
 1169BOLB   C1A28037  19.980  21.000   4.520
 1169BOLB   C2A28038  19.910  21.200   4.150
 1169BOLB   C3A28039  19.630  21.160   3.790
 1169BOLB   C4A28040  19.330  21.190   3.530
 1169BOLB   C1B28041  19.590  21.410   4.520
 1169BOLB   C2B28042  19.490  21.520   4.160
 1169BOLB   C3B28043  19.420  21.740   3.710
 1169BOLB   C4B28044  19.490  21.600   3.270
 1169BOLB   NC228045  20.070  20.570   0.940
 1169BOLB   PO228046  20.290  20.950   1.100
 1169BOLB   GL328047  20.150  21.060   1.570
 1169BOLB   GL428048  19.910  21.420   1.620
 1169BOLB   C1C28049  19.980  21.070   2.040
 1169BOLB   C2C28050  19.900  21.090   2.430
 1169BOLB   C3C28051  19.590  20.910   2.720
 1169BOLB   C4C28052  19.440  21.050   3.110
 1169BOLB   C1D28053  19.590  21.600   1.870
 1169BOLB   C2D28054  19.170  21.410   1.970
 1169BOLB   C3D28055  19.080  21.240   2.310
 1169BOLB   C4D28056  19.100  21.080   2.640
 1170BOLB   NC128057  19.300  13.700   8.880
 1170BOLB   PO128058  19.120  13.810   8.470
 1170BOLB   GL128059  19.350  13.560   8.280
 1170BOLB   GL228060  19.430  13.330   8.560
 1170BOLB   C1A28061  19.350  13.330   7.850
 1170BOLB   C2A28062  19.600  13.020   7.680
 1170BOLB   C3A28063  19.760  12.860   7.300
 1170BOLB   C4A28064  20.260  12.830   7.200
 1170BOLB   C1B28065  19.310  12.850   8.660
 1170BOLB   C2B28066  19.310  12.390   8.740
 1170BOLB   C3B28067  19.090  12.070   8.480
 1170BOLB   C4B28068  19.240  11.880   8.150
 1170BOLB   NC228069  21.180  11.860   4.580
 1170BOLB   PO228070  20.930  11.910   5.020
 1170BOLB   GL328071  20.860  12.130   5.380
 1170BOLB   GL428072  20.960  12.440   5.420
 1170BOLB   C1C28073  20.810  12.170   5.810
 1170BOLB   C2C28074  20.760  12.470   6.100
 1170BOLB   C3C28075  20.610  12.720   6.510
 1170BOLB   C4C28076  20.520  12.900   6.830
 1170BOLB   C1D28077  20.840  12.790   5.670
 1170BOLB   C2D28078  20.690  12.980   6.080
 1170BOLB   C3D28079  20.330  13.120   6.400
 1170BOLB   C4D28080  20.440  13.590   6.540
 1171BOLB   NC128081  17.350  27.610  18.320
 1171BOLB   PO128082  17.370  28.000  18.030
 1171BOLB   GL128083  17.420  28.240  18.450
 1171BOLB   GL228084  17.570  28.540  18.620
 1171BOLB   C1A28085  17.200  28.280  18.860
 1171BOLB   C2A28086  17.250  28.450  19.330
 1171BOLB   C3A28087  17.060  28.630  19.680
 1171BOLB   C4A28088  17.190  28.970  19.870
 1171BOLB   C1B28089  17.330  28.800  18.970
 1171BOLB   C2B28090  17.440  28.900  19.310
 1171BOLB   C3B28091  17.740  29.030  19.650
 1171BOLB   C4B28092  17.920  29.300  19.710
 1171BOLB   NC228093  17.500  30.480  22.030
 1171BOLB   PO228094  17.140  30.350  21.800
 1171BOLB   GL328095  17.250  30.030  21.490
 1171BOLB   GL428096  17.210  29.680  21.590
 1171BOLB   C1C28097  17.400  29.960  21.120
 1171BOLB   C2C28098  17.420  29.640  20.800
 1171BOLB   C3C28099  17.440  29.420  20.440
 1171BOLB   C4C28100  17.470  29.080  20.120
 1171BOLB   C1D28101  17.430  29.500  21.250
 1171BOLB   C2D28102  17.330  29.170  20.930
 1171BOLB   C3D28103  17.540  28.930  20.610
 1171BOLB   C4D28104  17.930  28.740  20.430
 1172BOLB   NC128105  21.740  14.340  12.990
 1172BOLB   PO128106  22.100  14.610  13.210
 1172BOLB   GL128107  22.430  14.460  13.100
 1172BOLB   GL228108  22.240  14.210  12.900
 1172BOLB   C1A28109  22.670  14.160  13.290
 1172BOLB   C2A28110  22.910  13.770  13.380
 1172BOLB   C3A28111  23.050  13.440  13.470
 1172BOLB   C4A28112  23.330  13.080  13.630
 1172BOLB   C1B28113  22.510  14.040  12.770
 1172BOLB   C2B28114  22.750  13.740  12.820
 1172BOLB   C3B28115  23.020  13.470  12.660
 1172BOLB   C4B28116  22.900  13.300  12.280
 1172BOLB   NC228117  25.420  12.000  13.560
 1172BOLB   PO228118  25.210  11.880  13.990
 1172BOLB   GL328119  24.950  12.280  14.170
 1172BOLB   GL428120  25.130  12.360  13.960
 1172BOLB   C1C28121  24.550  12.370  14.040
 1172BOLB   C2C28122  24.350  12.480  13.580
 1172BOLB   C3C28123  23.970  12.540  13.390
 1172BOLB   C4C28124  23.560  12.730  13.390
 1172BOLB   C1D28125  25.050  12.560  13.570
 1172BOLB   C2D28126  24.710  12.820  13.490
 1172BOLB   C3D28127  24.280  12.990  13.490
 1172BOLB   C4D28128  23.890  13.080  13.270
 1173BOLB   NC128129  15.790  21.220   5.070
 1173BOLB   PO128130  15.680  20.890   5.040
 1173BOLB   GL128131  15.270  21.050   4.890
 1173BOLB   GL228132  15.070  21.340   4.830
 1173BOLB   C1A28133  14.980  20.950   4.520
 1173BOLB   C2A28134  14.860  21.190   4.150
 1173BOLB   C3A28135  14.480  21.170   3.970
 1173BOLB   C4A28136  14.170  21.150   3.700
 1173BOLB   C1B28137  14.720  21.390   4.640
 1173BOLB   C2B28138  14.310  21.060   4.460
 1173BOLB   C3B28139  13.960  20.870   4.670
 1173BOLB   C4B28140  13.730  20.810   4.950
 1173BOLB   NC228141  13.640  20.780   1.230
 1173BOLB   PO228142  13.810  21.090   1.330
 1173BOLB   GL328143  14.070  21.090   1.700
 1173BOLB   GL428144  14.340  20.890   1.700
 1173BOLB   C1C28145  13.910  21.160   2.110
 1173BOLB   C2C28146  13.850  21.130   2.580
 1173BOLB   C3C28147  13.920  21.150   2.970
 1173BOLB   C4C28148  14.110  21.050   3.310
 1173BOLB   C1D28149  14.350  20.860   2.130
 1173BOLB   C2D28150  14.340  21.100   2.550
 1173BOLB   C3D28151  14.630  21.470   2.670
 1173BOLB   C4D28152  14.870  21.490   3.000
 1174BOLB   NC128153  22.100  19.510   7.820
 1174BOLB   PO128154  22.150  19.190   7.490
 1174BOLB   GL128155  22.630  18.950   7.410
 1174BOLB   GL228156  22.680  19.130   7.370
 1174BOLB   C1A28157  23.000  18.820   7.230
 1174BOLB   C2A28158  23.240  18.970   6.940
 1174BOLB   C3A28159  23.740  18.820   6.840
 1174BOLB   C4A28160  24.130  18.660   6.640
 1174BOLB   C1B28161  23.150  19.280   7.360
 1174BOLB   C2B28162  23.620  19.190   7.200
 1174BOLB   C3B28163  23.950  19.320   6.910
 1174BOLB   C4B28164  24.280  19.580   6.650
 1174BOLB   NC228165  26.680  18.760   5.950
 1174BOLB   PO228166  26.430  19.130   5.640
 1174BOLB   GL328167  25.980  18.900   5.660
 1174BOLB   GL428168  25.630  18.900   5.400
 1174BOLB   C1C28169  25.640  18.850   5.890
 1174BOLB   C2C28170  25.260  18.990   6.160
 1174BOLB   C3C28171  24.810  18.890   6.220
 1174BOLB   C4C28172  24.540  18.700   6.480
 1174BOLB   C1D28173  25.330  19.130   5.570
 1174BOLB   C2D28174  25.050  19.200   5.670
 1174BOLB   C3D28175  24.820  19.300   5.970
 1174BOLB   C4D28176  24.420  19.280   6.150
 1175BOLB   NC128177  19.380  25.150   6.050
 1175BOLB   PO128178  19.680  25.380   6.100
 1175BOLB   GL128179  19.800  25.810   5.890
 1175BOLB   GL228180  20.080  25.990   6.000
 1175BOLB   C1A28181  20.160  25.810   5.520
 1175BOLB   C2A28182  20.350  25.730   5.090
 1175BOLB   C3A28183  20.520  25.880   4.740
 1175BOLB   C4A28184  20.740  25.880   4.390
 1175BOLB   C1B28185  19.930  26.250   5.640
 1175BOLB   C2B28186  19.840  26.580   5.240
 1175BOLB   C3B28187  19.510  26.690   4.910
 1175BOLB   C4B28188  19.390  27.050   4.560
 1175BOLB   NC228189  22.040  26.380   2.360
 1175BOLB   PO228190  22.090  26.640   2.720
 1175BOLB   GL328191  21.760  26.390   3.030
 1175BOLB   GL428192  21.620  26.090   3.050
 1175BOLB   C1C28193  21.780  26.370   3.490
 1175BOLB   C2C28194  21.860  26.110   3.790
 1175BOLB   C3C28195  21.520  25.980   4.010
 1175BOLB   C4C28196  21.140  25.790   4.310
 1175BOLB   C1D28197  21.500  26.000   3.530
 1175BOLB   C2D28198  21.370  25.620   3.720
 1175BOLB   C3D28199  21.670  25.420   4.100
 1175BOLB   C4D28200  21.840  25.380   4.510
 1176BOLB   NC128201  23.750  25.710   9.190
 1176BOLB   PO128202  23.980  26.110   9.170
 1176BOLB   GL128203  24.410  26.230   8.960
 1176BOLB   GL228204  24.630  26.220   9.150
 1176BOLB   C1A28205  24.640  26.380   8.580
 1176BOLB   C2A28206  24.910  26.560   8.300
 1176BOLB   C3A28207  25.370  26.570   8.040
 1176BOLB   C4A28208  25.720  26.470   7.860
 1176BOLB   C1B28209  24.850  26.570   8.970
 1176BOLB   C2B28210  25.140  26.760   8.750
 1176BOLB   C3B28211  25.290  26.970   8.370
 1176BOLB   C4B28212  25.700  26.910   8.190
 1176BOLB   NC228213  27.810  26.240   6.140
 1176BOLB   PO228214  27.890  26.450   6.520
 1176BOLB   GL328215  27.600  26.540   6.820
 1176BOLB   GL428216  27.530  26.390   6.830
 1176BOLB   C1C28217  27.190  26.740   7.010
 1176BOLB   C2C28218  26.770  26.740   7.150
 1176BOLB   C3C28219  26.320  26.610   7.250
 1176BOLB   C4C28220  25.920  26.530   7.430
 1176BOLB   C1D28221  27.470  26.100   7.160
 1176BOLB   C2D28222  27.200  26.200   7.550
 1176BOLB   C3D28223  27.000  26.520   7.660
 1176BOLB   C4D28224  26.620  26.690   7.630
 1177BOLB   NC128225  20.490  17.850   6.350
 1177BOLB   PO128226  20.240  17.720   6.090
 1177BOLB   GL128227  20.450  17.310   6.200
 1177BOLB   GL228228  20.340  16.960   6.220
 1177BOLB   C1A28229  20.680  17.040   5.900
 1177BOLB   C2A28230  21.100  16.840   5.820
 1177BOLB   C3A28231  21.420  16.790   5.570
 1177BOLB   C4A28232  21.590  16.440   5.490
 1177BOLB   C1B28233  20.260  16.670   5.960
 1177BOLB   C2B28234  20.480  16.650   5.640
 1177BOLB   C3B28235  20.460  16.760   5.240
 1177BOLB   C4B28236  20.380  16.660   4.880
 1177BOLB   NC228237  22.380  14.910   3.250
 1177BOLB   PO228238  22.720  15.220   3.510
 1177BOLB   GL328239  22.550  15.390   3.880
 1177BOLB   GL428240  22.610  15.170   4.090
 1177BOLB   C1C28241  22.420  15.730   4.200
 1177BOLB   C2C28242  22.090  15.870   4.490
 1177BOLB   C3C28243  21.770  15.950   4.860
 1177BOLB   C4C28244  21.840  16.270   5.120
 1177BOLB   C1D28245  22.500  15.280   4.500
 1177BOLB   C2D28246  22.190  15.550   4.880
 1177BOLB   C3D28247  22.180  15.830   5.190
 1177BOLB   C4D28248  21.960  16.000   5.550
 1178BOLB   NC128249   8.550  23.800  11.660
 1178BOLB   PO128250   8.840  23.980  11.930
 1178BOLB   GL128251   8.450  24.220  11.990
 1178BOLB   GL228252   8.240  23.830  12.090
 1178BOLB   C1A28253   8.180  24.540  12.080
 1178BOLB   C2A28254   8.290  24.870  12.190
 1178BOLB   C3A28255   8.180  25.300  12.250
 1178BOLB   C4A28256   7.820  25.670  12.280
 1178BOLB   C1B28257   8.000  24.070  11.780
 1178BOLB   C2B28258   7.760  24.400  11.660
 1178BOLB   C3B28259   7.410  24.720  11.570
 1178BOLB   C4B28260   7.140  25.030  11.640
 1178BOLB   NC228261   5.890  27.100  11.540
 1178BOLB   PO228262   6.140  27.220  11.830
 1178BOLB   GL328263   6.450  26.820  11.930
 1178BOLB   GL428264   6.580  26.640  11.600
 1178BOLB   C1C28265   6.790  26.680  12.170
 1178BOLB   C2C28266   7.040  26.450  12.440
 1178BOLB   C3C28267   7.130  26.200  12.660
 1178BOLB   C4C28268   7.480  26.040  12.510
 1178BOLB   C1D28269   6.740  26.300  11.870
 1178BOLB   C2D28270   7.020  26.150  12.080
 1178BOLB   C3D28271   7.230  25.790  12.140
 1178BOLB   C4D28272   7.350  25.500  12.460
 1179BOLB   NC128273  10.100  21.700   9.930
 1179BOLB   PO128274   9.900  21.440   9.630
 1179BOLB   GL128275   9.440  21.400   9.600
 1179BOLB   GL228276   9.390  21.090   9.280
 1179BOLB   C1A28277   9.040  21.360   9.490
 1179BOLB   C2A28278   8.810  21.610   9.260
 1179BOLB   C3A28279   8.750  21.560   8.830
 1179BOLB   C4A28280   8.530  21.590   8.500
 1179BOLB   C1B28281   9.150  20.800   9.480
 1179BOLB   C2B28282   8.910  20.610   9.850
 1179BOLB   C3B28283   8.420  20.600   9.680
 1179BOLB   C4B28284   8.080  20.280   9.930
 1179BOLB   NC228285   6.060  20.940   7.580
 1179BOLB   PO228286   6.310  21.200   7.370
 1179BOLB   GL328287   6.770  21.300   7.480
 1179BOLB   GL428288   6.930  21.300   7.270
 1179BOLB   C1C28289   7.110  21.250   7.750
 1179BOLB   C2C28290   7.360  21.510   8.030
 1179BOLB   C3C28291   7.830  21.560   8.110
 1179BOLB   C4C28292   8.290  21.720   8.160
 1179BOLB   C1D28293   7.370  21.130   7.340
 1179BOLB   C2D28294   7.650  20.780   7.460
 1179BOLB   C3D28295   7.890  20.580   7.680
 1179BOLB   C4D28296   7.810  20.430   8.040
 1180BOLB   NC128297  21.070  23.930   6.700
 1180BOLB   PO128298  20.930  24.140   6.290
 1180BOLB   GL128299  21.120  24.340   5.900
 1180BOLB   GL228300  21.000  24.200   5.600
 1180BOLB   C1A28301  21.320  24.600   5.540
 1180BOLB   C2A28302  21.290  24.760   5.190
 1180BOLB   C3A28303  21.410  24.810   4.830
 1180BOLB   C4A28304  21.540  24.880   4.500
 1180BOLB   C1B28305  21.060  24.300   5.250
 1180BOLB   C2B28306  21.080  24.340   4.800
 1180BOLB   C3B28307  21.270  24.380   4.360
 1180BOLB   C4B28308  21.350  24.290   4.010
 1180BOLB   NC228309  22.540  25.300   2.540
 1180BOLB   PO228310  22.880  25.060   2.520
 1180BOLB   GL328311  22.820  24.900   2.940
 1180BOLB   GL428312  23.060  25.030   3.140
 1180BOLB   C1C28313  22.510  25.020   3.300
 1180BOLB   C2C28314  22.100  25.100   3.400
 1180BOLB   C3C28315  21.920  25.040   3.790
 1180BOLB   C4C28316  21.820  24.890   4.170
 1180BOLB   C1D28317  22.910  25.050   3.560
 1180BOLB   C2D28318  22.940  25.090   3.900
 1180BOLB   C3D28319  22.910  25.190   4.330
 1180BOLB   C4D28320  22.970  24.930   4.770
 1181BOLB   NC128321  19.700  29.300   9.800
 1181BOLB   PO128322  19.300  29.420   9.870
 1181BOLB   GL128323  19.120  29.780   9.780
 1181BOLB   GL228324  18.820  30.030   9.680
 1181BOLB   C1A28325  19.310  30.220   9.590
 1181BOLB   C2A28326  19.390  30.600   9.380
 1181BOLB   C3A28327  19.460  31.020   9.490
 1181BOLB   C4A28328  19.590  31.390   9.240
 1181BOLB   C1B28329  18.860  30.360   9.440
 1181BOLB   C2B28330  18.970  30.830   9.250
 1181BOLB   C3B28331  19.110  31.200   9.180
 1181BOLB   C4B28332  19.220  31.550   9.480
 1181BOLB   NC228333  20.790  33.830   9.300
 1181BOLB   PO228334  20.530  33.530   8.990
 1181BOLB   GL328335  20.480  33.070   9.130
 1181BOLB   GL428336  20.580  32.790   9.120
 1181BOLB   C1C28337  20.150  32.790   9.330
 1181BOLB   C2C28338  19.830  32.520   9.280
 1181BOLB   C3C28339  19.760  32.190   9.150
 1181BOLB   C4C28340  19.570  31.780   9.090
 1181BOLB   C1D28341  20.820  32.420   9.310
 1181BOLB   C2D28342  20.530  32.070   9.530
 1181BOLB   C3D28343  20.510  31.820   9.820
 1181BOLB   C4D28344  20.650  31.840  10.310
 1182BOLB   NC128345  20.260  19.520   0.680
 1182BOLB   PO128346  20.170  19.620   1.000
 1182BOLB   GL128347  20.130  19.770   1.440
 1182BOLB   GL228348  20.190  19.620   1.790
 1182BOLB   C1A28349  20.160  20.120   1.860
 1182BOLB   C2A28350  20.070  20.340   2.310
 1182BOLB   C3A28351  19.860  20.380   2.690
 1182BOLB   C4A28352  19.570  20.470   2.990
 1182BOLB   C1B28353  20.020  19.760   2.160
 1182BOLB   C2B28354  20.020  19.880   2.470
 1182BOLB   C3B28355  20.340  19.780   2.850
 1182BOLB   C4B28356  20.560  19.920   3.150
 1182BOLB   NC228357  18.920  19.690   5.720
 1182BOLB   PO228358  19.000  19.810   5.290
 1182BOLB   GL328359  19.300  19.840   4.900
 1182BOLB   GL428360  19.130  19.630   4.660
 1182BOLB   C1C28361  19.330  20.040   4.500
 1182BOLB   C2C28362  19.240  20.270   4.050
 1182BOLB   C3C28363  19.140  20.270   3.520
 1182BOLB   C4C28364  19.160  20.450   3.190
 1182BOLB   C1D28365  19.120  19.420   4.330
 1182BOLB   C2D28366  19.300  19.290   3.970
 1182BOLB   C3D28367  19.350  19.170   3.590
 1182BOLB   C4D28368  19.520  18.880   3.310
 1183BOLB   NC128369  18.650  13.260  10.260
 1183BOLB   PO128370  19.070  13.380  10.250
 1183BOLB   GL128371  19.240  13.030  10.130
 1183BOLB   GL228372  19.470  12.960  10.440
 1183BOLB   C1A28373  19.380  12.660   9.980
 1183BOLB   C2A28374  19.370  12.300   9.940
 1183BOLB   C3A28375  19.490  11.940   9.910
 1183BOLB   C4A28376  19.540  11.460   9.710
 1183BOLB   C1B28377  19.800  12.800  10.270
 1183BOLB   C2B28378  20.170  12.530  10.160
 1183BOLB   C3B28379  20.040  12.030  10.080
 1183BOLB   C4B28380  20.230  11.620  10.280
 1183BOLB   NC228381  20.590   9.450  10.130
 1183BOLB   PO228382  20.220   9.230  10.190
 1183BOLB   GL328383  20.130   9.690  10.130
 1183BOLB   GL428384  20.120   9.880  10.500
 1183BOLB   C1C28385  20.120   9.960   9.780
 1183BOLB   C2C28386  19.930  10.270   9.730
 1183BOLB   C3C28387  19.660  10.600   9.690
 1183BOLB   C4C28388  19.580  11.020   9.810
 1183BOLB   C1D28389  19.810  10.230  10.620
 1183BOLB   C2D28390  19.640  10.470  10.430
 1183BOLB   C3D28391  19.440  10.730  10.130
 1183BOLB   C4D28392  19.130  11.000   9.980
 1184BOLB   NC128393  25.680  22.590  10.510
 1184BOLB   PO128394  25.990  22.570  10.860
 1184BOLB   GL128395  26.400  22.560  10.500
 1184BOLB   GL228396  26.210  22.640  10.320
 1184BOLB   C1A28397  26.840  22.520  10.410
 1184BOLB   C2A28398  27.010  22.240  10.150
 1184BOLB   C3A28399  27.090  22.150   9.760
 1184BOLB   C4A28400  27.440  22.030   9.740
 1184BOLB   C1B28401  26.350  22.290  10.130
 1184BOLB   C2B28402  26.650  21.960   9.940
 1184BOLB   C3B28403  26.720  21.630   9.800
 1184BOLB   C4B28404  26.400  21.350   9.690
 1184BOLB   NC228405  29.810  22.070   9.930
 1184BOLB   PO228406  29.550  22.380  10.020
 1184BOLB   GL328407  29.270  22.180  10.240
 1184BOLB   GL428408  29.080  22.260   9.960
 1184BOLB   C1C28409  28.800  22.250  10.350
 1184BOLB   C2C28410  28.470  22.010  10.210
 1184BOLB   C3C28411  28.220  21.970   9.960
 1184BOLB   C4C28412  27.840  21.900   9.700
 1184BOLB   C1D28413  28.730  22.160   9.790
 1184BOLB   C2D28414  28.680  21.890   9.640
 1184BOLB   C3D28415  28.350  21.730   9.440
 1184BOLB   C4D28416  28.040  21.460   9.460
 1185BOLB   NC128417  21.650  21.580   6.760
 1185BOLB   PO128418  22.030  21.470   6.550
 1185BOLB   GL128419  22.130  21.540   6.200
 1185BOLB   GL228420  22.270  21.770   6.080
 1185BOLB   C1A28421  22.110  21.430   5.710
 1185BOLB   C2A28422  22.080  21.290   5.330
 1185BOLB   C3A28423  22.050  21.340   4.920
 1185BOLB   C4A28424  22.080  21.220   4.490
 1185BOLB   C1B28425  22.550  21.600   5.790
 1185BOLB   C2B28426  22.960  21.540   5.560
 1185BOLB   C3B28427  23.090  21.920   5.360
 1185BOLB   C4B28428  23.350  22.180   5.460
 1185BOLB   NC228429  22.640  21.360   1.650
 1185BOLB   PO228430  22.340  21.310   2.060
 1185BOLB   GL328431  22.310  21.210   2.500
 1185BOLB   GL428432  22.450  20.870   2.650
 1185BOLB   C1C28433  22.010  21.330   2.890
 1185BOLB   C2C28434  21.990  21.460   3.250
 1185BOLB   C3C28435  22.210  21.390   3.660
 1185BOLB   C4C28436  22.130  21.430   4.080
 1185BOLB   C1D28437  22.810  21.270   2.630
 1185BOLB   C2D28438  22.790  21.640   2.670
 1185BOLB   C3D28439  22.670  21.930   2.890
 1185BOLB   C4D28440  22.570  22.400   3.120
 1186BOLB   NC128441  21.450  28.460   9.820
 1186BOLB   PO128442  21.370  28.340   9.370
 1186BOLB   GL128443  21.490  28.680   9.050
 1186BOLB   GL228444  21.240  28.860   8.900
 1186BOLB   C1A28445  21.860  28.840   8.730
 1186BOLB   C2A28446  22.030  29.060   8.360
 1186BOLB   C3A28447  22.100  29.420   8.230
 1186BOLB   C4A28448  22.010  29.870   8.320
 1186BOLB   C1B28449  21.110  29.090   8.560
 1186BOLB   C2B28450  21.050  29.250   8.230
 1186BOLB   C3B28451  21.130  29.580   7.860
 1186BOLB   C4B28452  21.020  29.660   7.490
 1186BOLB   NC228453  23.740  31.370   7.140
 1186BOLB   PO228454  23.320  31.440   7.350
 1186BOLB   GL328455  22.990  31.160   7.390
 1186BOLB   GL428456  22.860  31.140   7.160
 1186BOLB   C1C28457  22.630  30.940   7.610
 1186BOLB   C2C28458  22.310  30.850   7.820
 1186BOLB   C3C28459  21.990  30.670   7.990
 1186BOLB   C4C28460  21.960  30.340   8.220
 1186BOLB   C1D28461  22.580  31.510   7.320
 1186BOLB   C2D28462  22.370  31.410   7.770
 1186BOLB   C3D28463  22.190  31.560   8.200
 1186BOLB   C4D28464  22.010  31.870   8.390
 1187BOLB   NC128465  10.540  20.620   9.580
 1187BOLB   PO128466  10.170  20.410   9.380
 1187BOLB   GL128467   9.800  20.140   9.300
 1187BOLB   GL228468   9.680  19.790   9.480
 1187BOLB   C1A28469   9.640  19.760   9.020
 1187BOLB   C2A28470   9.520  19.430   8.790
 1187BOLB   C3A28471   9.370  19.050   8.790
 1187BOLB   C4A28472   9.240  18.550   8.710
 1187BOLB   C1B28473   9.430  19.540   9.380
 1187BOLB   C2B28474   9.050  19.500   9.160
 1187BOLB   C3B28475   8.700  19.640   9.440
 1187BOLB   C4B28476   8.620  19.700   9.970
 1187BOLB   NC228477   7.480  17.710   8.530
 1187BOLB   PO228478   7.520  17.480   8.090
 1187BOLB   GL328479   8.000  17.600   8.250
 1187BOLB   GL428480   8.040  17.900   8.430
 1187BOLB   C1C28481   8.420  17.600   8.280
 1187BOLB   C2C28482   8.780  17.570   8.060
 1187BOLB   C3C28483   9.020  17.910   8.130
 1187BOLB   C4C28484   9.170  18.220   8.450
 1187BOLB   C1D28485   8.420  18.090   8.340
 1187BOLB   C2D28486   8.690  18.040   8.570
 1187BOLB   C3D28487   8.950  17.930   8.860
 1187BOLB   C4D28488   9.240  18.110   9.110
 1188BOLB   NC128489   9.710  19.760  14.830
 1188BOLB   PO128490   9.280  19.790  14.880
 1188BOLB   GL128491   8.940  19.460  14.860
 1188BOLB   GL228492   8.950  19.270  14.590
 1188BOLB   C1A28493   8.510  19.330  14.750
 1188BOLB   C2A28494   8.130  18.920  14.790
 1188BOLB   C3A28495   8.010  18.500  14.960
 1188BOLB   C4A28496   7.890  18.230  15.270
 1188BOLB   C1B28497   9.230  18.980  14.530
 1188BOLB   C2B28498   9.570  18.670  14.350
 1188BOLB   C3B28499   9.750  18.220  14.230
 1188BOLB   C4B28500  10.240  17.980  14.420
 1188BOLB   NC228501   5.830  16.950  15.820
 1188BOLB   PO228502   5.960  17.160  15.390
 1188BOLB   GL328503   6.280  17.310  15.650
 1188BOLB   GL428504   6.300  17.140  15.860
 1188BOLB   C1C28505   6.670  17.470  15.550
 1188BOLB   C2C28506   7.130  17.610  15.460
 1188BOLB   C3C28507   7.570  17.570  15.450
 1188BOLB   C4C28508   7.960  17.860  15.380
 1188BOLB   C1D28509   6.740  17.090  15.860
 1188BOLB   C2D28510   7.200  17.300  15.940
 1188BOLB   C3D28511   7.610  17.200  15.950
 1188BOLB   C4D28512   7.900  17.360  16.210
 1189BOLB   NC128513  25.130  24.870   9.620
 1189BOLB   PO128514  24.740  25.010   9.390
 1189BOLB   GL128515  25.070  25.100   9.200
 1189BOLB   GL228516  24.950  25.010   8.820
 1189BOLB   C1A28517  25.390  25.220   8.900
 1189BOLB   C2A28518  25.630  25.500   8.710
 1189BOLB   C3A28519  25.940  25.560   8.600
 1189BOLB   C4A28520  26.100  25.680   8.160
 1189BOLB   C1B28521  25.020  25.140   8.560
 1189BOLB   C2B28522  24.930  25.580   8.330
 1189BOLB   C3B28523  24.920  25.570   7.910
 1189BOLB   C4B28524  25.040  25.710   7.560
 1189BOLB   NC228525  28.310  26.010   7.720
 1189BOLB   PO228526  28.280  25.830   7.370
 1189BOLB   GL328527  27.890  25.770   7.500
 1189BOLB   GL428528  27.800  26.030   7.600
 1189BOLB   C1C28529  27.430  25.720   7.490
 1189BOLB   C2C28530  27.040  25.770   7.460
 1189BOLB   C3C28531  26.790  25.740   7.720
 1189BOLB   C4C28532  26.410  25.750   7.920
 1189BOLB   C1D28533  27.550  25.960   7.970
 1189BOLB   C2D28534  27.150  25.980   8.010
 1189BOLB   C3D28535  26.710  26.230   7.950
 1189BOLB   C4D28536  26.250  26.280   8.170
 1190BOLB   NC128537  23.000  29.280  13.400
 1190BOLB   PO128538  22.730  29.610  13.600
 1190BOLB   GL128539  22.770  29.880  13.890
 1190BOLB   GL228540  22.700  29.910  14.160
 1190BOLB   C1A28541  22.950  30.330  13.950
 1190BOLB   C2A28542  23.080  30.760  14.150
 1190BOLB   C3A28543  23.410  31.050  14.180
 1190BOLB   C4A28544  23.900  31.100  14.080
 1190BOLB   C1B28545  23.110  30.080  14.370
 1190BOLB   C2B28546  23.440  30.460  14.300
 1190BOLB   C3B28547  23.670  30.670  14.140
 1190BOLB   C4B28548  24.170  30.720  13.970
 1190BOLB   NC228549  25.430  33.030  13.740
 1190BOLB   PO228550  25.100  33.020  13.940
 1190BOLB   GL328551  24.820  32.740  13.890
 1190BOLB   GL428552  24.780  32.820  13.540
 1190BOLB   C1C28553  24.610  32.390  13.990
 1190BOLB   C2C28554  24.470  32.010  13.760
 1190BOLB   C3C28555  24.190  31.720  13.610
 1190BOLB   C4C28556  24.100  31.280  13.720
 1190BOLB   C1D28557  24.690  32.390  13.450
 1190BOLB   C2D28558  24.410  32.170  13.290
 1190BOLB   C3D28559  23.960  32.140  13.220
 1190BOLB   C4D28560  23.810  31.750  12.960
 1191BOLB   NC128561  18.550  29.180   9.000
 1191BOLB   PO128562  18.990  29.020   9.120
 1191BOLB   GL128563  18.890  29.580   8.990
 1191BOLB   GL228564  19.000  29.650   9.310
 1191BOLB   C1A28565  18.520  29.850   9.150
 1191BOLB   C2A28566  18.380  30.140   9.200
 1191BOLB   C3A28567  18.520  30.240   8.810
 1191BOLB   C4A28568  18.720  30.500   8.710
 1191BOLB   C1B28569  19.130  29.990   9.190
 1191BOLB   C2B28570  19.160  30.440   8.970
 1191BOLB   C3B28571  19.240  30.850   8.620
 1191BOLB   C4B28572  19.530  30.950   8.390
 1191BOLB   NC228573  19.230  32.150   7.250
 1191BOLB   PO228574  18.870  32.170   7.050
 1191BOLB   GL328575  18.690  31.810   7.230
 1191BOLB   GL428576  18.950  31.660   7.220
 1191BOLB   C1C28577  18.400  31.650   7.470
 1191BOLB   C2C28578  18.580  31.480   7.840
 1191BOLB   C3C28579  18.730  31.220   8.170
 1191BOLB   C4C28580  18.660  30.870   8.530
 1191BOLB   C1D28581  19.230  31.340   7.320
 1191BOLB   C2D28582  19.430  30.970   7.220
 1191BOLB   C3D28583  19.410  30.570   7.200
 1191BOLB   C4D28584  19.220  30.250   7.420
 1192BOLB   NC128585  14.900  15.000   6.410
 1192BOLB   PO128586  14.600  15.090   6.140
 1192BOLB   GL128587  14.760  14.970   5.820
 1192BOLB   GL228588  14.530  14.810   5.620
 1192BOLB   C1A28589  15.060  14.770   5.550
 1192BOLB   C2A28590  15.040  14.780   5.070
 1192BOLB   C3A28591  15.140  14.910   4.610
 1192BOLB   C4A28592  15.240  14.760   4.180
 1192BOLB   C1B28593  14.260  14.710   5.800
 1192BOLB   C2B28594  13.910  14.580   6.030
 1192BOLB   C3B28595  13.640  14.170   5.930
 1192BOLB   C4B28596  13.660  13.770   5.860
 1192BOLB   NC228597  13.530  14.060   2.750
 1192BOLB   PO228598  13.800  14.340   2.370
 1192BOLB   GL328599  14.020  14.420   2.830
 1192BOLB   GL428600  13.980  14.110   3.030
 1192BOLB   C1C28601  14.370  14.430   3.020
 1192BOLB   C2C28602  14.820  14.610   3.130
 1192BOLB   C3C28603  15.050  14.800   3.380
 1192BOLB   C4C28604  15.120  14.970   3.770
 1192BOLB   C1D28605  14.210  14.040   3.340
 1192BOLB   C2D28606  14.340  14.100   3.810
 1192BOLB   C3D28607  14.600  14.180   4.180
 1192BOLB   C4D28608  14.710  13.970   4.570
 1193BOLB   NC128609  22.980  25.850   8.740
 1193BOLB   PO128610  23.310  25.940   8.360
 1193BOLB   GL128611  23.680  26.150   8.320
 1193BOLB   GL228612  23.920  26.380   8.570
 1193BOLB   C1A28613  23.910  26.420   7.970
 1193BOLB   C2A28614  24.310  26.570   7.890
 1193BOLB   C3A28615  24.800  26.380   7.860
 1193BOLB   C4A28616  25.280  26.210   7.710
 1193BOLB   C1B28617  24.210  26.200   8.260
 1193BOLB   C2B28618  24.570  25.960   8.070
 1193BOLB   C3B28619  25.060  26.050   8.200
 1193BOLB   C4B28620  25.390  25.890   8.400
 1193BOLB   NC228621  26.690  27.110   6.020
 1193BOLB   PO228622  26.630  26.730   5.950
 1193BOLB   GL328623  26.510  26.460   6.180
 1193BOLB   GL428624  26.290  26.130   6.170
 1193BOLB   C1C28625  26.050  26.460   6.460
 1193BOLB   C2C28626  25.640  26.210   6.570
 1193BOLB   C3C28627  25.750  25.900   6.940
 1193BOLB   C4C28628  25.660  26.080   7.360
 1193BOLB   C1D28629  26.600  26.060   6.470
 1193BOLB   C2D28630  26.680  25.850   6.870
 1193BOLB   C3D28631  26.570  25.640   7.250
 1193BOLB   C4D28632  26.710  25.310   7.320
 1194BOLB   NC128633  17.410  29.580  10.820
 1194BOLB   PO128634  17.000  29.410  10.980
 1194BOLB   GL128635  16.900  29.870  10.810
 1194BOLB   GL228636  17.060  29.960  11.020
 1194BOLB   C1A28637  16.760  30.270  10.730
 1194BOLB   C2A28638  16.510  30.600  10.920
 1194BOLB   C3A28639  16.500  30.920  11.200
 1194BOLB   C4A28640  16.410  31.290  11.480
 1194BOLB   C1B28641  17.110  30.370  11.050
 1194BOLB   C2B28642  17.230  30.760  11.350
 1194BOLB   C3B28643  17.290  31.200  11.530
 1194BOLB   C4B28644  17.390  31.530  11.610
 1194BOLB   NC228645  15.600  33.720  11.080
 1194BOLB   PO228646  15.250  33.410  11.190
 1194BOLB   GL328647  15.330  33.070  11.230
 1194BOLB   GL428648  15.090  32.880  11.080
 1194BOLB   C1C28649  15.550  32.610  11.370
 1194BOLB   C2C28650  15.720  32.230  11.290
 1194BOLB   C3C28651  15.990  31.950  11.450
 1194BOLB   C4C28652  16.320  31.710  11.470
 1194BOLB   C1D28653  15.380  32.580  10.820
 1194BOLB   C2D28654  15.640  32.190  10.780
 1194BOLB   C3D28655  15.880  31.970  10.570
 1194BOLB   C4D28656  16.170  31.700  10.710
 1195BOLB   NC128657  14.620  28.750  11.820
 1195BOLB   PO128658  15.090  28.590  11.790
 1195BOLB   GL128659  15.010  29.070  11.660
 1195BOLB   GL228660  14.760  29.290  11.540
 1195BOLB   C1A28661  15.020  29.560  11.870
 1195BOLB   C2A28662  14.880  30.050  11.890
 1195BOLB   C3A28663  14.480  30.280  11.670
 1195BOLB   C4A28664  13.980  30.380  11.610
 1195BOLB   C1B28665  14.650  29.710  11.480
 1195BOLB   C2B28666  14.410  30.020  11.220
 1195BOLB   C3B28667  14.160  30.250  11.110
 1195BOLB   C4B28668  13.870  30.650  11.100
 1195BOLB   NC228669  12.280  31.900  10.660
 1195BOLB   PO228670  12.680  32.160  10.480
 1195BOLB   GL328671  12.810  31.720  10.620
 1195BOLB   GL428672  12.490  31.400  10.580
 1195BOLB   C1C28673  12.840  31.360  11.010
 1195BOLB   C2C28674  13.010  31.150  11.310
 1195BOLB   C3C28675  13.240  30.900  11.670
 1195BOLB   C4C28676  13.490  30.520  11.740
 1195BOLB   C1D28677  12.620  31.030  10.480
 1195BOLB   C2D28678  12.730  30.710  10.340
 1195BOLB   C3D28679  13.080  30.470  10.510
 1195BOLB   C4D28680  13.240  29.970  10.380
 1196BOLB   NC128681  24.300  18.730  12.250
 1196BOLB   PO128682  24.420  18.340  12.550
 1196BOLB   GL128683  24.730  17.910  12.730
 1196BOLB   GL228684  25.070  18.130  12.610
 1196BOLB   C1A28685  24.970  17.700  12.990
 1196BOLB   C2A28686  25.290  17.400  12.890
 1196BOLB   C3A28687  25.700  17.210  13.100
 1196BOLB   C4A28688  25.780  16.960  13.450
 1196BOLB   C1B28689  25.390  17.950  12.800
 1196BOLB   C2B28690  25.790  17.720  12.810
 1196BOLB   C3B28691  26.090  17.480  12.760
 1196BOLB   C4B28692  26.190  17.100  12.970
 1196BOLB   NC228693  28.690  16.870  13.510
 1196BOLB   PO228694  28.250  16.790  13.410
 1196BOLB   GL328695  27.860  16.770  13.440
 1196BOLB   GL428696  27.770  17.050  13.540
 1196BOLB   C1C28697  27.510  16.690  13.380
 1196BOLB   C2C28698  27.050  16.670  13.470
 1196BOLB   C3C28699  26.630  16.840  13.410
 1196BOLB   C4C28700  26.190  16.850  13.530
 1196BOLB   C1D28701  27.710  17.480  13.690
 1196BOLB   C2D28702  27.330  17.440  13.890
 1196BOLB   C3D28703  26.840  17.580  13.870
 1196BOLB   C4D28704  26.510  17.790  13.690
 1197BOLB   NC128705  22.790  16.070  10.760
 1197BOLB   PO128706  23.010  16.040  11.060
 1197BOLB   GL128707  23.090  15.580  10.980
 1197BOLB   GL228708  23.310  15.350  11.280
 1197BOLB   C1A28709  23.010  15.290  10.740
 1197BOLB   C2A28710  22.990  15.030  10.460
 1197BOLB   C3A28711  23.290  14.790  10.390
 1197BOLB   C4A28712  23.550  14.440  10.460
 1197BOLB   C1B28713  23.680  15.150  11.510
 1197BOLB   C2B28714  24.050  15.280  11.480
 1197BOLB   C3B28715  24.470  15.300  11.240
 1197BOLB   C4B28716  24.860  15.150  11.120
 1197BOLB   NC228717  24.780  12.600   9.940
 1197BOLB   PO228718  24.870  12.600   9.550
 1197BOLB   GL328719  24.410  12.780   9.680
 1197BOLB   GL428720  24.180  12.660   9.470
 1197BOLB   C1C28721  24.180  13.130   9.740
 1197BOLB   C2C28722  24.240  13.580   9.760
 1197BOLB   C3C28723  24.130  14.020  10.050
 1197BOLB   C4C28724  23.750  14.140  10.250
 1197BOLB   C1D28725  23.700  12.910   9.460
 1197BOLB   C2D28726  23.400  12.930   9.800
 1197BOLB   C3D28727  23.120  13.040  10.100
 1197BOLB   C4D28728  22.650  12.920  10.020
 1198BOLB   NC128729  23.240  26.850   9.170
 1198BOLB   PO128730  23.300  27.160   8.850
 1198BOLB   GL128731  23.460  27.540   8.770
 1198BOLB   GL228732  23.380  27.870   8.880
 1198BOLB   C1A28733  23.480  27.920   8.330
 1198BOLB   C2A28734  23.440  28.140   8.020
 1198BOLB   C3A28735  23.660  28.440   7.780
 1198BOLB   C4A28736  23.940  28.570   7.880
 1198BOLB   C1B28737  23.870  27.870   8.580
 1198BOLB   C2B28738  24.080  28.280   8.430
 1198BOLB   C3B28739  24.070  28.770   8.370
 1198BOLB   C4B28740  24.400  29.080   8.370
 1198BOLB   NC228741  24.510  30.610   6.290
 1198BOLB   PO228742  24.360  30.400   6.680
 1198BOLB   GL328743  24.310  30.120   7.010
 1198BOLB   GL428744  24.510  30.190   7.150
 1198BOLB   C1C28745  24.150  29.740   7.220
 1198BOLB   C2C28746  24.140  29.500   7.600
 1198BOLB   C3C28747  24.430  29.140   7.800
 1198BOLB   C4C28748  24.360  28.760   7.920
 1198BOLB   C1D28749  24.190  30.270   7.450
 1198BOLB   C2D28750  23.940  30.380   7.760
 1198BOLB   C3D28751  23.750  30.150   8.030
 1198BOLB   C4D28752  23.890  29.970   8.460
 1199BOLB   NC128753  20.040  30.030  12.020
 1199BOLB   PO128754  20.380  30.010  11.700
 1199BOLB   GL128755  20.220  30.430  11.750
 1199BOLB   GL228756  19.920  30.470  11.840
 1199BOLB   C1A28757  20.350  30.900  11.740
 1199BOLB   C2A28758  20.410  31.320  11.780
 1199BOLB   C3A28759  20.870  31.470  11.760
 1199BOLB   C4A28760  21.110  31.820  11.570
 1199BOLB   C1B28761  19.840  30.930  11.780
 1199BOLB   C2B28762  19.720  31.330  11.910
 1199BOLB   C3B28763  19.450  31.600  11.990
 1199BOLB   C4B28764  19.110  31.860  12.060
 1199BOLB   NC228765  21.250  33.710  10.970
 1199BOLB   PO228766  21.110  33.490  10.630
 1199BOLB   GL328767  21.340  33.220  10.440
 1199BOLB   GL428768  21.400  33.120  10.130
 1199BOLB   C1C28769  21.430  32.760  10.540
 1199BOLB   C2C28770  21.550  32.350  10.570
 1199BOLB   C3C28771  21.610  32.100  10.920
 1199BOLB   C4C28772  21.520  31.840  11.350
 1199BOLB   C1D28773  21.030  32.770  10.040
 1199BOLB   C2D28774  20.620  32.880  10.040
 1199BOLB   C3D28775  20.320  32.750  10.060
 1199BOLB   C4D28776  20.030  32.440  10.170
 1200BOLB   NC128777  24.090  27.850  10.980
 1200BOLB   PO128778  24.450  27.590  11.090
 1200BOLB   GL128779  24.570  27.990  10.790
 1200BOLB   GL228780  24.740  28.060  11.060
 1200BOLB   C1A28781  24.630  28.480  10.840
 1200BOLB   C2A28782  24.610  28.980  10.880
 1200BOLB   C3A28783  24.740  29.330  11.060
 1200BOLB   C4A28784  25.030  29.640  11.130
 1200BOLB   C1B28785  25.020  28.380  11.340
 1200BOLB   C2B28786  25.390  28.580  11.290
 1200BOLB   C3B28787  25.730  28.870  11.290
 1200BOLB   C4B28788  26.030  29.190  11.550
 1200BOLB   NC228789  25.910  32.040   9.850
 1200BOLB   PO228790  26.150  31.600   9.930
 1200BOLB   GL328791  26.020  31.200  10.110
 1200BOLB   GL428792  25.860  31.020   9.860
 1200BOLB   C1C28793  26.040  30.850  10.420
 1200BOLB   C2C28794  25.860  30.470  10.470
 1200BOLB   C3C28795  25.610  30.140  10.590
 1200BOLB   C4C28796  25.380  29.910  11.020
 1200BOLB   C1D28797  25.650  30.830  10.110
 1200BOLB   C2D28798  25.360  30.490  10.250
 1200BOLB   C3D28799  24.920  30.430  10.390
 1200BOLB   C4D28800  24.580  30.810  10.330
 1201BOLB   NC128801  14.090  21.240   5.810
 1201BOLB   PO128802  13.800  20.900   5.730
 1201BOLB   GL128803  13.720  21.050   5.360
 1201BOLB   GL228804  13.860  21.440   5.350
 1201BOLB   C1A28805  13.280  21.050   5.130
 1201BOLB   C2A28806  13.140  21.280   4.840
 1201BOLB   C3A28807  12.820  21.430   4.650
 1201BOLB   C4A28808  12.570  21.440   4.230
 1201BOLB   C1B28809  13.650  21.380   4.940
 1201BOLB   C2B28810  13.670  21.350   4.500
 1201BOLB   C3B28811  13.320  21.110   4.230
 1201BOLB   C4B28812  12.980  20.950   3.970
 1201BOLB   NC228813  11.410  21.790   2.170
 1201BOLB   PO228814  11.520  21.310   2.050
 1201BOLB   GL328815  11.510  21.380   2.510
 1201BOLB   GL428816  11.480  21.730   2.660
 1201BOLB   C1C28817  11.770  21.320   2.820
 1201BOLB   C2C28818  11.880  21.100   3.210
 1201BOLB   C3C28819  11.960  21.220   3.670
 1201BOLB   C4C28820  12.270  21.540   3.870
 1201BOLB   C1D28821  11.810  21.890   2.850
 1201BOLB   C2D28822  11.910  22.280   2.930
 1201BOLB   C3D28823  12.130  22.380   3.340
 1201BOLB   C4D28824  12.440  22.410   3.670
 1202BOLB   NC128825  14.150  28.440  10.910
 1202BOLB   PO128826  14.490  28.620  10.650
 1202BOLB   GL128827  14.160  28.940  10.630
 1202BOLB   GL228828  13.790  28.830  10.700
 1202BOLB   C1A28829  13.870  29.310  10.700
 1202BOLB   C2A28830  13.580  29.540  10.520
 1202BOLB   C3A28831  13.230  29.350  10.300
 1202BOLB   C4A28832  12.760  29.290  10.250
 1202BOLB   C1B28833  13.600  28.900  10.370
 1202BOLB   C2B28834  13.480  28.860   9.900
 1202BOLB   C3B28835  13.420  28.880   9.510
 1202BOLB   C4B28836  13.290  29.070   9.210
 1202BOLB   NC228837  11.510  31.600  10.070
 1202BOLB   PO228838  11.330  31.250   9.810
 1202BOLB   GL328839  11.520  30.890   9.900
 1202BOLB   GL428840  11.510  30.920  10.280
 1202BOLB   C1C28841  11.900  30.710  10.000
 1202BOLB   C2C28842  12.140  30.400  10.190
 1202BOLB   C3C28843  12.230  30.000  10.290
 1202BOLB   C4C28844  12.450  29.580  10.230
 1202BOLB   C1D28845  11.700  30.630  10.540
 1202BOLB   C2D28846  11.900  30.320  10.590
 1202BOLB   C3D28847  11.940  29.930  10.690
 1202BOLB   C4D28848  12.060  29.470  10.860
 1203BOLB   NC128849  12.160  16.570  16.380
 1203BOLB   PO128850  11.740  16.680  16.260
 1203BOLB   GL128851  11.580  16.800  15.890
 1203BOLB   GL228852  11.710  17.110  15.970
 1203BOLB   C1A28853  11.130  16.660  15.830
 1203BOLB   C2A28854  10.910  16.650  15.430
 1203BOLB   C3A28855  10.580  16.760  15.200
 1203BOLB   C4A28856  10.370  16.720  14.770
 1203BOLB   C1B28857  12.020  17.120  15.610
 1203BOLB   C2B28858  12.500  17.040  15.450
 1203BOLB   C3B28859  12.790  17.230  15.210
 1203BOLB   C4B28860  12.690  17.250  14.750
 1203BOLB   NC228861   9.190  16.290  13.010
 1203BOLB   PO228862   8.790  16.240  13.220
 1203BOLB   GL328863   9.140  16.230  13.520
 1203BOLB   GL428864   9.230  16.550  13.560
 1203BOLB   C1C28865   9.410  16.320  13.950
 1203BOLB   C2C28866   9.420  16.180  14.370
 1203BOLB   C3C28867   9.580  16.300  14.790
 1203BOLB   C4C28868  10.020  16.500  14.800
 1203BOLB   C1D28869   9.330  16.780  13.950
 1203BOLB   C2D28870   9.190  17.030  14.180
 1203BOLB   C3D28871   9.460  17.220  14.450
 1203BOLB   C4D28872   9.360  17.240  14.930
 1204BOLB   NC128873  22.260  29.810  13.730
 1204BOLB   PO128874  22.270  29.750  13.350
 1204BOLB   GL128875  22.550  29.970  13.250
 1204BOLB   GL228876  22.600  30.090  13.440
 1204BOLB   C1A28877  22.860  30.250  13.040
 1204BOLB   C2A28878  23.150  30.510  13.240
 1204BOLB   C3A28879  23.380  30.800  13.110
 1204BOLB   C4A28880  23.140  31.170  12.840
 1204BOLB   C1B28881  22.660  30.510  13.530
 1204BOLB   C2B28882  22.760  30.900  13.760
 1204BOLB   C3B28883  23.060  31.320  13.840
 1204BOLB   C4B28884  23.600  31.470  13.890
 1204BOLB   NC228885  24.030  33.500  12.930
 1204BOLB   PO228886  24.280  33.080  12.870
 1204BOLB   GL328887  24.060  32.750  12.780
 1204BOLB   GL428888  24.310  32.370  12.840
 1204BOLB   C1C28889  23.740  32.480  12.800
 1204BOLB   C2C28890  23.420  32.220  12.970
 1204BOLB   C3C28891  23.080  32.110  12.760
 1204BOLB   C4C28892  23.070  31.590  12.820
 1204BOLB   C1D28893  24.220  32.020  12.760
 1204BOLB   C2D28894  24.280  31.560  12.680
 1204BOLB   C3D28895  24.080  31.210  12.600
 1204BOLB   C4D28896  23.820  31.130  12.340
 1205BOLB   NC128897  23.790  23.520   8.450
 1205BOLB   PO128898  23.950  23.200   8.180
 1205BOLB   GL128899  24.370  23.270   8.140
 1205BOLB   GL228900  24.690  23.190   8.010
 1205BOLB   C1A28901  24.640  23.600   7.790
 1205BOLB   C2A28902  24.940  23.630   7.580
 1205BOLB   C3A28903  25.190  23.720   7.220
 1205BOLB   C4A28904  25.450  24.000   7.060
 1205BOLB   C1B28905  25.110  23.170   7.910
 1205BOLB   C2B28906  25.440  22.980   7.580
 1205BOLB   C3B28907  25.770  22.710   7.620
 1205BOLB   C4B28908  26.080  22.440   7.760
 1205BOLB   NC228909  27.160  23.930   5.880
 1205BOLB   PO228910  27.450  24.300   5.910
 1205BOLB   GL328911  27.170  24.380   6.370
 1205BOLB   GL428912  27.130  24.710   6.360
 1205BOLB   C1C28913  26.990  24.130   6.580
 1205BOLB   C2C28914  26.590  24.130   6.770
 1205BOLB   C3C28915  26.190  24.180   6.790
 1205BOLB   C4C28916  25.890  24.230   6.960
 1205BOLB   C1D28917  26.710  24.550   6.490
 1205BOLB   C2D28918  26.330  24.660   6.650
 1205BOLB   C3D28919  26.020  25.130   6.590
 1205BOLB   C4D28920  25.840  25.330   6.260
 1206BOLB   NC128921   9.020  21.030  12.280
 1206BOLB   PO128922   8.900  21.050  11.910
 1206BOLB   GL128923   8.820  20.610  12.200
 1206BOLB   GL228924   8.950  20.630  12.590
 1206BOLB   C1A28925   8.640  20.220  12.530
 1206BOLB   C2A28926   8.660  19.740  12.600
 1206BOLB   C3A28927   8.830  19.380  12.870
 1206BOLB   C4A28928   8.810  18.950  12.900
 1206BOLB   C1B28929   9.050  20.300  12.930
 1206BOLB   C2B28930   8.880  19.950  13.180
 1206BOLB   C3B28931   8.890  20.000  13.600
 1206BOLB   C4B28932   8.720  20.040  14.030
 1206BOLB   NC228933   8.170  17.080  11.960
 1206BOLB   PO228934   8.240  17.560  11.740
 1206BOLB   GL328935   8.550  17.690  12.040
 1206BOLB   GL428936   8.650  17.990  11.890
 1206BOLB   C1C28937   8.830  17.660  12.290
 1206BOLB   C2C28938   9.050  17.860  12.700
 1206BOLB   C3C28939   9.160  18.220  12.910
 1206BOLB   C4C28940   9.050  18.660  12.990
 1206BOLB   C1D28941   8.610  18.450  12.000
 1206BOLB   C2D28942   8.800  18.940  11.970
 1206BOLB   C3D28943   8.540  19.290  11.900
 1206BOLB   C4D28944   8.480  19.680  11.760
 1207BOLB   NC128945  10.140  25.000  13.340
 1207BOLB   PO128946  10.250  25.120  13.740
 1207BOLB   GL128947   9.890  25.120  13.880
 1207BOLB   GL228948   9.690  24.950  14.130
 1207BOLB   C1A28949   9.730  25.520  14.090
 1207BOLB   C2A28950   9.350  25.770  14.120
 1207BOLB   C3A28951   9.210  26.120  14.340
 1207BOLB   C4A28952   9.020  26.370  14.680
 1207BOLB   C1B28953   9.480  25.180  14.340
 1207BOLB   C2B28954   9.150  25.470  14.480
 1207BOLB   C3B28955   8.770  25.770  14.470
 1207BOLB   C4B28956   8.720  26.080  14.270
 1207BOLB   NC228957   7.870  27.630  16.550
 1207BOLB   PO228958   8.110  27.950  16.190
 1207BOLB   GL328959   8.430  27.800  15.910
 1207BOLB   GL428960   8.510  27.840  15.530
 1207BOLB   C1C28961   8.550  27.400  15.790
 1207BOLB   C2C28962   8.820  26.980  15.510
 1207BOLB   C3C28963   8.830  26.630  15.300
 1207BOLB   C4C28964   8.800  26.450  14.980
 1207BOLB   C1D28965   8.610  27.840  15.090
 1207BOLB   C2D28966   8.660  27.890  14.630
 1207BOLB   C3D28967   8.940  27.830  14.240
 1207BOLB   C4D28968   9.390  27.670  13.970
 1208BOLB   NC128969  13.530  21.380   5.750
 1208BOLB   PO128970  13.870  21.640   5.840
 1208BOLB   GL128971  13.620  21.830   5.490
 1208BOLB   GL228972  13.410  21.570   5.330
 1208BOLB   C1A28973  13.830  21.940   5.040
 1208BOLB   C2A28974  13.790  21.880   4.550
 1208BOLB   C3A28975  13.510  22.110   4.290
 1208BOLB   C4A28976  13.220  22.130   4.150
 1208BOLB   C1B28977  13.370  21.870   5.020
 1208BOLB   C2B28978  13.310  21.770   4.580
 1208BOLB   C3B28979  13.340  21.630   4.170
 1208BOLB   C4B28980  13.060  21.440   3.940
 1208BOLB   NC228981  12.860  21.690   1.960
 1208BOLB   PO228982  12.720  22.200   2.010
 1208BOLB   GL328983  13.110  22.070   2.270
 1208BOLB   GL428984  13.330  21.900   2.140
 1208BOLB   C1C28985  12.970  21.870   2.610
 1208BOLB   C2C28986  13.010  22.010   3.020
 1208BOLB   C3C28987  13.080  22.000   3.490
 1208BOLB   C4C28988  13.070  22.230   3.790
 1208BOLB   C1D28989  13.440  21.690   2.470
 1208BOLB   C2D28990  13.650  21.660   2.860
 1208BOLB   C3D28991  13.890  21.570   3.280
 1208BOLB   C4D28992  13.910  21.670   3.660
 1209BOLB   NC128993  20.990  30.050  12.160
 1209BOLB   PO128994  20.850  30.200  11.730
 1209BOLB   GL128995  20.830  30.500  11.900
 1209BOLB   GL228996  21.120  30.530  12.030
 1209BOLB   C1A28997  20.870  30.890  11.620
 1209BOLB   C2A28998  20.620  31.140  11.350
 1209BOLB   C3A28999  20.680  31.650  11.250
 1209BOLB   C4A29000  20.570  32.030  10.980
 1209BOLB   C1B29001  21.220  31.010  11.940
 1209BOLB   C2B29002  21.410  31.320  11.710
 1209BOLB   C3B29003  21.700  31.600  11.820
 1209BOLB   C4B29004  21.920  32.020  11.600
 1209BOLB   NC229005  21.460  33.480  11.790
 1209BOLB   PO229006  21.260  33.770  12.040
 1209BOLB   GL329007  20.960  33.470  11.930
 1209BOLB   GL429008  21.100  33.270  12.090
 1209BOLB   C1C29009  20.630  33.270  11.690
 1209BOLB   C2C29010  20.390  33.270  11.340
 1209BOLB   C3C29011  20.570  32.950  10.990
 1209BOLB   C4C29012  20.770  32.530  10.930
 1209BOLB   C1D29013  20.830  32.940  12.080
 1209BOLB   C2D29014  20.670  32.650  12.370
 1209BOLB   C3D29015  20.620  32.200  12.460
 1209BOLB   C4D29016  20.700  32.010  12.760
 1210BOLB   NC129017  15.600  28.060  16.640
 1210BOLB   PO129018  15.820  28.360  16.620
 1210BOLB   GL129019  15.610  28.690  16.790
 1210BOLB   GL229020  15.760  28.780  17.030
 1210BOLB   C1A29021  15.210  28.830  17.040
 1210BOLB   C2A29022  15.120  28.950  17.510
 1210BOLB   C3A29023  15.060  29.180  17.870
 1210BOLB   C4A29024  15.100  29.540  18.180
 1210BOLB   C1B29025  15.590  29.120  17.260
 1210BOLB   C2B29026  15.490  29.420  17.540
 1210BOLB   C3B29027  15.240  29.690  17.720
 1210BOLB   C4B29028  14.820  29.940  17.550
 1210BOLB   NC229029  15.050  31.820  19.060
 1210BOLB   PO229030  15.240  31.660  19.380
 1210BOLB   GL329031  15.190  31.240  19.200
 1210BOLB   GL429032  15.560  31.230  19.100
 1210BOLB   C1C29033  15.180  31.010  18.850
 1210BOLB   C2C29034  15.210  30.600  18.640
 1210BOLB   C3C29035  15.060  30.270  18.580
 1210BOLB   C4C29036  15.160  29.910  18.340
 1210BOLB   C1D29037  15.720  31.160  18.650
 1210BOLB   C2D29038  15.970  31.060  18.280
 1210BOLB   C3D29039  16.180  30.770  18.010
 1210BOLB   C4D29040  16.150  30.550  17.650
 1211BOLB   NC129041  15.620  23.490   6.350
 1211BOLB   PO129042  15.820  23.720   6.080
 1211BOLB   GL129043  16.020  23.980   5.690
 1211BOLB   GL229044  15.800  24.290   5.810
 1211BOLB   C1A29045  15.870  24.070   5.360
 1211BOLB   C2A29046  15.980  24.380   5.010
 1211BOLB   C3A29047  15.930  24.510   4.500
 1211BOLB   C4A29048  15.730  24.820   4.220
 1211BOLB   C1B29049  15.640  24.640   5.600
 1211BOLB   C2B29050  15.570  24.870   5.210
 1211BOLB   C3B29051  15.870  24.880   4.810
 1211BOLB   C4B29052  16.330  24.810   4.700
 1211BOLB   NC229053  15.150  25.290   2.070
 1211BOLB   PO229054  15.340  25.760   2.190
 1211BOLB   GL329055  15.500  25.410   2.410
 1211BOLB   GL429056  15.800  25.400   2.690
 1211BOLB   C1C29057  15.270  25.210   2.760
 1211BOLB   C2C29058  15.370  25.130   3.170
 1211BOLB   C3C29059  15.690  24.940   3.430
 1211BOLB   C4C29060  15.740  25.010   3.860
 1211BOLB   C1D29061  15.760  25.100   2.830
 1211BOLB   C2D29062  16.020  24.780   3.080
 1211BOLB   C3D29063  16.170  24.670   3.450
 1211BOLB   C4D29064  16.410  24.340   3.650
 1212BOLB   NC129065  20.110  18.320   6.350
 1212BOLB   PO129066  20.340  18.270   6.070
 1212BOLB   GL129067  20.550  18.040   5.780
 1212BOLB   GL229068  20.390  17.850   5.630
 1212BOLB   C1A29069  20.800  18.220   5.510
 1212BOLB   C2A29070  20.790  18.420   5.130
 1212BOLB   C3A29071  20.900  18.480   4.700
 1212BOLB   C4A29072  21.010  18.350   4.360
 1212BOLB   C1B29073  20.790  17.700   5.510
 1212BOLB   C2B29074  21.080  17.550   5.180
 1212BOLB   C3B29075  21.250  17.190   4.910
 1212BOLB   C4B29076  21.230  16.900   4.630
 1212BOLB   NC229077  22.220  17.370   2.300
 1212BOLB   PO229078  22.090  17.680   2.470
 1212BOLB   GL329079  21.950  17.960   2.730
 1212BOLB   GL429080  22.140  17.920   2.980
 1212BOLB   C1C29081  21.600  18.010   3.010
 1212BOLB   C2C29082  21.320  18.030   3.470
 1212BOLB   C3C29083  21.570  18.180   3.820
 1212BOLB   C4C29084  21.330  18.240   4.100
 1212BOLB   C1D29085  21.900  17.850   3.370
 1212BOLB   C2D29086  21.850  17.710   3.750
 1212BOLB   C3D29087  22.120  17.770   4.140
 1212BOLB   C4D29088  22.060  17.690   4.520
 1213BOLB   NC129089  21.630  21.280   6.100
 1213BOLB   PO129090  21.290  20.880   5.890
 1213BOLB   GL129091  21.550  20.830   5.620
 1213BOLB   GL229092  21.820  21.040   5.690
 1213BOLB   C1A29093  21.770  20.920   5.150
 1213BOLB   C2A29094  21.850  20.840   4.750
 1213BOLB   C3A29095  22.010  20.570   4.500
 1213BOLB   C4A29096  22.070  20.250   4.360
 1213BOLB   C1B29097  22.070  20.840   5.510
 1213BOLB   C2B29098  22.350  20.880   5.170
 1213BOLB   C3B29099  22.330  20.910   4.790
 1213BOLB   C4B29100  22.500  20.800   4.370
 1213BOLB   NC229101  22.450  20.460   2.340
 1213BOLB   PO229102  22.190  20.780   2.220
 1213BOLB   GL329103  21.940  20.660   2.560
 1213BOLB   GL429104  21.960  20.360   2.470
 1213BOLB   C1C29105  21.960  20.780   3.000
 1213BOLB   C2C29106  22.220  20.470   3.230
 1213BOLB   C3C29107  22.260  20.260   3.610
 1213BOLB   C4C29108  22.220  20.060   4.020
 1213BOLB   C1D29109  21.840  20.300   2.930
 1213BOLB   C2D29110  21.720  20.330   3.390
 1213BOLB   C3D29111  21.360  20.220   3.650
 1213BOLB   C4D29112  20.990  20.390   4.060
 1214BOLB   NC129113  18.790  16.950   6.740
 1214BOLB   PO129114  18.820  16.650   6.370
 1214BOLB   GL129115  19.020  16.540   6.040
 1214BOLB   GL229116  19.000  16.620   5.600
 1214BOLB   C1A29117  19.330  16.270   5.760
 1214BOLB   C2A29118  19.600  15.870   5.700
 1214BOLB   C3A29119  20.020  15.700   5.540
 1214BOLB   C4A29120  20.360  15.620   5.370
 1214BOLB   C1B29121  19.440  16.610   5.350
 1214BOLB   C2B29122  19.640  16.110   5.210
 1214BOLB   C3B29123  20.090  15.850   5.040
 1214BOLB   C4B29124  20.490  15.820   4.870
 1214BOLB   NC229125  20.840  13.400   3.430
 1214BOLB   PO229126  20.790  13.760   3.650
 1214BOLB   GL329127  20.560  14.000   4.040
 1214BOLB   GL429128  20.170  13.920   4.010
 1214BOLB   C1C29129  20.530  14.450   4.130
 1214BOLB   C2C29130  20.470  14.880   4.240
 1214BOLB   C3C29131  20.340  15.200   4.530
 1214BOLB   C4C29132  20.520  15.320   4.930
 1214BOLB   C1D29133  20.030  14.420   4.260
 1214BOLB   C2D29134  20.160  14.690   4.580
 1214BOLB   C3D29135  19.920  14.890   4.820
 1214BOLB   C4D29136  19.560  15.000   5.200
 1215BOLB   NC129137  12.290  23.380  17.370
 1215BOLB   PO129138  12.360  23.700  17.600
 1215BOLB   GL129139  12.230  23.790  18.070
 1215BOLB   GL229140  11.990  23.860  17.980
 1215BOLB   C1A29141  11.910  23.790  18.430
 1215BOLB   C2A29142  11.550  23.930  18.530
 1215BOLB   C3A29143  11.270  24.020  18.880
 1215BOLB   C4A29144  10.830  24.070  18.930
 1215BOLB   C1B29145  11.670  24.060  18.030
 1215BOLB   C2B29146  11.290  24.270  18.210
 1215BOLB   C3B29147  11.080  24.450  18.540
 1215BOLB   C4B29148  11.000  24.790  18.710
 1215BOLB   NC229149   9.450  23.820  20.770
 1215BOLB   PO229150   9.090  23.770  20.420
 1215BOLB   GL329151   9.260  23.840  20.050
 1215BOLB   GL429152   9.570  23.840  20.100
 1215BOLB   C1C29153   9.290  24.250  19.810
 1215BOLB   C2C29154   9.740  24.310  19.510
 1215BOLB   C3C29155   9.960  24.090  19.250
 1215BOLB   C4C29156  10.360  24.080  19.050
 1215BOLB   C1D29157   9.690  23.730  19.690
 1215BOLB   C2D29158   9.800  23.640  19.230
 1215BOLB   C3D29159  10.080  23.640  18.980
 1215BOLB   C4D29160  10.580  23.540  19.020
 1216BOLB   NC129161  19.760  28.200  17.990
 1216BOLB   PO129162  19.390  28.180  18.280
 1216BOLB   GL129163  19.240  28.550  18.510
 1216BOLB   GL229164  19.030  28.250  18.620
 1216BOLB   C1A29165  19.210  29.000  18.420
 1216BOLB   C2A29166  19.020  29.420  18.500
 1216BOLB   C3A29167  19.110  29.830  18.300
 1216BOLB   C4A29168  18.990  30.210  18.480
 1216BOLB   C1B29169  19.180  28.250  19.040
 1216BOLB   C2B29170  19.400  28.580  19.300
 1216BOLB   C3B29171  19.720  28.710  19.660
 1216BOLB   C4B29172  19.900  28.630  20.090
 1216BOLB   NC229173  20.210  32.270  19.230
 1216BOLB   PO229174  20.100  32.480  18.900
 1216BOLB   GL329175  19.890  32.230  18.620
 1216BOLB   GL429176  19.870  32.350  18.300
 1216BOLB   C1C29177  19.420  31.920  18.790
 1216BOLB   C2C29178  19.230  31.520  18.810
 1216BOLB   C3C29179  19.020  31.070  18.770
 1216BOLB   C4C29180  19.080  30.610  18.650
 1216BOLB   C1D29181  19.990  31.980  18.200
 1216BOLB   C2D29182  19.860  31.610  18.020
 1216BOLB   C3D29183  19.540  31.550  17.700
 1216BOLB   C4D29184  19.330  31.520  17.360
 1217BOLB   NC129185  18.620  18.750   5.200
 1217BOLB   PO129186  18.220  18.500   5.090
 1217BOLB   GL129187  18.180  18.400   4.670
 1217BOLB   GL229188  18.410  18.630   4.600
 1217BOLB   C1A29189  18.470  18.030   4.540
 1217BOLB   C2A29190  18.690  17.960   4.110
 1217BOLB   C3A29191  18.710  17.620   3.850
 1217BOLB   C4A29192  18.740  17.670   3.440
 1217BOLB   C1B29193  18.500  18.430   4.140
 1217BOLB   C2B29194  18.920  18.420   3.960
 1217BOLB   C3B29195  19.230  18.670   3.810
 1217BOLB   C4B29196  19.560  18.820   3.940
 1217BOLB   NC229197  17.870  17.950   1.120
 1217BOLB   PO229198  18.030  17.590   1.240
 1217BOLB   GL329199  18.320  17.360   1.650
 1217BOLB   GL429200  18.570  17.100   1.530
 1217BOLB   C1C29201  18.310  17.330   1.980
 1217BOLB   C2C29202  18.120  17.550   2.340
 1217BOLB   C3C29203  18.490  17.500   2.680
 1217BOLB   C4C29204  18.750  17.610   2.940
 1217BOLB   C1D29205  18.850  17.140   1.930
 1217BOLB   C2D29206  18.930  16.920   2.330
 1217BOLB   C3D29207  18.960  16.910   2.740
 1217BOLB   C4D29208  18.670  17.080   3.000
 1218BOLB   NC129209  24.300  17.640  12.890
 1218BOLB   PO129210  24.510  17.420  12.580
 1218BOLB   GL129211  24.910  17.220  12.560
 1218BOLB   GL229212  24.820  16.980  12.370
 1218BOLB   C1A29213  25.340  16.990  12.620
 1218BOLB   C2A29214  25.730  16.730  12.370
 1218BOLB   C3A29215  25.980  16.650  11.950
 1218BOLB   C4A29216  26.410  16.630  11.990
 1218BOLB   C1B29217  25.160  16.600  12.160
 1218BOLB   C2B29218  25.160  16.230  11.800
 1218BOLB   C3B29219  25.220  15.740  11.730
 1218BOLB   C4B29220  25.560  15.460  11.850
 1218BOLB   NC229221  29.090  17.840  12.180
 1218BOLB   PO229222  28.830  17.570  12.240
 1218BOLB   GL329223  28.370  17.490  12.270
 1218BOLB   GL429224  28.280  17.660  12.560
 1218BOLB   C1C29225  28.060  17.180  12.120
 1218BOLB   C2C29226  27.580  17.140  11.930
 1218BOLB   C3C29227  27.100  16.960  11.770
 1218BOLB   C4C29228  26.800  16.750  11.920
 1218BOLB   C1D29229  27.890  17.880  12.700
 1218BOLB   C2D29230  27.520  17.760  12.850
 1218BOLB   C3D29231  27.200  18.030  12.950
 1218BOLB   C4D29232  26.930  18.240  13.160
 1219BOLB   NC129233  16.550  15.410   5.610
 1219BOLB   PO129234  16.120  15.720   5.680
 1219BOLB   GL129235  16.280  15.570   5.180
 1219BOLB   GL229236  16.080  15.680   4.950
 1219BOLB   C1A29237  16.100  15.130   4.920
 1219BOLB   C2A29238  16.300  14.880   4.640
 1219BOLB   C3A29239  16.620  14.600   4.630
 1219BOLB   C4A29240  16.620  14.460   4.210
 1219BOLB   C1B29241  16.200  15.790   4.540
 1219BOLB   C2B29242  16.490  15.950   4.180
 1219BOLB   C3B29243  16.840  15.900   3.820
 1219BOLB   C4B29244  17.100  15.580   3.580
 1219BOLB   NC229245  15.840  13.150   2.250
 1219BOLB   PO229246  16.020  13.450   2.050
 1219BOLB   GL329247  16.140  13.590   2.400
 1219BOLB   GL429248  16.320  13.880   2.220
 1219BOLB   C1C29249  16.170  13.940   2.720
 1219BOLB   C2C29250  16.230  14.280   3.080
 1219BOLB   C3C29251  16.440  14.610   3.380
 1219BOLB   C4C29252  16.510  14.760   3.850
 1219BOLB   C1D29253  16.270  14.340   2.280
 1219BOLB   C2D29254  16.180  14.710   2.350
 1219BOLB   C3D29255  16.460  15.080   2.410
 1219BOLB   C4D29256  16.650  15.540   2.310
 1220BOLB   NC129257  22.320  16.810   9.470
 1220BOLB   PO129258  22.740  16.800   9.670
 1220BOLB   GL129259  23.040  16.700   9.440
 1220BOLB   GL229260  23.300  16.920   9.370
 1220BOLB   C1A29261  23.470  16.470   9.480
 1220BOLB   C2A29262  23.920  16.340   9.550
 1220BOLB   C3A29263  24.230  16.200   9.700
 1220BOLB   C4A29264  24.660  16.070   9.710
 1220BOLB   C1B29265  23.700  16.940   9.430
 1220BOLB   C2B29266  24.150  17.050   9.350
 1220BOLB   C3B29267  24.260  16.980   9.010
 1220BOLB   C4B29268  24.640  16.840   8.890
 1220BOLB   NC229269  26.810  15.510   8.970
 1220BOLB   PO229270  26.890  15.700   9.290
 1220BOLB   GL329271  26.470  15.880   9.280
 1220BOLB   GL429272  26.280  15.690   9.460
 1220BOLB   C1C29273  26.050  16.070   9.300
 1220BOLB   C2C29274  25.690  16.350   9.340
 1220BOLB   C3C29275  25.280  16.490   9.300
 1220BOLB   C4C29276  25.000  16.180   9.570
 1220BOLB   C1D29277  26.070  16.090   9.750
 1220BOLB   C2D29278  25.790  16.150  10.140
 1220BOLB   C3D29279  25.850  16.370  10.510
 1220BOLB   C4D29280  26.100  16.280  10.720
 1221BOLB   NC129281  25.550  23.810  12.180
 1221BOLB   PO129282  25.960  24.130  12.100
 1221BOLB   GL129283  26.180  24.450  11.960
 1221BOLB   GL229284  26.500  24.360  11.770
 1221BOLB   C1A29285  26.570  24.720  12.050
 1221BOLB   C2A29286  26.940  24.920  11.920
 1221BOLB   C3A29287  27.140  25.010  11.610
 1221BOLB   C4A29288  27.490  25.430  11.580
 1221BOLB   C1B29289  26.890  24.520  11.640
 1221BOLB   C2B29290  27.300  24.570  11.330
 1221BOLB   C3B29291  27.690  24.400  11.440
 1221BOLB   C4B29292  27.950  24.220  11.220
 1221BOLB   NC229293  29.510  26.560  11.360
 1221BOLB   PO229294  29.500  26.940  11.250
 1221BOLB   GL329295  29.030  26.740  11.290
 1221BOLB   GL429296  29.010  26.790  11.640
 1221BOLB   C1C29297  28.590  26.710  11.390
 1221BOLB   C2C29298  28.300  26.500  11.700
 1221BOLB   C3C29299  28.060  26.160  11.650
 1221BOLB   C4C29300  27.690  25.770  11.640
 1221BOLB   C1D29301  28.910  26.390  11.690
 1221BOLB   C2D29302  28.640  26.150  11.830
 1221BOLB   C3D29303  28.260  25.810  11.890
 1221BOLB   C4D29304  28.100  25.550  12.230
 1222BOLB   NC129305  15.930  14.110   7.730
 1222BOLB   PO129306  15.790  13.720   7.830
 1222BOLB   GL129307  15.630  13.490   7.400
 1222BOLB   GL229308  15.670  13.230   7.560
 1222BOLB   C1A29309  15.770  13.350   7.090
 1222BOLB   C2A29310  15.870  12.980   6.850
 1222BOLB   C3A29311  15.780  12.740   6.540
 1222BOLB   C4A29312  16.090  12.580   6.230
 1222BOLB   C1B29313  15.590  12.950   7.240
 1222BOLB   C2B29314  15.520  12.570   7.010
 1222BOLB   C3B29315  15.580  12.310   6.680
 1222BOLB   C4B29316  15.350  12.320   6.380
 1222BOLB   NC229317  16.730  10.690   4.490
 1222BOLB   PO229318  16.440  10.770   4.850
 1222BOLB   GL329319  16.520  10.980   5.140
 1222BOLB   GL429320  16.360  11.300   5.260
 1222BOLB   C1C29321  16.730  11.090   5.560
 1222BOLB   C2C29322  16.740  11.430   5.870
 1222BOLB   C3C29323  16.560  11.900   5.860
 1222BOLB   C4C29324  16.240  12.200   5.930
 1222BOLB   C1D29325  16.280  11.450   5.610
 1222BOLB   C2D29326  16.210  11.670   6.050
 1222BOLB   C3D29327  16.230  12.010   6.390
 1222BOLB   C4D29328  16.030  12.080   6.780
 1223BOLB   NC129329  19.580  19.160   6.030
 1223BOLB   PO129330  19.940  19.070   5.730
 1223BOLB   GL129331  20.090  18.850   5.410
 1223BOLB   GL229332  19.830  18.700   5.230
 1223BOLB   C1A29333  20.350  18.730   5.040
 1223BOLB   C2A29334  20.470  18.730   4.660
 1223BOLB   C3A29335  20.570  18.540   4.240
 1223BOLB   C4A29336  20.590  18.780   3.820
 1223BOLB   C1B29337  20.020  18.460   4.830
 1223BOLB   C2B29338  20.160  18.380   4.470
 1223BOLB   C3B29339  20.270  18.140   4.160
 1223BOLB   C4B29340  20.520  17.940   3.820
 1223BOLB   NC229341  22.060  19.010   1.530
 1223BOLB   PO229342  21.660  18.950   1.650
 1223BOLB   GL329343  21.350  18.870   1.980
 1223BOLB   GL429344  21.480  19.120   2.140
 1223BOLB   C1C29345  21.130  18.770   2.330
 1223BOLB   C2C29346  20.990  18.810   2.750
 1223BOLB   C3C29347  20.860  18.710   3.150
 1223BOLB   C4C29348  20.730  18.690   3.500
 1223BOLB   C1D29349  21.260  19.300   2.460
 1223BOLB   C2D29350  21.320  19.300   2.870
 1223BOLB   C3D29351  21.070  19.240   3.110
 1223BOLB   C4D29352  20.840  19.140   3.510
 1224BOLB   NC129353  20.190  13.920  10.520
 1224BOLB   PO129354  20.010  13.620  10.730
 1224BOLB   GL129355  20.160  13.320  10.580
 1224BOLB   GL229356  20.470  13.500  10.740
 1224BOLB   C1A29357  20.300  12.970  10.330
 1224BOLB   C2A29358  20.660  12.660  10.350
 1224BOLB   C3A29359  20.950  12.370  10.030
 1224BOLB   C4A29360  20.910  11.970   9.800
 1224BOLB   C1B29361  20.660  13.110  10.650
 1224BOLB   C2B29362  20.820  12.730  10.840
 1224BOLB   C3B29363  21.230  12.430  10.750
 1224BOLB   C4B29364  21.590  12.650  10.700
 1224BOLB   NC229365  21.730   9.520   9.620
 1224BOLB   PO229366  21.530   9.820   9.440
 1224BOLB   GL329367  21.260  10.180   9.580
 1224BOLB   GL429368  21.280  10.330   9.780
 1224BOLB   C1C29369  20.940  10.560   9.610
 1224BOLB   C2C29370  20.570  10.720   9.380
 1224BOLB   C3C29371  20.470  11.220   9.530
 1224BOLB   C4C29372  20.730  11.620   9.450
 1224BOLB   C1D29373  21.300  10.660  10.050
 1224BOLB   C2D29374  21.130  11.010  10.320
 1224BOLB   C3D29375  20.880  11.320  10.210
 1224BOLB   C4D29376  20.580  11.580   9.930
 1225BOLB   NC129377  17.640  29.880  12.370
 1225BOLB   PO129378  17.840  29.910  11.990
 1225BOLB   GL129379  17.840  30.400  11.910
 1225BOLB   GL229380  18.080  30.550  11.970
 1225BOLB   C1A29381  17.660  30.770  11.730
 1225BOLB   C2A29382  17.760  31.110  11.650
 1225BOLB   C3A29383  17.800  31.340  11.360
 1225BOLB   C4A29384  17.700  31.770  11.250
 1225BOLB   C1B29385  18.150  30.950  11.970
 1225BOLB   C2B29386  18.020  31.350  12.100
 1225BOLB   C3B29387  18.010  31.640  11.750
 1225BOLB   C4B29388  18.240  31.860  11.620
 1225BOLB   NC229389  16.850  34.220  10.870
 1225BOLB   PO229390  17.060  33.940  10.610
 1225BOLB   GL329391  17.030  33.600  10.470
 1225BOLB   GL429392  17.320  33.350  10.430
 1225BOLB   C1C29393  16.940  33.180  10.760
 1225BOLB   C2C29394  17.100  32.810  10.900
 1225BOLB   C3C29395  17.090  32.300  11.030
 1225BOLB   C4C29396  17.410  32.200  11.200
 1225BOLB   C1D29397  17.500  33.000  10.680
 1225BOLB   C2D29398  17.610  32.580  10.770
 1225BOLB   C3D29399  17.730  32.040  10.770
 1225BOLB   C4D29400  17.870  31.520  10.830
 1226BOLB   NC129401  16.810  14.240   6.480
 1226BOLB   PO129402  16.500  14.360   6.570
 1226BOLB   GL129403  16.360  13.960   6.450
 1226BOLB   GL229404  16.080  14.000   6.610
 1226BOLB   C1A29405  16.360  13.630   6.130
 1226BOLB   C2A29406  16.570  13.250   6.180
 1226BOLB   C3A29407  16.990  13.030   6.220
 1226BOLB   C4A29408  17.510  13.040   6.150
 1226BOLB   C1B29409  15.850  13.810   6.300
 1226BOLB   C2B29410  15.690  13.640   5.960
 1226BOLB   C3B29411  15.540  13.420   5.490
 1226BOLB   C4B29412  15.560  13.230   5.220
 1226BOLB   NC229413  18.160  11.280   4.410
 1226BOLB   PO229414  18.040  11.060   4.730
 1226BOLB   GL329415  18.210  11.540   4.850
 1226BOLB   GL429416  18.380  11.510   5.140
 1226BOLB   C1C29417  18.120  11.830   4.980
 1226BOLB   C2C29418  18.060  12.270   5.300
 1226BOLB   C3C29419  17.930  12.610   5.510
 1226BOLB   C4C29420  17.730  12.930   5.800
 1226BOLB   C1D29421  18.020  11.650   5.450
 1226BOLB   C2D29422  18.010  11.960   5.740
 1226BOLB   C3D29423  18.030  12.340   6.060
 1226BOLB   C4D29424  17.660  12.600   6.350
 1227BOLB   NC129425  16.140  29.300  10.810
 1227BOLB   PO129426  15.830  28.840  10.710
 1227BOLB   GL129427  15.670  29.320  10.520
 1227BOLB   GL229428  15.550  29.340  10.220
 1227BOLB   C1A29429  15.660  29.750  10.550
 1227BOLB   C2A29430  15.580  30.090  10.330
 1227BOLB   C3A29431  15.550  30.430  10.080
 1227BOLB   C4A29432  15.710  30.720   9.870
 1227BOLB   C1B29433  15.340  29.650  10.160
 1227BOLB   C2B29434  15.150  30.130  10.050
 1227BOLB   C3B29435  14.780  30.300   9.820
 1227BOLB   C4B29436  14.470  30.420   9.400
 1227BOLB   NC229437  16.470  32.880   8.410
 1227BOLB   PO229438  16.050  32.880   8.750
 1227BOLB   GL329439  16.030  32.540   9.050
 1227BOLB   GL429440  16.080  32.540   9.370
 1227BOLB   C1C29441  16.060  32.090   9.180
 1227BOLB   C2C29442  16.060  31.730   9.400
 1227BOLB   C3C29443  15.820  31.300   9.440
 1227BOLB   C4C29444  15.610  30.920   9.500
 1227BOLB   C1D29445  16.070  32.250   9.660
 1227BOLB   C2D29446  16.130  31.920   9.920
 1227BOLB   C3D29447  16.220  31.490   9.880
 1227BOLB   C4D29448  16.040  31.080   9.790
 1228BOLB   NC129449  18.710  29.410  13.310
 1228BOLB   PO129450  18.650  29.910  13.260
 1228BOLB   GL129451  18.680  30.380  13.410
 1228BOLB   GL229452  18.720  30.580  13.670
 1228BOLB   C1A29453  18.960  30.820  13.310
 1228BOLB   C2A29454  19.370  31.130  13.320
 1228BOLB   C3A29455  19.490  31.610  13.490
 1228BOLB   C4A29456  19.680  31.960  13.590
 1228BOLB   C1B29457  18.650  31.040  13.790
 1228BOLB   C2B29458  18.520  31.370  14.030
 1228BOLB   C3B29459  18.290  31.630  14.270
 1228BOLB   C4B29460  17.850  31.690  14.460
 1228BOLB   NC229461  19.370  34.440  13.180
 1228BOLB   PO229462  19.790  34.290  12.920
 1228BOLB   GL329463  19.580  33.980  13.230
 1228BOLB   GL429464  19.610  33.800  12.960
 1228BOLB   C1C29465  19.540  33.580  13.380
 1228BOLB   C2C29466  19.810  33.180  13.380
 1228BOLB   C3C29467  20.090  32.670  13.500
 1228BOLB   C4C29468  19.970  32.230  13.400
 1228BOLB   C1D29469  20.000  33.580  13.130
 1228BOLB   C2D29470  20.280  33.310  13.090
 1228BOLB   C3D29471  20.700  33.510  13.130
 1228BOLB   C4D29472  20.990  33.730  13.500
 1229BOLB   NC129473  13.240  18.250   6.360
 1229BOLB   PO129474  13.210  18.070   5.850
 1229BOLB   GL129475  12.840  18.040   5.660
 1229BOLB   GL229476  12.590  17.970   5.880
 1229BOLB   C1A29477  12.560  17.770   5.450
 1229BOLB   C2A29478  12.230  17.570   5.220
 1229BOLB   C3A29479  11.970  17.180   5.210
 1229BOLB   C4A29480  11.660  16.840   5.390
 1229BOLB   C1B29481  12.360  18.230   5.540
 1229BOLB   C2B29482  11.970  18.610   5.300
 1229BOLB   C3B29483  11.620  18.860   5.340
 1229BOLB   C4B29484  11.270  18.940   5.250
 1229BOLB   NC229485  10.850  15.650   4.000
 1229BOLB   PO229486  10.440  15.640   4.110
 1229BOLB   GL329487  10.730  15.700   4.500
 1229BOLB   GL429488  10.580  15.910   4.710
 1229BOLB   C1C29489  10.930  15.690   4.940
 1229BOLB   C2C29490  11.330  15.710   5.150
 1229BOLB   C3C29491  11.360  16.060   5.480
 1229BOLB   C4C29492  11.370  16.550   5.400
 1229BOLB   C1D29493  10.660  16.250   4.780
 1229BOLB   C2D29494  10.900  16.620   4.840
 1229BOLB   C3D29495  11.370  16.690   4.890
 1229BOLB   C4D29496  11.730  16.850   4.700
 1230BOLB   NC129497  13.480  26.960  12.260
 1230BOLB   PO129498  13.380  27.380  12.160
 1230BOLB   GL129499  13.150  27.770  12.240
 1230BOLB   GL229500  13.260  28.180  12.360
 1230BOLB   C1A29501  12.780  28.030  12.130
 1230BOLB   C2A29502  12.470  28.320  12.160
 1230BOLB   C3A29503  12.120  28.550  12.320
 1230BOLB   C4A29504  11.920  28.880  12.210
 1230BOLB   C1B29505  13.230  28.570  12.170
 1230BOLB   C2B29506  13.040  29.050  12.210
 1230BOLB   C3B29507  12.810  29.420  12.090
 1230BOLB   C4B29508  12.460  29.830  12.160
 1230BOLB   NC229509  10.690  31.290  11.600
 1230BOLB   PO229510  10.780  30.860  11.590
 1230BOLB   GL329511  10.920  30.470  11.670
 1230BOLB   GL429512  10.990  30.510  12.050
 1230BOLB   C1C29513  11.040  30.130  11.690
 1230BOLB   C2C29514  11.200  29.690  11.850
 1230BOLB   C3C29515  11.240  29.260  11.830
 1230BOLB   C4C29516  11.550  28.900  11.980
 1230BOLB   C1D29517  11.310  30.560  11.910
 1230BOLB   C2D29518  11.800  30.420  11.890
 1230BOLB   C3D29519  12.200  30.210  12.090
 1230BOLB   C4D29520  12.360  30.250  12.580
 1231BOLB   NC129521  17.610  15.180   7.460
 1231BOLB   PO129522  17.770  14.940   7.010
 1231BOLB   GL129523  17.880  14.660   6.600
 1231BOLB   GL229524  18.200  14.680   6.680
 1231BOLB   C1A29525  18.220  14.380   6.320
 1231BOLB   C2A29526  18.560  14.360   6.070
 1231BOLB   C3A29527  18.960  14.170   6.150
 1231BOLB   C4A29528  19.260  13.860   6.130
 1231BOLB   C1B29529  18.460  14.700   6.540
 1231BOLB   C2B29530  18.790  14.840   6.250
 1231BOLB   C3B29531  19.050  14.620   6.010
 1231BOLB   C4B29532  19.420  14.320   5.990
 1231BOLB   NC229533  19.440  11.680   5.060
 1231BOLB   PO229534  19.560  11.910   4.630
 1231BOLB   GL329535  19.500  12.200   4.880
 1231BOLB   GL429536  19.450  12.160   5.210
 1231BOLB   C1C29537  19.690  12.650   5.000
 1231BOLB   C2C29538  19.660  12.950   5.380
 1231BOLB   C3C29539  19.710  13.270   5.560
 1231BOLB   C4C29540  19.580  13.540   5.940
 1231BOLB   C1D29541  19.440  12.140   5.720
 1231BOLB   C2D29542  19.630  11.990   6.060
 1231BOLB   C3D29543  19.950  12.270   6.230
 1231BOLB   C4D29544  20.390  12.150   6.170
 1232BOLB   NC129545  23.090  25.970   7.890
 1232BOLB   PO129546  23.320  25.610   7.920
 1232BOLB   GL129547  23.660  25.890   7.870
 1232BOLB   GL229548  24.000  25.860   7.940
 1232BOLB   C1A29549  23.800  26.100   7.540
 1232BOLB   C2A29550  24.070  26.430   7.440
 1232BOLB   C3A29551  24.230  26.610   7.080
 1232BOLB   C4A29552  24.700  26.630   7.010
 1232BOLB   C1B29553  24.270  26.110   7.730
 1232BOLB   C2B29554  24.700  26.120   7.460
 1232BOLB   C3B29555  25.010  26.400   7.320
 1232BOLB   C4B29556  25.290  26.660   7.580
 1232BOLB   NC229557  26.550  27.840   6.340
 1232BOLB   PO229558  26.740  27.590   6.090
 1232BOLB   GL329559  26.270  27.350   6.020
 1232BOLB   GL429560  26.200  26.990   6.020
 1232BOLB   C1C29561  25.900  27.420   6.120
 1232BOLB   C2C29562  25.480  27.310   6.200
 1232BOLB   C3C29563  25.210  27.180   6.620
 1232BOLB   C4C29564  25.080  26.800   6.860
 1232BOLB   C1D29565  25.770  26.920   6.300
 1232BOLB   C2D29566  25.500  26.710   6.640
 1232BOLB   C3D29567  25.420  26.360   7.020
 1232BOLB   C4D29568  25.180  25.930   7.180
 1233BOLB   NC129569   9.090  22.240  15.740
 1233BOLB   PO129570   9.250  22.580  15.510
 1233BOLB   GL129571   8.830  22.630  15.670
 1233BOLB   GL229572   8.580  22.300  15.690
 1233BOLB   C1A29573   8.740  22.760  15.980
 1233BOLB   C2A29574   8.310  22.920  16.150
 1233BOLB   C3A29575   8.000  23.100  15.970
 1233BOLB   C4A29576   7.610  23.090  15.670
 1233BOLB   C1B29577   8.250  22.460  15.960
 1233BOLB   C2B29578   7.890  22.330  16.230
 1233BOLB   C3B29579   7.420  22.480  16.260
 1233BOLB   C4B29580   7.110  22.450  16.670
 1233BOLB   NC229581   5.130  24.050  15.290
 1233BOLB   PO229582   5.510  24.070  15.470
 1233BOLB   GL329583   5.720  23.690  15.390
 1233BOLB   GL429584   5.700  23.390  15.550
 1233BOLB   C1C29585   6.100  23.500  15.260
 1233BOLB   C2C29586   6.540  23.340  15.430
 1233BOLB   C3C29587   6.930  23.060  15.420
 1233BOLB   C4C29588   7.330  22.830  15.480
 1233BOLB   C1D29589   6.120  23.440  15.780
 1233BOLB   C2D29590   6.370  23.110  15.930
 1233BOLB   C3D29591   6.740  22.880  15.890
 1233BOLB   C4D29592   7.000  22.630  16.030
 1234BOLB   NC129593  21.420  24.880   6.520
 1234BOLB   PO129594  21.120  24.660   6.220
 1234BOLB   GL129595  21.140  24.910   5.970
 1234BOLB   GL229596  20.870  25.090   5.950
 1234BOLB   C1A29597  21.210  25.140   5.600
 1234BOLB   C2A29598  21.280  25.270   5.310
 1234BOLB   C3A29599  21.210  25.310   4.860
 1234BOLB   C4A29600  21.090  25.730   4.820
 1234BOLB   C1B29601  20.620  25.320   5.600
 1234BOLB   C2B29602  20.760  25.580   5.310
 1234BOLB   C3B29603  20.760  25.970   5.170
 1234BOLB   C4B29604  20.800  26.420   5.290
 1234BOLB   NC229605  21.560  26.920   2.730
 1234BOLB   PO229606  21.440  26.440   2.570
 1234BOLB   GL329607  21.220  26.540   2.930
 1234BOLB   GL429608  20.890  26.460   2.910
 1234BOLB   C1C29609  21.350  26.470   3.290
 1234BOLB   C2C29610  21.250  26.380   3.740
 1234BOLB   C3C29611  21.090  26.230   4.150
 1234BOLB   C4C29612  21.050  26.160   4.690
 1234BOLB   C1D29613  20.920  26.190   3.270
 1234BOLB   C2D29614  21.160  25.800   3.170
 1234BOLB   C3D29615  21.580  25.600   3.270
 1234BOLB   C4D29616  21.590  25.210   3.470
 1235BOLB   NC129617  26.340  22.420  12.990
 1235BOLB   PO129618  26.380  21.960  13.110
 1235BOLB   GL129619  26.830  21.850  13.170
 1235BOLB   GL229620  26.920  21.860  13.500
 1235BOLB   C1A29621  27.300  21.910  13.260
 1235BOLB   C2A29622  27.650  22.080  13.060
 1235BOLB   C3A29623  27.930  21.950  12.680
 1235BOLB   C4A29624  28.200  21.970  12.310
 1235BOLB   C1B29625  27.120  21.480  13.420
 1235BOLB   C2B29626  27.300  21.170  13.330
 1235BOLB   C3B29627  27.690  20.990  13.190
 1235BOLB   C4B29628  28.080  20.940  13.230
 1235BOLB   NC229629  30.590  22.590  12.270
 1235BOLB   PO229630  30.660  22.660  11.960
 1235BOLB   GL329631  30.230  22.640  11.820
 1235BOLB   GL429632  30.090  22.710  11.530
 1235BOLB   C1C29633  29.800  22.510  11.900
 1235BOLB   C2C29634  29.320  22.430  11.950
 1235BOLB   C3C29635  28.880  22.310  12.110
 1235BOLB   C4C29636  28.450  22.330  12.270
 1235BOLB   C1D29637  29.670  22.800  11.310
 1235BOLB   C2D29638  29.260  22.860  11.190
 1235BOLB   C3D29639  29.080  22.570  10.900
 1235BOLB   C4D29640  29.190  22.250  10.720
 1236BOLB   NC129641  25.600  25.720  14.270
 1236BOLB   PO129642  25.820  25.680  13.930
 1236BOLB   GL129643  26.240  25.720  13.690
 1236BOLB   GL229644  26.200  26.030  13.730
 1236BOLB   C1A29645  26.680  25.710  13.760
 1236BOLB   C2A29646  27.030  25.910  13.870
 1236BOLB   C3A29647  27.270  26.050  14.170
 1236BOLB   C4A29648  27.630  26.260  14.130
 1236BOLB   C1B29649  26.690  26.220  13.590
 1236BOLB   C2B29650  27.150  26.260  13.520
 1236BOLB   C3B29651  27.520  26.220  13.650
 1236BOLB   C4B29652  27.980  26.090  13.580
 1236BOLB   NC229653  30.090  26.670  14.030
 1236BOLB   PO229654  30.110  26.660  14.490
 1236BOLB   GL329655  29.660  26.610  14.350
 1236BOLB   GL429656  29.410  26.850  14.090
 1236BOLB   C1C29657  29.270  26.370  14.320
 1236BOLB   C2C29658  28.830  26.470  14.140
 1236BOLB   C3C29659  28.400  26.450  14.190
 1236BOLB   C4C29660  28.000  26.220  14.030
 1236BOLB   C1D29661  29.090  27.100  13.780
 1236BOLB   C2D29662  29.090  27.410  13.410
 1236BOLB   C3D29663  28.990  27.910  13.220
 1236BOLB   C4D29664  28.620  28.140  13.300
 1237BOLB   NC129665  13.110  26.370   9.840
 1237BOLB   PO129666  13.270  26.670   9.590
 1237BOLB   GL129667  12.950  26.960   9.310
 1237BOLB   GL229668  12.670  26.780   9.160
 1237BOLB   C1A29669  12.670  27.200   9.520
 1237BOLB   C2A29670  12.350  27.510   9.400
 1237BOLB   C3A29671  11.980  27.790   9.370
 1237BOLB   C4A29672  11.600  27.900   9.490
 1237BOLB   C1B29673  12.420  26.700   8.800
 1237BOLB   C2B29674  12.090  26.850   8.580
 1237BOLB   C3B29675  11.740  27.100   8.610
 1237BOLB   C4B29676  11.460  27.520   8.580
 1237BOLB   NC229677  10.140  29.770   8.550
 1237BOLB   PO229678  10.140  29.870   9.010
 1237BOLB   GL329679  10.550  29.750   9.160
 1237BOLB   GL429680  10.750  29.830   9.410
 1237BOLB   C1C29681  10.870  29.350   9.310
 1237BOLB   C2C29682  11.050  28.920   9.520
 1237BOLB   C3C29683  11.270  28.530   9.520
 1237BOLB   C4C29684  11.560  28.330   9.590
 1237BOLB   C1D29685  11.070  29.940   9.440
 1237BOLB   C2D29686  11.510  29.790   9.450
 1237BOLB   C3D29687  11.860  29.860   9.510
 1237BOLB   C4D29688  12.140  29.770   9.880
 1238BOLB   NC129689  19.060  22.920   5.220
 1238BOLB   PO129690  18.660  23.030   5.140
 1238BOLB   GL129691  18.810  23.150   4.780
 1238BOLB   GL229692  19.110  22.960   4.650
 1238BOLB   C1A29693  18.890  23.420   4.480
 1238BOLB   C2A29694  18.760  23.650   4.150
 1238BOLB   C3A29695  19.000  23.940   3.860
 1238BOLB   C4A29696  19.240  24.210   3.660
 1238BOLB   C1B29697  19.170  23.070   4.200
 1238BOLB   C2B29698  19.270  23.530   3.950
 1238BOLB   C3B29699  19.290  23.710   3.530
 1238BOLB   C4B29700  19.320  23.910   3.160
 1238BOLB   NC229701  20.400  24.060   1.340
 1238BOLB   PO229702  20.570  24.470   1.580
 1238BOLB   GL329703  20.410  24.380   1.990
 1238BOLB   GL429704  20.330  24.040   1.980
 1238BOLB   C1C29705  20.200  24.440   2.330
 1238BOLB   C2C29706  19.880  24.540   2.560
 1238BOLB   C3C29707  19.710  24.450   2.980
 1238BOLB   C4C29708  19.420  24.380   3.310
 1238BOLB   C1D29709  20.240  23.780   2.410
 1238BOLB   C2D29710  20.210  23.620   2.840
 1238BOLB   C3D29711  19.850  23.450   3.290
 1238BOLB   C4D29712  19.440  23.230   3.410
 1239BOLB   NC129713  17.310  26.290   7.640
 1239BOLB   PO129714  17.340  26.750   7.600
 1239BOLB   GL129715  17.280  27.080   7.290
 1239BOLB   GL229716  17.340  27.380   7.360
 1239BOLB   C1A29717  17.110  27.270   6.890
 1239BOLB   C2A29718  16.920  27.430   6.540
 1239BOLB   C3A29719  16.660  27.750   6.380
 1239BOLB   C4A29720  16.410  28.170   6.260
 1239BOLB   C1B29721  17.580  27.630   7.030
 1239BOLB   C2B29722  17.630  27.970   6.670
 1239BOLB   C3B29723  17.560  28.270   6.260
 1239BOLB   C4B29724  17.170  28.590   6.070
 1239BOLB   NC229725  14.740  29.790   5.450
 1239BOLB   PO229726  14.650  29.470   5.250
 1239BOLB   GL329727  14.970  29.180   5.360
 1239BOLB   GL429728  15.280  29.060   5.280
 1239BOLB   C1C29729  14.940  28.810   5.620
 1239BOLB   C2C29730  15.190  28.700   6.030
 1239BOLB   C3C29731  15.460  28.340   6.170
 1239BOLB   C4C29732  15.910  28.370   6.200
 1239BOLB   C1D29733  15.410  29.050   5.720
 1239BOLB   C2D29734  15.680  28.810   5.960
 1239BOLB   C3D29735  16.010  28.850   6.270
 1239BOLB   C4D29736  16.120  28.990   6.780
 1240BOLB   NC129737  23.030  22.000   6.910
 1240BOLB   PO129738  23.150  22.410   7.030
 1240BOLB   GL129739  23.540  22.350   6.800
 1240BOLB   GL229740  23.550  21.960   6.750
 1240BOLB   C1A29741  23.840  22.300   6.460
 1240BOLB   C2A29742  24.020  22.170   6.090
 1240BOLB   C3A29743  24.370  22.120   5.810
 1240BOLB   C4A29744  24.800  22.080   5.740
 1240BOLB   C1B29745  23.810  21.830   6.430
 1240BOLB   C2B29746  23.870  21.520   5.970
 1240BOLB   C3B29747  24.000  21.660   5.550
 1240BOLB   C4B29748  24.210  21.660   5.030
 1240BOLB   NC229749  27.560  22.280   5.140
 1240BOLB   PO229750  27.290  22.700   5.270
 1240BOLB   GL329751  26.930  22.630   5.500
 1240BOLB   GL429752  26.810  22.870   5.530
 1240BOLB   C1C29753  26.440  22.590   5.610
 1240BOLB   C2C29754  26.050  22.650   5.860
 1240BOLB   C3C29755  25.620  22.540   5.950
 1240BOLB   C4C29756  25.200  22.250   5.930
 1240BOLB   C1D29757  26.730  22.910   5.930
 1240BOLB   C2D29758  26.600  22.810   6.290
 1240BOLB   C3D29759  26.670  22.610   6.740
 1240BOLB   C4D29760  26.620  22.550   7.170
 1241BOLB   NC129761  12.380  25.360   8.380
 1241BOLB   PO129762  12.790  25.490   8.270
 1241BOLB   GL129763  12.690  25.750   8.030
 1241BOLB   GL229764  12.940  25.740   7.770
 1241BOLB   C1A29765  12.490  26.170   7.990
 1241BOLB   C2A29766  12.340  26.310   7.780
 1241BOLB   C3A29767  12.150  26.580   7.450
 1241BOLB   C4A29768  11.960  26.640   7.120
 1241BOLB   C1B29769  12.670  26.020   7.540
 1241BOLB   C2B29770  12.830  26.430   7.510
 1241BOLB   C3B29771  12.630  26.820   7.300
 1241BOLB   C4B29772  12.370  26.910   6.960
 1241BOLB   NC229773  11.290  26.470   4.600
 1241BOLB   PO229774  11.780  26.530   4.610
 1241BOLB   GL329775  11.710  26.740   4.990
 1241BOLB   GL429776  12.080  26.780   4.980
 1241BOLB   C1C29777  11.660  26.600   5.430
 1241BOLB   C2C29778  11.720  26.670   5.860
 1241BOLB   C3C29779  11.790  26.450   6.280
 1241BOLB   C4C29780  11.800  26.440   6.760
 1241BOLB   C1D29781  12.230  26.500   5.260
 1241BOLB   C2D29782  12.470  26.400   5.610
 1241BOLB   C3D29783  12.580  26.170   6.010
 1241BOLB   C4D29784  12.700  26.230   6.480
 1242BOLB   NC129785  15.090  21.820   5.260
 1242BOLB   PO129786  15.410  21.630   4.980
 1242BOLB   GL129787  15.570  21.790   4.590
 1242BOLB   GL229788  15.460  22.140   4.460
 1242BOLB   C1A29789  15.670  21.660   4.210
 1242BOLB   C2A29790  15.880  21.750   3.780
 1242BOLB   C3A29791  16.040  21.950   3.490
 1242BOLB   C4A29792  16.140  22.370   3.220
 1242BOLB   C1B29793  15.270  21.990   4.080
 1242BOLB   C2B29794  15.340  21.890   3.700
 1242BOLB   C3B29795  15.340  21.570   3.330
 1242BOLB   C4B29796  15.420  21.210   3.090
 1242BOLB   NC229797  15.210  24.120   1.780
 1242BOLB   PO229798  15.190  23.930   1.410
 1242BOLB   GL329799  15.440  23.550   1.660
 1242BOLB   GL429800  15.480  23.690   1.920
 1242BOLB   C1C29801  15.930  23.370   1.840
 1242BOLB   C2C29802  16.260  23.120   2.040
 1242BOLB   C3C29803  16.240  22.870   2.520
 1242BOLB   C4C29804  16.080  22.620   2.810
 1242BOLB   C1D29805  15.150  23.480   2.150
 1242BOLB   C2D29806  14.910  23.160   2.410
 1242BOLB   C3D29807  14.880  22.770   2.530
 1242BOLB   C4D29808  14.650  22.630   2.800
 1243BOLB   NC129809  23.620  20.740   8.130
 1243BOLB   PO129810  23.810  21.170   8.100
 1243BOLB   GL129811  24.100  20.830   7.920
 1243BOLB   GL229812  23.920  20.750   7.570
 1243BOLB   C1A29813  24.430  20.610   7.690
 1243BOLB   C2A29814  24.510  20.220   7.560
 1243BOLB   C3A29815  24.710  19.950   7.170
 1243BOLB   C4A29816  25.080  20.080   7.050
 1243BOLB   C1B29817  24.200  20.530   7.230
 1243BOLB   C2B29818  24.460  20.570   6.840
 1243BOLB   C3B29819  24.900  20.490   6.800
 1243BOLB   C4B29820  25.210  20.660   6.940
 1243BOLB   NC229821  26.770  20.280   5.320
 1243BOLB   PO229822  26.520  20.410   5.040
 1243BOLB   GL329823  26.220  20.580   5.380
 1243BOLB   GL429824  26.400  20.590   5.630
 1243BOLB   C1C29825  25.890  20.490   5.670
 1243BOLB   C2C29826  25.730  20.470   5.980
 1243BOLB   C3C29827  25.690  20.250   6.420
 1243BOLB   C4C29828  25.460  20.250   6.780
 1243BOLB   C1D29829  26.020  20.980   5.650
 1243BOLB   C2D29830  25.800  21.040   6.030
 1243BOLB   C3D29831  25.600  21.240   6.410
 1243BOLB   C4D29832  25.200  21.410   6.500
 1244BOLB   NC129833  15.070  20.120   4.940
 1244BOLB   PO129834  14.700  19.890   4.970
 1244BOLB   GL129835  14.270  20.060   4.760
 1244BOLB   GL229836  14.020  19.830   4.600
 1244BOLB   C1A29837  14.200  20.340   4.460
 1244BOLB   C2A29838  13.940  20.270   4.000
 1244BOLB   C3A29839  13.780  19.950   3.730
 1244BOLB   C4A29840  13.900  19.800   3.320
 1244BOLB   C1B29841  13.780  19.900   4.280
 1244BOLB   C2B29842  13.440  20.100   4.090
 1244BOLB   C3B29843  13.430  20.440   3.680
 1244BOLB   C4B29844  13.310  20.680   3.440
 1244BOLB   NC229845  13.620  19.240   1.360
 1244BOLB   PO229846  13.080  19.270   1.270
 1244BOLB   GL329847  13.050  19.150   1.700
 1244BOLB   GL429848  13.240  18.960   1.750
 1244BOLB   C1C29849  13.070  19.340   2.090
 1244BOLB   C2C29850  13.400  19.530   2.460
 1244BOLB   C3C29851  13.810  19.740   2.580
 1244BOLB   C4C29852  14.040  19.800   2.970
 1244BOLB   C1D29853  13.550  19.180   2.050
 1244BOLB   C2D29854  13.860  19.240   2.430
 1244BOLB   C3D29855  14.280  19.300   2.590
 1244BOLB   C4D29856  14.510  19.100   2.910
 1245BOLB   NC129857  19.300  29.300  10.850
 1245BOLB   PO129858  19.180  29.720  10.730
 1245BOLB   GL129859  19.370  30.100  10.650
 1245BOLB   GL229860  19.490  30.330  10.820
 1245BOLB   C1A29861  19.100  30.470  10.500
 1245BOLB   C2A29862  19.020  30.790  10.290
 1245BOLB   C3A29863  19.090  31.360  10.170
 1245BOLB   C4A29864  19.060  31.790   9.850
 1245BOLB   C1B29865  19.660  30.490  10.560
 1245BOLB   C2B29866  19.800  30.840  10.490
 1245BOLB   C3B29867  19.810  31.280  10.360
 1245BOLB   C4B29868  19.530  31.650  10.280
 1245BOLB   NC229869  16.880  33.830   8.890
 1245BOLB   PO229870  17.300  33.620   8.900
 1245BOLB   GL329871  17.580  33.200   8.940
 1245BOLB   GL429872  17.390  32.970   8.780
 1245BOLB   C1C29873  17.680  32.760   9.180
 1245BOLB   C2C29874  18.050  32.600   9.270
 1245BOLB   C3C29875  18.400  32.310   9.650
 1245BOLB   C4C29876  18.670  32.010   9.760
 1245BOLB   C1D29877  17.510  32.510   8.680
 1245BOLB   C2D29878  17.880  32.310   8.790
 1245BOLB   C3D29879  18.200  32.140   9.040
 1245BOLB   C4D29880  18.390  31.870   9.360
 1246BOLB   NC129881  17.270  19.340   4.890
 1246BOLB   PO129882  17.680  19.210   4.790
 1246BOLB   GL129883  17.750  19.300   4.310
 1246BOLB   GL229884  17.490  19.610   4.330
 1246BOLB   C1A29885  17.730  19.000   3.900
 1246BOLB   C2A29886  17.970  18.760   3.650
 1246BOLB   C3A29887  18.170  18.880   3.220
 1246BOLB   C4A29888  18.590  18.690   3.070
 1246BOLB   C1B29889  17.690  19.640   3.920
 1246BOLB   C2B29890  17.870  19.670   3.480
 1246BOLB   C3B29891  17.970  19.810   3.030
 1246BOLB   C4B29892  17.890  20.040   2.630
 1246BOLB   NC229893  19.700  18.510   1.180
 1246BOLB   PO229894  19.670  18.110   1.140
 1246BOLB   GL329895  19.670  17.920   1.510
 1246BOLB   GL429896  19.830  17.920   1.780
 1246BOLB   C1C29897  19.340  17.920   1.830
 1246BOLB   C2C29898  19.150  18.100   2.100
 1246BOLB   C3C29899  19.200  18.350   2.470
 1246BOLB   C4C29900  18.880  18.490   2.740
 1246BOLB   C1D29901  19.730  18.240   2.080
 1246BOLB   C2D29902  19.980  18.380   2.430
 1246BOLB   C3D29903  20.240  18.360   2.660
 1246BOLB   C4D29904  20.740  18.300   2.830
 1247BOLB   NC129905  19.240  22.210   5.450
 1247BOLB   PO129906  19.580  22.250   5.270
 1247BOLB   GL129907  19.730  22.340   4.950
 1247BOLB   GL229908  19.870  21.960   4.900
 1247BOLB   C1A29909  19.790  22.390   4.500
 1247BOLB   C2A29910  19.970  22.530   4.120
 1247BOLB   C3A29911  20.080  22.860   3.900
 1247BOLB   C4A29912  19.870  23.010   3.490
 1247BOLB   C1B29913  19.860  21.880   4.420
 1247BOLB   C2B29914  19.630  21.990   4.100
 1247BOLB   C3B29915  19.510  22.280   3.820
 1247BOLB   C4B29916  19.550  22.590   3.500
 1247BOLB   NC229917  19.720  23.440   1.480
 1247BOLB   PO229918  19.350  23.190   1.300
 1247BOLB   GL329919  19.320  23.080   1.670
 1247BOLB   GL429920  19.560  23.160   1.930
 1247BOLB   C1C29921  19.270  22.710   2.000
 1247BOLB   C2C29922  19.360  22.600   2.450
 1247BOLB   C3C29923  19.360  22.870   2.880
 1247BOLB   C4C29924  19.750  22.940   3.100
 1247BOLB   C1D29925  19.590  23.020   2.400
 1247BOLB   C2D29926  19.790  22.680   2.730
 1247BOLB   C3D29927  19.620  22.390   3.060
 1247BOLB   C4D29928  19.610  22.080   3.390
 1248BOLB   NC129929  10.970  25.730  11.070
 1248BOLB   PO129930  10.520  25.700  11.070
 1248BOLB   GL129931  10.150  25.860  11.090
 1248BOLB   GL229932  10.400  26.110  11.270
 1248BOLB   C1A29933   9.890  26.040  10.850
 1248BOLB   C2A29934   9.550  26.320  10.730
 1248BOLB   C3A29935   9.230  26.540  10.910
 1248BOLB   C4A29936   8.930  26.690  11.180
 1248BOLB   C1B29937  10.070  26.340  11.230
 1248BOLB   C2B29938   9.870  26.640  10.960
 1248BOLB   C3B29939   9.730  26.840  10.670
 1248BOLB   C4B29940   9.710  27.210  10.530
 1248BOLB   NC229941   7.160  27.410   9.770
 1248BOLB   PO229942   7.330  27.530   9.350
 1248BOLB   GL329943   7.640  27.340   9.610
 1248BOLB   GL429944   7.530  26.930   9.740
 1248BOLB   C1C29945   8.040  27.300   9.880
 1248BOLB   C2C29946   8.340  27.020  10.050
 1248BOLB   C3C29947   8.420  27.040  10.460
 1248BOLB   C4C29948   8.750  26.930  10.820
 1248BOLB   C1D29949   7.910  26.810   9.830
 1248BOLB   C2D29950   8.240  26.610   9.810
 1248BOLB   C3D29951   8.260  26.270   9.970
 1248BOLB   C4D29952   8.650  25.980  10.180
 1249BOLB   NC129953  14.090  15.910   6.350
 1249BOLB   PO129954  13.870  15.880   6.680
 1249BOLB   GL129955  13.420  15.580   6.540
 1249BOLB   GL229956  13.230  15.540   6.290
 1249BOLB   C1A29957  13.100  15.140   6.550
 1249BOLB   C2A29958  12.870  14.770   6.740
 1249BOLB   C3A29959  12.820  14.740   7.040
 1249BOLB   C4A29960  12.730  14.670   7.370
 1249BOLB   C1B29961  13.140  15.170   6.090
 1249BOLB   C2B29962  12.780  14.890   6.250
 1249BOLB   C3B29963  12.730  14.430   6.370
 1249BOLB   C4B29964  12.770  14.030   6.150
 1249BOLB   NC229965  10.590  13.830   6.460
 1249BOLB   PO229966  10.650  13.930   6.890
 1249BOLB   GL329967  11.080  13.850   7.110
 1249BOLB   GL429968  11.210  14.100   7.320
 1249BOLB   C1C29969  11.530  13.660   7.010
 1249BOLB   C2C29970  11.900  13.830   7.190
 1249BOLB   C3C29971  12.140  14.150   7.350
 1249BOLB   C4C29972  12.360  14.550   7.430
 1249BOLB   C1D29973  11.490  13.670   7.510
 1249BOLB   C2D29974  11.820  13.740   7.670
 1249BOLB   C3D29975  12.270  13.630   7.500
 1249BOLB   C4D29976  12.600  13.600   7.540
 1250BOLB   NC129977  17.740  23.030   5.520
 1250BOLB   PO129978  17.640  22.870   5.220
 1250BOLB   GL129979  17.670  22.800   4.740
 1250BOLB   GL229980  17.650  23.070   4.620
 1250BOLB   C1A29981  17.610  22.560   4.370
 1250BOLB   C2A29982  17.420  22.590   3.990
 1250BOLB   C3A29983  17.260  22.850   3.660
 1250BOLB   C4A29984  16.970  22.930   3.360
 1250BOLB   C1B29985  17.810  23.370   4.330
 1250BOLB   C2B29986  18.170  23.790   4.190
 1250BOLB   C3B29987  18.430  23.860   3.730
 1250BOLB   C4B29988  18.340  23.800   3.270
 1250BOLB   NC229989  16.350  24.220   0.990
 1250BOLB   PO229990  16.780  24.030   1.200
 1250BOLB   GL329991  16.720  23.840   1.670
 1250BOLB   GL429992  16.340  23.890   1.800
 1250BOLB   C1C29993  16.570  23.350   1.720
 1250BOLB   C2C29994  16.720  23.070   2.170
 1250BOLB   C3C29995  16.680  23.100   2.530
 1250BOLB   C4C29996  16.860  23.110   2.850
 1250BOLB   C1D29997  16.030  23.790   2.190
 1250BOLB   C2D29998  15.580  23.580   2.380
 1250BOLB   C3D29999  15.380  23.260   2.560
 1250BOLB   C4D30000  15.240  22.960   2.810
 1251BOLB   NC130001  25.470  22.110  10.370
 1251BOLB   PO130002  25.460  22.360  10.020
 1251BOLB   GL130003  25.670  22.110   9.810
 1251BOLB   GL230004  25.900  22.010  10.040
 1251BOLB   C1A30005  25.890  22.210   9.420
 1251BOLB   C2A30006  26.240  22.300   9.140
 1251BOLB   C3A30007  26.430  21.900   8.880
 1251BOLB   C4A30008  26.580  21.440   8.790
 1251BOLB   C1B30009  26.200  21.840   9.660
 1251BOLB   C2B30010  26.480  21.750   9.340
 1251BOLB   C3B30011  26.790  21.430   9.380
 1251BOLB   C4B30012  26.890  20.980   9.620
 1251BOLB   NC230013  28.080  21.440   6.880
 1251BOLB   PO230014  28.180  21.140   7.180
 1251BOLB   GL330015  27.850  21.090   7.420
 1251BOLB   GL430016  28.000  20.920   7.630
 1251BOLB   C1C30017  27.510  21.040   7.650
 1251BOLB   C2C30018  27.200  21.230   7.940
 1251BOLB   C3C30019  27.200  21.160   8.300
 1251BOLB   C4C30020  26.960  21.210   8.660
 1251BOLB   C1D30021  27.870  21.070   7.990
 1251BOLB   C2D30022  27.630  21.400   8.280
 1251BOLB   C3D30023  27.220  21.610   8.530
 1251BOLB   C4D30024  26.910  21.930   8.560
 1252BOLB   NC130025  16.690  17.090   5.170
 1252BOLB   PO130026  16.710  17.570   5.080
 1252BOLB   GL130027  16.630  17.430   4.720
 1252BOLB   GL230028  16.440  17.210   4.620
 1252BOLB   C1A30029  16.680  17.610   4.330
 1252BOLB   C2A30030  16.610  17.770   4.010
 1252BOLB   C3A30031  16.750  17.660   3.580
 1252BOLB   C4A30032  16.830  17.620   3.260
 1252BOLB   C1B30033  16.400  16.920   4.200
 1252BOLB   C2B30034  16.270  16.810   3.810
 1252BOLB   C3B30035  16.330  16.670   3.380
 1252BOLB   C4B30036  16.620  16.830   3.100
 1252BOLB   NC230037  16.620  17.510   0.490
 1252BOLB   PO230038  17.040  17.550   0.750
 1252BOLB   GL330039  17.120  17.660   1.190
 1252BOLB   GL430040  16.910  17.470   1.420
 1252BOLB   C1C30041  17.040  17.890   1.570
 1252BOLB   C2C30042  16.750  17.960   1.970
 1252BOLB   C3C30043  16.750  17.900   2.380
 1252BOLB   C4C30044  16.860  17.830   2.820
 1252BOLB   C1D30045  16.890  17.520   1.800
 1252BOLB   C2D30046  17.200  17.710   2.220
 1252BOLB   C3D30047  17.220  18.120   2.510
 1252BOLB   C4D30048  17.250  18.620   2.660
 1253BOLB   NC130049  20.240  13.830  11.280
 1253BOLB   PO130050  20.580  13.910  10.890
 1253BOLB   GL130051  20.630  13.510  11.210
 1253BOLB   GL230052  20.970  13.440  11.460
 1253BOLB   C1A30053  20.660  13.040  11.210
 1253BOLB   C2A30054  20.840  12.720  11.390
 1253BOLB   C3A30055  21.050  12.330  11.240
 1253BOLB   C4A30056  21.520  12.080  11.320
 1253BOLB   C1B30057  21.110  13.110  11.630
 1253BOLB   C2B30058  21.470  12.870  11.780
 1253BOLB   C3B30059  21.850  12.780  11.510
 1253BOLB   C4B30060  21.980  12.370  11.370
 1253BOLB   NC230061  22.260  10.480   9.720
 1253BOLB   PO230062  22.220  10.210  10.130
 1253BOLB   GL330063  21.970  10.480  10.490
 1253BOLB   GL430064  22.050  10.690  10.170
 1253BOLB   C1C30065  21.860  10.710  10.840
 1253BOLB   C2C30066  21.860  11.010  11.160
 1253BOLB   C3C30067  21.870  11.370  11.440
 1253BOLB   C4C30068  21.770  11.800  11.440
 1253BOLB   C1D30069  21.830  10.990  10.270
 1253BOLB   C2D30070  21.620  11.300  10.270
 1253BOLB   C3D30071  21.370  11.520  10.500
 1253BOLB   C4D30072  21.090  12.000  10.480
 1254BOLB   NC130073  22.260  28.660  17.180
 1254BOLB   PO130074  22.520  28.480  17.480
 1254BOLB   GL130075  22.660  28.590  17.850
 1254BOLB   GL230076  22.870  28.490  18.020
 1254BOLB   C1A30077  22.690  29.020  18.090
 1254BOLB   C2A30078  22.870  29.120  18.500
 1254BOLB   C3A30079  23.170  28.960  18.780
 1254BOLB   C4A30080  23.380  28.610  19.100
 1254BOLB   C1B30081  22.820  28.610  18.470
 1254BOLB   C2B30082  22.680  28.750  18.830
 1254BOLB   C3B30083  22.480  29.160  19.070
 1254BOLB   C4B30084  22.860  29.200  19.320
 1254BOLB   NC230085  25.540  29.540  20.470
 1254BOLB   PO230086  25.100  29.500  20.660
 1254BOLB   GL330087  24.810  29.150  20.420
 1254BOLB   GL430088  24.720  28.870  20.560
 1254BOLB   C1C30089  24.740  29.020  20.020
 1254BOLB   C2C30090  24.390  28.980  19.740
 1254BOLB   C3C30091  24.100  28.800  19.610
 1254BOLB   C4C30092  23.720  28.650  19.420
 1254BOLB   C1D30093  24.640  28.550  20.300
 1254BOLB   C2D30094  24.740  28.080  20.150
 1254BOLB   C3D30095  24.490  27.870  19.880
 1254BOLB   C4D30096  24.320  27.690  19.480
 1255BOLB   NC130097  23.650  21.130   9.310
 1255BOLB   PO130098  24.010  21.040   9.040
 1255BOLB   GL130099  24.090  20.630   8.870
 1255BOLB   GL230100  24.420  20.400   9.060
 1255BOLB   C1A30101  24.240  20.290   8.590
 1255BOLB   C2A30102  24.630  20.000   8.370
 1255BOLB   C3A30103  24.880  19.840   8.130
 1255BOLB   C4A30104  25.030  19.380   8.030
 1255BOLB   C1B30105  24.690  20.400   8.730
 1255BOLB   C2B30106  24.980  20.400   8.370
 1255BOLB   C3B30107  25.240  20.200   8.070
 1255BOLB   C4B30108  25.350  19.780   8.020
 1255BOLB   NC230109  26.780  17.550   6.550
 1255BOLB   PO230110  26.920  17.990   6.660
 1255BOLB   GL330111  26.720  18.150   7.140
 1255BOLB   GL430112  26.590  17.960   7.400
 1255BOLB   C1C30113  26.550  18.570   7.310
 1255BOLB   C2C30114  26.090  18.630   7.490
 1255BOLB   C3C30115  25.650  18.700   7.610
 1255BOLB   C4C30116  25.310  18.940   7.920
 1255BOLB   C1D30117  26.340  18.130   7.720
 1255BOLB   C2D30118  25.900  18.150   7.920
 1255BOLB   C3D30119  25.570  18.440   8.070
 1255BOLB   C4D30120  25.120  18.370   8.140
 1256BOLB   NC130121  23.800  17.170  10.840
 1256BOLB   PO130122  24.180  17.100  10.770
 1256BOLB   GL130123  24.620  17.070  10.760
 1256BOLB   GL230124  24.620  17.140  10.540
 1256BOLB   C1A30125  24.880  16.740  10.920
 1256BOLB   C2A30126  25.270  16.630  10.770
 1256BOLB   C3A30127  25.560  16.760  10.520
 1256BOLB   C4A30128  25.670  16.670  10.060
 1256BOLB   C1B30129  24.740  17.040  10.130
 1256BOLB   C2B30130  24.950  17.270   9.820
 1256BOLB   C3B30131  24.690  17.520   9.590
 1256BOLB   C4B30132  24.280  17.610   9.490
 1256BOLB   NC230133  27.490  15.890   9.270
 1256BOLB   PO230134  27.620  16.200   9.480
 1256BOLB   GL330135  27.440  16.520   9.570
 1256BOLB   GL430136  27.440  16.500   9.860
 1256BOLB   C1C30137  26.880  16.540   9.580
 1256BOLB   C2C30138  26.510  16.350   9.350
 1256BOLB   C3C30139  26.110  16.570   9.570
 1256BOLB   C4C30140  25.880  16.530   9.800
 1256BOLB   C1D30141  27.030  16.470  10.030
 1256BOLB   C2D30142  26.630  16.640  10.340
 1256BOLB   C3D30143  26.560  16.310  10.730
 1256BOLB   C4D30144  26.340  15.880  10.760
 1257BOLB   NC130145  14.460  18.570   5.210
 1257BOLB   PO130146  14.640  18.190   5.110
 1257BOLB   GL130147  14.660  18.460   4.780
 1257BOLB   GL230148  14.670  18.800   4.630
 1257BOLB   C1A30149  14.590  18.420   4.360
 1257BOLB   C2A30150  14.280  18.390   4.040
 1257BOLB   C3A30151  13.890  18.160   3.920
 1257BOLB   C4A30152  13.780  18.020   3.460
 1257BOLB   C1B30153  14.380  18.940   4.210
 1257BOLB   C2B30154  14.350  18.850   3.760
 1257BOLB   C3B30155  14.410  18.740   3.270
 1257BOLB   C4B30156  14.140  18.810   2.880
 1257BOLB   NC230157  13.960  18.430   0.840
 1257BOLB   PO230158  13.940  18.010   0.930
 1257BOLB   GL330159  13.960  17.850   1.370
 1257BOLB   GL430160  13.880  17.570   1.480
 1257BOLB   C1C30161  13.860  18.100   1.820
 1257BOLB   C2C30162  13.850  18.080   2.270
 1257BOLB   C3C30163  13.950  18.050   2.730
 1257BOLB   C4C30164  14.050  17.900   3.150
 1257BOLB   C1D30165  13.740  17.600   1.930
 1257BOLB   C2D30166  13.450  17.840   2.210
 1257BOLB   C3D30167  13.430  18.170   2.620
 1257BOLB   C4D30168  13.620  18.420   2.890
 1258BOLB   NC130169  20.740  21.580   5.780
 1258BOLB   PO130170  21.140  21.500   6.020
 1258BOLB   GL130171  21.190  21.340   5.640
 1258BOLB   GL230172  21.130  21.660   5.450
 1258BOLB   C1A30173  21.430  21.280   5.240
 1258BOLB   C2A30174  21.560  21.450   4.900
 1258BOLB   C3A30175  21.810  21.620   4.460
 1258BOLB   C4A30176  21.750  21.770   4.150
 1258BOLB   C1B30177  21.370  21.840   5.140
 1258BOLB   C2B30178  21.590  21.990   4.690
 1258BOLB   C3B30179  21.340  22.010   4.350
 1258BOLB   C4B30180  21.020  21.990   3.970
 1258BOLB   NC230181  22.400  22.190   1.570
 1258BOLB   PO230182  21.980  22.120   1.680
 1258BOLB   GL330183  21.910  22.150   2.070
 1258BOLB   GL430184  21.760  22.450   2.170
 1258BOLB   C1C30185  21.800  22.000   2.420
 1258BOLB   C2C30186  21.600  21.750   2.850
 1258BOLB   C3C30187  21.500  21.590   3.280
 1258BOLB   C4C30188  21.480  21.800   3.740
 1258BOLB   C1D30189  21.430  22.510   2.420
 1258BOLB   C2D30190  21.260  22.930   2.620
 1258BOLB   C3D30191  21.120  23.100   2.890
 1258BOLB   C4D30192  21.310  23.120   3.320
 1259BOLB   NC130193  22.390  18.890   7.830
 1259BOLB   PO130194  22.390  18.490   7.840
 1259BOLB   GL130195  22.690  18.490   7.530
 1259BOLB   GL230196  22.490  18.160   7.450
 1259BOLB   C1A30197  22.860  18.390   7.100
 1259BOLB   C2A30198  23.080  18.090   6.690
 1259BOLB   C3A30199  23.420  17.930   6.440
 1259BOLB   C4A30200  23.770  17.700   6.560
 1259BOLB   C1B30201  22.730  17.830   7.460
 1259BOLB   C2B30202  22.870  17.430   7.640
 1259BOLB   C3B30203  23.310  17.390   7.690
 1259BOLB   C4B30204  23.650  17.120   7.340
 1259BOLB   NC230205  24.660  16.070   5.020
 1259BOLB   PO230206  24.880  16.140   5.400
 1259BOLB   GL330207  24.610  16.200   5.730
 1259BOLB   GL430208  24.560  16.050   6.010
 1259BOLB   C1C30209  24.460  16.610   5.930
 1259BOLB   C2C30210  24.330  16.760   6.250
 1259BOLB   C3C30211  23.980  16.930   6.380
 1259BOLB   C4C30212  23.860  17.350   6.440
 1259BOLB   C1D30213  24.140  16.160   6.160
 1259BOLB   C2D30214  23.840  16.520   6.160
 1259BOLB   C3D30215  23.570  16.910   6.200
 1259BOLB   C4D30216  23.310  17.150   5.970
 1260BOLB   NC130217  12.900  26.600  13.860
 1260BOLB   PO130218  12.460  26.810  13.750
 1260BOLB   GL130219  12.430  27.230  13.720
 1260BOLB   GL230220  12.370  27.250  14.090
 1260BOLB   C1A30221  12.360  27.700  13.570
 1260BOLB   C2A30222  12.080  28.120  13.710
 1260BOLB   C3A30223  12.070  28.500  13.960
 1260BOLB   C4A30224  12.050  28.950  13.650
 1260BOLB   C1B30225  12.110  27.680  14.030
 1260BOLB   C2B30226  11.760  27.750  13.820
 1260BOLB   C3B30227  11.540  28.090  13.730
 1260BOLB   C4B30228  11.240  28.220  13.500
 1260BOLB   NC230229  11.530  31.570  12.860
 1260BOLB   PO230230  11.320  31.160  12.970
 1260BOLB   GL330231  11.410  30.720  12.880
 1260BOLB   GL430232  11.230  30.390  12.650
 1260BOLB   C1C30233  11.700  30.360  12.780
 1260BOLB   C2C30234  11.920  29.960  12.960
 1260BOLB   C3C30235  12.130  29.780  13.290
 1260BOLB   C4C30236  12.050  29.310  13.460
 1260BOLB   C1D30237  11.600  30.610  12.350
 1260BOLB   C2D30238  12.130  30.610  12.360
 1260BOLB   C3D30239  12.560  30.530  12.260
 1260BOLB   C4D30240  12.870  30.330  12.360
 1261BOLB   NC130241  16.560  29.390  13.800
 1261BOLB   PO130242  16.210  29.230  13.650
 1261BOLB   GL130243  16.060  29.680  13.460
 1261BOLB   GL230244  16.080  29.840  13.180
 1261BOLB   C1A30245  16.100  30.010  13.700
 1261BOLB   C2A30246  15.980  30.310  13.890
 1261BOLB   C3A30247  15.910  30.760  13.930
 1261BOLB   C4A30248  15.780  31.190  13.770
 1261BOLB   C1B30249  16.110  30.210  12.940
 1261BOLB   C2B30250  16.180  30.690  13.000
 1261BOLB   C3B30251  16.350  31.200  13.010
 1261BOLB   C4B30252  16.390  31.660  13.160
 1261BOLB   NC230253  15.360  33.650  12.400
 1261BOLB   PO230254  15.060  33.490  12.700
 1261BOLB   GL330255  15.080  33.030  12.810
 1261BOLB   GL430256  15.290  33.190  13.040
 1261BOLB   C1C30257  15.200  32.630  12.950
 1261BOLB   C2C30258  15.500  32.320  13.180
 1261BOLB   C3C30259  15.550  31.960  13.310
 1261BOLB   C4C30260  15.760  31.530  13.520
 1261BOLB   C1D30261  15.770  33.110  13.230
 1261BOLB   C2D30262  16.020  32.800  13.420
 1261BOLB   C3D30263  16.360  32.600  13.470
 1261BOLB   C4D30264  16.480  32.130  13.490
 1262BOLB   NC130265  24.340  18.370  11.190
 1262BOLB   PO130266  24.580  18.010  11.320
 1262BOLB   GL130267  25.030  17.940  11.400
 1262BOLB   GL230268  25.190  17.600  11.460
 1262BOLB   C1A30269  25.400  17.930  11.170
 1262BOLB   C2A30270  25.750  17.740  11.420
 1262BOLB   C3A30271  26.040  17.550  11.660
 1262BOLB   C4A30272  26.430  17.580  11.830
 1262BOLB   C1B30273  25.470  17.220  11.550
 1262BOLB   C2B30274  25.780  16.890  11.510
 1262BOLB   C3B30275  26.120  16.690  11.470
 1262BOLB   C4B30276  26.580  16.620  11.510
 1262BOLB   NC230277  28.280  16.060  10.500
 1262BOLB   PO230278  28.110  16.420  10.830
 1262BOLB   GL330279  27.930  16.640  11.110
 1262BOLB   GL430280  27.910  16.590  11.380
 1262BOLB   C1C30281  27.910  17.120  11.100
 1262BOLB   C2C30282  27.660  17.350  11.280
 1262BOLB   C3C30283  27.390  17.690  11.490
 1262BOLB   C4C30284  26.960  17.630  11.760
 1262BOLB   C1D30285  27.980  16.990  11.560
 1262BOLB   C2D30286  28.160  17.360  11.460
 1262BOLB   C3D30287  28.200  17.840  11.460
 1262BOLB   C4D30288  28.470  18.240  11.700
 1263BOLB   NC130289  11.810  20.430   6.860
 1263BOLB   PO130290  11.840  20.220   6.450
 1263BOLB   GL130291  11.600  20.020   6.230
 1263BOLB   GL230292  11.540  20.150   6.040
 1263BOLB   C1A30293  11.500  19.640   5.990
 1263BOLB   C2A30294  11.060  19.570   6.070
 1263BOLB   C3A30295  10.640  19.870   6.150
 1263BOLB   C4A30296  10.640  20.290   6.060
 1263BOLB   C1B30297  11.550  20.410   5.600
 1263BOLB   C2B30298  11.710  20.720   5.250
 1263BOLB   C3B30299  11.570  21.150   5.220
 1263BOLB   C4B30300  11.210  21.110   4.980
 1263BOLB   NC230301   8.240  21.280   4.690
 1263BOLB   PO230302   8.510  21.070   4.590
 1263BOLB   GL330303   8.780  20.910   4.830
 1263BOLB   GL430304   9.020  20.910   4.580
 1263BOLB   C1C30305   9.170  20.910   5.150
 1263BOLB   C2C30306   9.510  20.950   5.410
 1263BOLB   C3C30307   9.940  20.730   5.650
 1263BOLB   C4C30308  10.310  20.600   5.730
 1263BOLB   C1D30309   9.310  21.110   4.690
 1263BOLB   C2D30310   9.730  21.300   4.810
 1263BOLB   C3D30311   9.980  21.460   4.510
 1263BOLB   C4D30312  10.120  21.470   4.090
 1264BOLB   NC130313  22.880  15.560  11.500
 1264BOLB   PO130314  23.180  15.460  11.840
 1264BOLB   GL130315  23.510  15.240  11.930
 1264BOLB   GL230316  23.310  14.940  11.710
 1264BOLB   C1A30317  23.940  14.870  11.900
 1264BOLB   C2A30318  24.130  14.750  11.590
 1264BOLB   C3A30319  24.110  14.310  11.350
 1264BOLB   C4A30320  24.240  13.880  11.340
 1264BOLB   C1B30321  23.620  14.690  11.370
 1264BOLB   C2B30322  23.510  14.480  11.010
 1264BOLB   C3B30323  23.900  14.200  10.920
 1264BOLB   C4B30324  24.340  14.190  10.960
 1264BOLB   NC230325  25.230  11.440  12.360
 1264BOLB   PO230326  25.390  11.550  11.830
 1264BOLB   GL330327  25.030  11.800  11.960
 1264BOLB   GL430328  24.760  11.800  11.980
 1264BOLB   C1C30329  24.950  12.190  11.740
 1264BOLB   C2C30330  24.700  12.440  11.350
 1264BOLB   C3C30331  24.520  12.900  11.390
 1264BOLB   C4C30332  24.300  13.360  11.440
 1264BOLB   C1D30333  24.450  11.960  11.690
 1264BOLB   C2D30334  24.240  12.380  11.560
 1264BOLB   C3D30335  24.120  12.600  11.840
 1264BOLB   C4D30336  23.800  12.870  11.910
 1265BOLB   NC130337  12.010  24.000   7.690
 1265BOLB   PO130338  11.840  23.570   7.600
 1265BOLB   GL130339  11.740  23.830   7.300
 1265BOLB   GL230340  11.920  23.850   7.080
 1265BOLB   C1A30341  11.540  24.210   7.050
 1265BOLB   C2A30342  11.470  24.250   6.660
 1265BOLB   C3A30343  11.190  24.580   6.440
 1265BOLB   C4A30344  11.240  24.750   6.050
 1265BOLB   C1B30345  11.590  23.750   6.860
 1265BOLB   C2B30346  11.360  23.780   6.530
 1265BOLB   C3B30347  11.380  23.590   6.120
 1265BOLB   C4B30348  11.680  23.500   5.790
 1265BOLB   NC230349  10.570  25.180   3.850
 1265BOLB   PO230350  10.820  24.930   3.570
 1265BOLB   GL330351  10.990  24.790   4.010
 1265BOLB   GL430352  10.690  24.760   4.280
 1265BOLB   C1C30353  11.190  24.690   4.410
 1265BOLB   C2C30354  11.130  24.650   4.840
 1265BOLB   C3C30355  11.190  24.760   5.210
 1265BOLB   C4C30356  11.170  24.630   5.630
 1265BOLB   C1D30357  10.660  24.690   4.660
 1265BOLB   C2D30358  10.620  24.720   5.080
 1265BOLB   C3D30359  10.670  24.750   5.490
 1265BOLB   C4D30360  10.740  24.780   5.890
 1266BOLB   NC130361  17.650  29.460  10.160
 1266BOLB   PO130362  17.280  29.270   9.910
 1266BOLB   GL130363  17.190  29.490   9.510
 1266BOLB   GL230364  17.060  29.340   9.310
 1266BOLB   C1A30365  17.120  29.880   9.240
 1266BOLB   C2A30366  16.830  30.200   9.150
 1266BOLB   C3A30367  16.780  30.660   9.190
 1266BOLB   C4A30368  16.900  31.070   9.320
 1266BOLB   C1B30369  16.640  29.590   9.280
 1266BOLB   C2B30370  16.260  29.940   8.980
 1266BOLB   C3B30371  15.820  30.140   8.820
 1266BOLB   C4B30372  15.440  30.120   9.110
 1266BOLB   NC230373  16.280  33.460   9.480
 1266BOLB   PO230374  16.640  33.460   9.180
 1266BOLB   GL330375  16.890  33.140   9.270
 1266BOLB   GL430376  17.050  32.860   9.200
 1266BOLB   C1C30377  16.570  32.840   9.370
 1266BOLB   C2C30378  16.540  32.350   9.370
 1266BOLB   C3C30379  16.540  31.890   9.400
 1266BOLB   C4C30380  16.760  31.530   9.450
 1266BOLB   C1D30381  16.990  32.470   9.430
 1266BOLB   C2D30382  16.900  32.140   9.690
 1266BOLB   C3D30383  17.130  31.860   9.790
 1266BOLB   C4D30384  17.060  31.550  10.020
 1267BOLB   NC130385  17.150  29.120  13.270
 1267BOLB   PO130386  17.100  29.370  13.690
 1267BOLB   GL130387  16.960  29.790  13.710
 1267BOLB   GL230388  16.750  29.790  13.940
 1267BOLB   C1A30389  16.910  30.220  13.630
 1267BOLB   C2A30390  16.890  30.600  13.900
 1267BOLB   C3A30391  16.870  31.010  13.810
 1267BOLB   C4A30392  16.940  31.450  13.960
 1267BOLB   C1B30393  16.470  30.070  14.040
 1267BOLB   C2B30394  16.400  30.480  14.180
 1267BOLB   C3B30395  16.360  30.940  14.330
 1267BOLB   C4B30396  16.400  31.350  14.510
 1267BOLB   NC230397  16.770  34.360  13.340
 1267BOLB   PO230398  16.870  34.020  13.580
 1267BOLB   GL330399  16.890  33.580  13.290
 1267BOLB   GL430400  16.960  33.250  13.080
 1267BOLB   C1C30401  16.820  33.110  13.560
 1267BOLB   C2C30402  16.800  32.670  13.650
 1267BOLB   C3C30403  16.820  32.320  13.910
 1267BOLB   C4C30404  16.990  31.890  14.030
 1267BOLB   C1D30405  17.240  32.990  12.900
 1267BOLB   C2D30406  17.290  32.600  12.960
 1267BOLB   C3D30407  17.280  32.210  13.120
 1267BOLB   C4D30408  17.460  31.880  13.090
 1268BOLB   NC130409  25.030  21.220  10.480
 1268BOLB   PO130410  25.120  20.800  10.580
 1268BOLB   GL130411  25.430  20.630  10.670
 1268BOLB   GL230412  25.410  20.260  10.500
 1268BOLB   C1A30413  25.850  20.760  10.690
 1268BOLB   C2A30414  26.110  20.670  10.390
 1268BOLB   C3A30415  26.600  20.710  10.320
 1268BOLB   C4A30416  26.890  20.760  10.040
 1268BOLB   C1B30417  25.690  20.420  10.240
 1268BOLB   C2B30418  26.120  20.490   9.910
 1268BOLB   C3B30419  26.500  20.370   9.980
 1268BOLB   C4B30420  26.780  20.030  10.110
 1268BOLB   NC230421  28.990  20.780   8.210
 1268BOLB   PO230422  29.030  20.780   8.630
 1268BOLB   GL330423  28.750  20.910   8.890
 1268BOLB   GL430424  28.520  21.120   8.720
 1268BOLB   C1C30425  28.370  20.780   9.180
 1268BOLB   C2C30426  28.040  20.810   9.550
 1268BOLB   C3C30427  27.770  20.770   9.790
 1268BOLB   C4C30428  27.310  20.780   9.770
 1268BOLB   C1D30429  28.140  21.260   8.940
 1268BOLB   C2D30430  27.790  21.450   8.970
 1268BOLB   C3D30431  27.590  21.640   9.310
 1268BOLB   C4D30432  27.230  21.700   9.430
 1269BOLB   NC130433  23.030  17.230  15.780
 1269BOLB   PO130434  23.460  17.190  15.960
 1269BOLB   GL130435  23.730  16.790  15.980
 1269BOLB   GL230436  23.610  16.500  16.020
 1269BOLB   C1A30437  24.110  16.710  16.130
 1269BOLB   C2A30438  24.280  16.370  16.410
 1269BOLB   C3A30439  24.490  15.990  16.550
 1269BOLB   C4A30440  24.800  15.680  16.630
 1269BOLB   C1B30441  23.780  16.470  16.410
 1269BOLB   C2B30442  24.050  16.580  16.790
 1269BOLB   C3B30443  24.170  16.170  16.900
 1269BOLB   C4B30444  24.540  16.050  17.110
 1269BOLB   NC230445  27.080  14.610  16.110
 1269BOLB   PO230446  26.940  14.710  16.570
 1269BOLB   GL330447  26.490  14.580  16.470
 1269BOLB   GL430448  26.220  14.470  16.640
 1269BOLB   C1C30449  26.130  14.880  16.400
 1269BOLB   C2C30450  26.030  15.270  16.240
 1269BOLB   C3C30451  25.530  15.270  16.310
 1269BOLB   C4C30452  25.000  15.390  16.470
 1269BOLB   C1D30453  25.820  14.410  16.400
 1269BOLB   C2D30454  25.370  14.450  16.160
 1269BOLB   C3D30455  24.940  14.530  16.070
 1269BOLB   C4D30456  24.560  14.590  15.860
 1270BOLB   NC130457  23.660  27.200   9.410
 1270BOLB   PO130458  24.010  27.470   9.480
 1270BOLB   GL130459  24.370  27.520   9.260
 1270BOLB   GL230460  24.480  27.200   9.400
 1270BOLB   C1A30461  24.660  27.540   8.920
 1270BOLB   C2A30462  24.700  27.350   8.480
 1270BOLB   C3A30463  24.770  27.420   8.050
 1270BOLB   C4A30464  25.140  27.520   7.960
 1270BOLB   C1B30465  24.880  27.560   9.390
 1270BOLB   C2B30466  25.080  27.890   9.390
 1270BOLB   C3B30467  24.990  28.430   9.290
 1270BOLB   C4B30468  24.860  28.840   9.380
 1270BOLB   NC230469  27.920  27.870   8.150
 1270BOLB   PO230470  27.410  27.990   8.120
 1270BOLB   GL330471  27.060  27.940   8.350
 1270BOLB   GL430472  27.140  27.960   8.650
 1270BOLB   C1C30473  26.660  27.740   8.370
 1270BOLB   C2C30474  26.290  27.490   8.240
 1270BOLB   C3C30475  25.880  27.430   8.050
 1270BOLB   C4C30476  25.490  27.370   8.100
 1270BOLB   C1D30477  26.790  27.730   8.900
 1270BOLB   C2D30478  26.960  27.600   9.300
 1270BOLB   C3D30479  26.870  27.380   9.680
 1270BOLB   C4D30480  26.720  27.380  10.150
 1271BOLB   NC130481  13.030   8.960  17.840
 1271BOLB   PO130482  13.320   9.140  18.200
 1271BOLB   GL130483  13.550   9.560  18.230
 1271BOLB   GL230484  13.920   9.480  18.290
 1271BOLB   C1A30485  13.440  10.000  18.080
 1271BOLB   C2A30486  13.320  10.280  17.770
 1271BOLB   C3A30487  13.030  10.310  17.330
 1271BOLB   C4A30488  12.740  10.540  17.200
 1271BOLB   C1B30489  13.940   9.940  18.010
 1271BOLB   C2B30490  13.940  10.290  17.650
 1271BOLB   C3B30491  14.290  10.590  17.530
 1271BOLB   C4B30492  14.690  10.890  17.600
 1271BOLB   NC230493  12.140   9.630  18.700
 1271BOLB   PO230494  11.730   9.610  18.670
 1271BOLB   GL330495  11.830  10.040  18.800
 1271BOLB   GL430496  11.490  10.190  18.710
 1271BOLB   C1C30497  12.060  10.400  18.590
 1271BOLB   C2C30498  12.160  10.680  18.410
 1271BOLB   C3C30499  12.460  10.670  18.140
 1271BOLB   C4C30500  12.570  10.700  17.630
 1271BOLB   C1D30501  11.570  10.560  18.470
 1271BOLB   C2D30502  11.450  10.680  18.020
 1271BOLB   C3D30503  11.110  10.730  17.690
 1271BOLB   C4D30504  10.700  10.780  17.770
 1272BOLB   NC130505  17.460  29.620  11.850
 1272BOLB   PO130506  17.180  29.710  12.170
 1272BOLB   GL130507  17.140  30.120  12.140
 1272BOLB   GL230508  17.300  30.310  12.040
 1272BOLB   C1A30509  16.770  30.410  12.080
 1272BOLB   C2A30510  16.670  30.850  12.230
 1272BOLB   C3A30511  16.430  31.140  11.980
 1272BOLB   C4A30512  16.070  31.360  11.890
 1272BOLB   C1B30513  17.240  30.780  11.980
 1272BOLB   C2B30514  17.040  31.160  11.950
 1272BOLB   C3B30515  16.780  31.450  12.230
 1272BOLB   C4B30516  16.430  31.640  12.180
 1272BOLB   NC230517  15.010  33.740  11.500
 1272BOLB   PO230518  14.700  33.580  11.620
 1272BOLB   GL330519  15.090  33.260  11.700
 1272BOLB   GL430520  15.030  32.960  11.990
 1272BOLB   C1C30521  15.490  33.050  11.780
 1272BOLB   C2C30522  15.630  32.660  11.900
 1272BOLB   C3C30523  15.800  32.210  11.900
 1272BOLB   C4C30524  15.810  31.680  11.780
 1272BOLB   C1D30525  15.080  32.510  12.170
 1272BOLB   C2D30526  15.330  32.260  12.100
 1272BOLB   C3D30527  15.530  31.990  12.260
 1272BOLB   C4D30528  15.840  31.640  12.340
 1273BOLB   NC130529  22.530  21.230   6.330
 1273BOLB   PO130530  22.080  21.080   6.220
 1273BOLB   GL130531  22.280  20.840   5.960
 1273BOLB   GL230532  22.390  21.060   5.820
 1273BOLB   C1A30533  22.440  20.540   5.620
 1273BOLB   C2A30534  22.770  20.600   5.270
 1273BOLB   C3A30535  22.810  20.740   4.860
 1273BOLB   C4A30536  22.830  21.020   4.620
 1273BOLB   C1B30537  22.720  21.100   5.490
 1273BOLB   C2B30538  22.840  21.250   5.090
 1273BOLB   C3B30539  22.960  21.590   4.910
 1273BOLB   C4B30540  23.290  21.890   4.790
 1273BOLB   NC230541  23.470  20.720   2.380
 1273BOLB   PO230542  23.850  20.570   2.550
 1273BOLB   GL330543  23.510  20.500   2.780
 1273BOLB   GL430544  23.480  20.150   2.940
 1273BOLB   C1C30545  23.300  20.600   3.040
 1273BOLB   C2C30546  23.140  20.600   3.460
 1273BOLB   C3C30547  22.860  20.770   3.840
 1273BOLB   C4C30548  22.910  20.950   4.070
 1273BOLB   C1D30549  23.120  20.060   3.220
 1273BOLB   C2D30550  22.870  20.250   3.640
 1273BOLB   C3D30551  22.600  20.380   4.010
 1273BOLB   C4D30552  22.210  20.570   4.020
 1274BOLB   NC130553  12.300  20.090   6.060
 1274BOLB   PO130554  12.450  19.650   5.880
 1274BOLB   GL130555  12.230  19.910   5.650
 1274BOLB   GL230556  11.900  20.020   5.740
 1274BOLB   C1A30557  11.890  19.800   5.270
 1274BOLB   C2A30558  11.630  19.680   4.930
 1274BOLB   C3A30559  11.530  19.230   4.920
 1274BOLB   C4A30560  11.500  18.840   4.790
 1274BOLB   C1B30561  11.480  19.890   5.590
 1274BOLB   C2B30562  10.950  19.780   5.600
 1274BOLB   C3B30563  10.660  20.180   5.500
 1274BOLB   C4B30564  10.270  20.080   5.800
 1274BOLB   NC230565  10.070  18.460   3.250
 1274BOLB   PO230566  10.430  18.740   3.180
 1274BOLB   GL330567  10.440  18.620   3.600
 1274BOLB   GL430568  10.210  18.710   3.870
 1274BOLB   C1C30569  10.630  18.380   3.990
 1274BOLB   C2C30570  10.860  18.260   4.300
 1274BOLB   C3C30571  11.290  18.200   4.410
 1274BOLB   C4C30572  11.490  18.500   4.470
 1274BOLB   C1D30573  10.400  18.740   4.270
 1274BOLB   C2D30574  10.490  18.810   4.660
 1274BOLB   C3D30575  10.690  18.850   5.100
 1274BOLB   C4D30576  10.860  18.900   5.480
 1275BOLB   NC130577  12.420  22.530   7.070
 1275BOLB   PO130578  12.810  22.730   6.830
 1275BOLB   GL130579  12.700  22.740   6.390
 1275BOLB   GL230580  12.710  23.110   6.430
 1275BOLB   C1A30581  12.360  22.510   6.100
 1275BOLB   C2A30582  11.950  22.560   6.060
 1275BOLB   C3A30583  11.580  22.580   5.820
 1275BOLB   C4A30584  11.340  22.700   5.470
 1275BOLB   C1B30585  12.450  23.400   6.250
 1275BOLB   C2B30586  12.100  23.600   6.110
 1275BOLB   C3B30587  11.750  23.910   6.230
 1275BOLB   C4B30588  11.420  24.150   6.140
 1275BOLB   NC230589  11.120  24.480   3.570
 1275BOLB   PO230590  10.800  24.340   3.910
 1275BOLB   GL330591  10.890  24.200   4.200
 1275BOLB   GL430592  10.880  24.260   4.460
 1275BOLB   C1C30593  10.920  23.780   4.490
 1275BOLB   C2C30594  11.170  23.500   4.830
 1275BOLB   C3C30595  11.200  23.430   5.140
 1275BOLB   C4C30596  11.220  23.060   5.240
 1275BOLB   C1D30597  11.190  24.100   4.770
 1275BOLB   C2D30598  11.290  23.920   5.160
 1275BOLB   C3D30599  11.610  23.690   5.350
 1275BOLB   C4D30600  11.670  23.270   5.330
 1276BOLB   NC130601  21.890  23.670   6.940
 1276BOLB   PO130602  21.670  23.820   6.610
 1276BOLB   GL130603  21.730  23.970   6.200
 1276BOLB   GL230604  21.940  23.840   5.930
 1276BOLB   C1A30605  21.510  24.130   5.700
 1276BOLB   C2A30606  21.650  24.320   5.300
 1276BOLB   C3A30607  21.810  24.520   4.820
 1276BOLB   C4A30608  21.790  24.430   4.310
 1276BOLB   C1B30609  21.900  23.960   5.430
 1276BOLB   C2B30610  21.930  23.970   4.900
 1276BOLB   C3B30611  21.720  24.020   4.570
 1276BOLB   C4B30612  21.640  23.800   4.190
 1276BOLB   NC230613  22.050  24.780   2.010
 1276BOLB   PO230614  21.830  24.360   2.090
 1276BOLB   GL330615  21.850  23.960   2.390
 1276BOLB   GL430616  21.790  23.730   2.260
 1276BOLB   C1C30617  21.700  23.850   2.760
 1276BOLB   C2C30618  21.640  24.000   3.130
 1276BOLB   C3C30619  21.760  24.260   3.520
 1276BOLB   C4C30620  21.910  24.160   3.920
 1276BOLB   C1D30621  21.420  23.430   2.630
 1276BOLB   C2D30622  21.270  23.560   2.980
 1276BOLB   C3D30623  21.300  23.610   3.370
 1276BOLB   C4D30624  21.580  23.830   3.650
 1277BOLB   NC130625  11.470  20.070   9.370
 1277BOLB   PO130626  11.440  19.730   9.180
 1277BOLB   GL130627  11.130  19.400   9.010
 1277BOLB   GL230628  11.300  19.120   8.840
 1277BOLB   C1A30629  10.820  19.110   9.040
 1277BOLB   C2A30630  10.710  18.710   9.060
 1277BOLB   C3A30631  10.880  18.340   9.040
 1277BOLB   C4A30632  10.980  17.990   9.210
 1277BOLB   C1B30633  11.250  18.700   9.080
 1277BOLB   C2B30634  10.960  18.660   9.520
 1277BOLB   C3B30635  10.520  18.630   9.540
 1277BOLB   C4B30636  10.280  18.820   9.950
 1277BOLB   NC230637   9.900  16.770  11.450
 1277BOLB   PO230638  10.320  16.780  11.340
 1277BOLB   GL330639  10.390  16.890  10.890
 1277BOLB   GL430640  10.200  17.220  11.020
 1277BOLB   C1C30641  10.600  17.030  10.510
 1277BOLB   C2C30642  10.640  17.360  10.200
 1277BOLB   C3C30643  10.680  17.720   9.950
 1277BOLB   C4C30644  10.690  17.750   9.420
 1277BOLB   C1D30645  10.280  17.520  10.650
 1277BOLB   C2D30646  10.180  17.870  10.230
 1277BOLB   C3D30647  10.310  18.020   9.720
 1277BOLB   C4D30648  10.280  18.200   9.310
 1278BOLB   NC130649  17.690  26.540   6.610
 1278BOLB   PO130650  17.300  26.540   6.660
 1278BOLB   GL130651  17.460  26.860   6.280
 1278BOLB   GL230652  17.340  26.600   6.110
 1278BOLB   C1A30653  17.480  27.040   5.830
 1278BOLB   C2A30654  17.570  27.220   5.430
 1278BOLB   C3A30655  17.740  27.440   5.130
 1278BOLB   C4A30656  18.160  27.300   4.910
 1278BOLB   C1B30657  17.470  26.580   5.670
 1278BOLB   C2B30658  17.210  26.570   5.380
 1278BOLB   C3B30659  16.870  26.400   5.390
 1278BOLB   C4B30660  16.800  25.900   5.480
 1278BOLB   NC230661  18.690  28.580   2.820
 1278BOLB   PO230662  18.560  28.360   3.150
 1278BOLB   GL330663  18.370  28.430   3.530
 1278BOLB   GL430664  18.260  28.160   3.610
 1278BOLB   C1C30665  18.610  28.380   3.890
 1278BOLB   C2C30666  18.660  28.090   4.160
 1278BOLB   C3C30667  18.690  27.690   4.410
 1278BOLB   C4C30668  18.470  27.430   4.590
 1278BOLB   C1D30669  18.710  27.930   3.650
 1278BOLB   C2D30670  19.090  28.000   3.460
 1278BOLB   C3D30671  19.370  27.690   3.430
 1278BOLB   C4D30672  19.460  27.300   3.610
 1279BOLB   NC130673  14.400  16.400   6.440
 1279BOLB   PO130674  13.910  16.400   6.550
 1279BOLB   GL130675  13.670  16.270   6.160
 1279BOLB   GL230676  13.530  15.980   6.270
 1279BOLB   C1A30677  13.610  16.000   5.770
 1279BOLB   C2A30678  13.400  15.980   5.470
 1279BOLB   C3A30679  13.450  15.630   5.240
 1279BOLB   C4A30680  13.530  15.420   4.910
 1279BOLB   C1B30681  13.120  15.980   6.450
 1279BOLB   C2B30682  12.750  15.950   6.230
 1279BOLB   C3B30683  12.660  15.430   6.200
 1279BOLB   C4B30684  12.380  15.180   6.310
 1279BOLB   NC230685  12.800  14.410   2.950
 1279BOLB   PO230686  13.120  14.130   3.050
 1279BOLB   GL330687  13.180  14.210   3.300
 1279BOLB   GL430688  13.590  14.280   3.320
 1279BOLB   C1C30689  13.330  14.450   3.720
 1279BOLB   C2C30690  13.270  14.670   4.120
 1279BOLB   C3C30691  13.520  14.930   4.340
 1279BOLB   C4C30692  13.630  15.270   4.590
 1279BOLB   C1D30693  13.940  14.530   3.290
 1279BOLB   C2D30694  14.270  14.610   3.580
 1279BOLB   C3D30695  14.650  14.510   3.800
 1279BOLB   C4D30696  15.100  14.360   3.960
 1280BOLB   NC130697  13.770  15.570   7.780
 1280BOLB   PO130698  13.610  15.250   7.890
 1280BOLB   GL130699  13.270  15.180   7.990
 1280BOLB   GL230700  13.100  15.420   7.930
 1280BOLB   C1A30701  12.950  14.860   7.800
 1280BOLB   C2A30702  12.550  14.700   7.950
 1280BOLB   C3A30703  12.380  14.840   8.320
 1280BOLB   C4A30704  12.170  15.130   8.570
 1280BOLB   C1B30705  12.620  15.570   7.800
 1280BOLB   C2B30706  12.430  15.940   7.690
 1280BOLB   C3B30707  11.970  16.070   7.550
 1280BOLB   C4B30708  11.650  16.040   7.200
 1280BOLB   NC230709   9.930  13.990   8.370
 1280BOLB   PO230710  10.060  14.200   8.060
 1280BOLB   GL330711  10.470  14.280   8.240
 1280BOLB   GL430712  10.550  13.940   8.240
 1280BOLB   C1C30713  10.720  14.530   8.370
 1280BOLB   C2C30714  11.000  14.900   8.500
 1280BOLB   C3C30715  11.370  14.880   8.840
 1280BOLB   C4C30716  11.770  15.000   8.760
 1280BOLB   C1D30717  10.940  14.060   8.340
 1280BOLB   C2D30718  11.310  14.000   8.570
 1280BOLB   C3D30719  11.660  13.650   8.610
 1280BOLB   C4D30720  11.570  13.230   8.520
 1281BOLB   NC130721  21.580  27.940  16.650
 1281BOLB   PO130722  21.430  28.170  17.070
 1281BOLB   GL130723  21.360  28.560  17.440
 1281BOLB   GL230724  21.610  28.810  17.470
 1281BOLB   C1A30725  21.210  28.920  17.710
 1281BOLB   C2A30726  21.040  29.050  18.060
 1281BOLB   C3A30727  21.310  29.490  18.080
 1281BOLB   C4A30728  21.440  29.770  18.300
 1281BOLB   C1B30729  21.640  29.020  17.910
 1281BOLB   C2B30730  21.460  29.160  18.410
 1281BOLB   C3B30731  21.420  29.450  18.860
 1281BOLB   C4B30732  21.440  29.790  19.080
 1281BOLB   NC230733  21.960  31.760  19.700
 1281BOLB   PO230734  22.090  31.970  19.320
 1281BOLB   GL330735  22.040  31.530  19.200
 1281BOLB   GL430736  21.960  31.220  19.480
 1281BOLB   C1C30737  21.810  31.330  19.030
 1281BOLB   C2C30738  21.600  31.000  18.950
 1281BOLB   C3C30739  21.510  30.560  18.760
 1281BOLB   C4C30740  21.570  30.110  18.630
 1281BOLB   C1D30741  21.770  30.820  19.380
 1281BOLB   C2D30742  21.710  30.500  19.160
 1281BOLB   C3D30743  21.420  30.280  19.410
 1281BOLB   C4D30744  21.380  29.970  19.530
 1282BOLB   NC130745  23.780  27.060  17.530
 1282BOLB   PO130746  24.170  27.280  17.610
 1282BOLB   GL130747  24.430  27.570  17.760
 1282BOLB   GL230748  24.430  27.730  17.580
 1282BOLB   C1A30749  24.800  27.510  18.120
 1282BOLB   C2A30750  25.180  27.530  18.380
 1282BOLB   C3A30751  25.270  27.650  18.850
 1282BOLB   C4A30752  25.210  27.910  19.150
 1282BOLB   C1B30753  24.870  27.810  17.740
 1282BOLB   C2B30754  25.330  27.940  17.630
 1282BOLB   C3B30755  25.540  28.220  17.950
 1282BOLB   C4B30756  26.060  28.300  18.170
 1282BOLB   NC230757  26.470  27.440  21.470
 1282BOLB   PO230758  26.280  27.740  21.290
 1282BOLB   GL330759  25.800  27.820  21.140
 1282BOLB   GL430760  25.500  27.790  21.350
 1282BOLB   C1C30761  25.530  28.080  20.770
 1282BOLB   C2C30762  25.350  28.270  20.330
 1282BOLB   C3C30763  25.210  28.040  20.010
 1282BOLB   C4C30764  25.220  28.100  19.610
 1282BOLB   C1D30765  25.230  27.710  21.020
 1282BOLB   C2D30766  25.340  27.400  20.690
 1282BOLB   C3D30767  25.090  27.590  20.220
 1282BOLB   C4D30768  24.970  27.680  19.780
 1283BOLB   NC130769  25.920  24.650  12.820
 1283BOLB   PO130770  26.110  24.250  12.830
 1283BOLB   GL130771  26.590  24.310  12.810
 1283BOLB   GL230772  26.690  24.380  13.100
 1283BOLB   C1A30773  26.860  24.600  12.480
 1283BOLB   C2A30774  27.250  24.740  12.330
 1283BOLB   C3A30775  27.570  24.600  12.290
 1283BOLB   C4A30776  27.790  24.160  12.400
 1283BOLB   C1B30777  27.100  24.390  13.030
 1283BOLB   C2B30778  27.310  24.720  12.850
 1283BOLB   C3B30779  27.470  25.080  12.610
 1283BOLB   C4B30780  27.790  25.240  12.450
 1283BOLB   NC230781  30.370  24.890  12.560
 1283BOLB   PO230782  30.210  24.560  12.400
 1283BOLB   GL330783  29.790  24.400  12.210
 1283BOLB   GL430784  29.840  24.670  11.890
 1283BOLB   C1C30785  29.370  24.450  12.260
 1283BOLB   C2C30786  28.930  24.440  12.150
 1283BOLB   C3C30787  28.520  24.370  12.100
 1283BOLB   C4C30788  28.260  24.120  12.190
 1283BOLB   C1D30789  29.430  24.790  11.840
 1283BOLB   C2D30790  29.010  24.640  11.740
 1283BOLB   C3D30791  28.600  24.640  11.620
 1283BOLB   C4D30792  28.150  24.620  11.540
 1284BOLB   NC130793  11.300  13.810  22.500
 1284BOLB   PO130794  11.640  13.520  22.420
 1284BOLB   GL130795  11.590  13.810  22.030
 1284BOLB   GL230796  11.290  14.060  21.990
 1284BOLB   C1A30797  11.680  14.310  21.930
 1284BOLB   C2A30798  11.840  14.380  21.540
 1284BOLB   C3A30799  11.740  14.650  21.200
 1284BOLB   C4A30800  11.520  14.870  20.810
 1284BOLB   C1B30801  11.270  14.390  21.590
 1284BOLB   C2B30802  11.400  14.290  21.230
 1284BOLB   C3B30803  11.760  14.280  20.880
 1284BOLB   C4B30804  12.170  14.330  20.760
 1284BOLB   NC230805   9.810  14.910  22.550
 1284BOLB   PO230806   9.960  15.350  22.290
 1284BOLB   GL330807  10.170  15.530  21.980
 1284BOLB   GL430808   9.960  15.730  21.860
 1284BOLB   C1C30809  10.150  15.550  21.500
 1284BOLB   C2C30810  10.290  15.320  21.040
 1284BOLB   C3C30811  10.610  15.160  20.790
 1284BOLB   C4C30812  11.070  15.040  20.770
 1284BOLB   C1D30813  10.270  16.050  21.530
 1284BOLB   C2D30814  10.490  15.860  21.200
 1284BOLB   C3D30815  10.500  15.770  20.780
 1284BOLB   C4D30816  10.260  15.400  20.550
 1285BOLB   NC130817  10.770  20.650   8.040
 1285BOLB   PO130818  10.430  20.890   8.220
 1285BOLB   GL130819  10.270  20.760   7.790
 1285BOLB   GL230820  10.160  20.410   8.030
 1285BOLB   C1A30821  10.200  20.720   7.380
 1285BOLB   C2A30822  10.060  20.540   7.020
 1285BOLB   C3A30823   9.860  20.360   6.710
 1285BOLB   C4A30824   9.550  20.130   6.380
 1285BOLB   C1B30825   9.720  20.090   8.090
 1285BOLB   C2B30826   9.390  20.140   7.760
 1285BOLB   C3B30827   9.310  20.470   7.650
 1285BOLB   C4B30828   9.030  20.620   7.410
 1285BOLB   NC230829   7.970  19.610   4.520
 1285BOLB   PO230830   8.140  20.000   4.740
 1285BOLB   GL330831   8.510  19.950   4.850
 1285BOLB   GL430832   8.790  19.870   4.810
 1285BOLB   C1C30833   8.750  20.180   5.210
 1285BOLB   C2C30834   8.830  20.020   5.570
 1285BOLB   C3C30835   9.210  20.100   5.670
 1285BOLB   C4C30836   9.420  20.000   6.090
 1285BOLB   C1D30837   9.070  19.810   5.110
 1285BOLB   C2D30838   9.600  19.890   5.250
 1285BOLB   C3D30839  10.090  19.700   5.360
 1285BOLB   C4D30840  10.460  19.710   5.500
 1286BOLB   NC130841  17.720  12.720  12.250
 1286BOLB   PO130842  18.080  12.510  12.020
 1286BOLB   GL130843  18.350  12.200  11.920
 1286BOLB   GL230844  18.540  12.250  11.570
 1286BOLB   C1A30845  18.260  11.800  11.720
 1286BOLB   C2A30846  18.210  11.400  11.730
 1286BOLB   C3A30847  18.090  10.970  11.620
 1286BOLB   C4A30848  18.220  10.600  11.730
 1286BOLB   C1B30849  18.720  11.880  11.610
 1286BOLB   C2B30850  18.790  11.440  11.370
 1286BOLB   C3B30851  19.030  11.140  11.200
 1286BOLB   C4B30852  18.960  10.690  11.080
 1286BOLB   NC230853  19.880   8.910  11.690
 1286BOLB   PO230854  19.570   8.590  11.520
 1286BOLB   GL330855  19.310   8.880  11.780
 1286BOLB   GL430856  19.290   9.040  12.070
 1286BOLB   C1C30857  19.000   9.210  11.620
 1286BOLB   C2C30858  18.900   9.650  11.520
 1286BOLB   C3C30859  18.910  10.040  11.590
 1286BOLB   C4C30860  18.570  10.250  11.790
 1286BOLB   C1D30861  19.260   9.460  12.140
 1286BOLB   C2D30862  19.240   9.920  12.340
 1286BOLB   C3D30863  18.930  10.290  12.360
 1286BOLB   C4D30864  18.590  10.580  12.260
 1287BOLB   NC130865  15.030  13.020   8.490
 1287BOLB   PO130866  15.050  13.450   8.210
 1287BOLB   GL130867  15.140  13.040   7.950
 1287BOLB   GL230868  15.110  12.610   8.050
 1287BOLB   C1A30869  15.060  12.770   7.580
 1287BOLB   C2A30870  15.120  12.400   7.230
 1287BOLB   C3A30871  15.040  12.320   6.780
 1287BOLB   C4A30872  14.850  12.340   6.500
 1287BOLB   C1B30873  14.880  12.280   8.230
 1287BOLB   C2B30874  14.630  12.050   8.120
 1287BOLB   C3B30875  14.130  12.260   7.940
 1287BOLB   C4B30876  13.900  12.680   8.010
 1287BOLB   NC230877  15.010  10.890   5.110
 1287BOLB   PO230878  14.660  10.770   5.380
 1287BOLB   GL330879  14.720  10.750   5.870
 1287BOLB   GL430880  14.350  10.720   6.110
 1287BOLB   C1C30881  14.860  10.850   6.270
 1287BOLB   C2C30882  14.660  11.170   6.430
 1287BOLB   C3C30883  14.700  11.590   6.290
 1287BOLB   C4C30884  14.970  11.970   6.300
 1287BOLB   C1D30885  14.340  11.110   5.860
 1287BOLB   C2D30886  14.180  11.440   5.630
 1287BOLB   C3D30887  13.950  11.630   5.350
 1287BOLB   C4D30888  13.930  12.070   5.250
 1288BOLB   NC130889  22.420  17.820   8.570
 1288BOLB   PO130890  22.670  18.060   8.780
 1288BOLB   GL130891  22.950  17.640   8.600
 1288BOLB   GL230892  23.250  17.610   8.630
 1288BOLB   C1A30893  22.860  17.170   8.340
 1288BOLB   C2A30894  23.060  16.760   8.220
 1288BOLB   C3A30895  23.380  16.450   8.000
 1288BOLB   C4A30896  23.510  16.100   8.140
 1288BOLB   C1B30897  23.660  17.520   8.640
 1288BOLB   C2B30898  23.810  17.160   8.330
 1288BOLB   C3B30899  24.190  17.140   7.990
 1288BOLB   C4B30900  24.510  17.270   7.680
 1288BOLB   NC230901  24.680  14.730   6.390
 1288BOLB   PO230902  24.980  14.710   6.690
 1288BOLB   GL330903  24.870  15.060   7.070
 1288BOLB   GL430904  25.080  14.860   7.310
 1288BOLB   C1C30905  24.750  15.170   7.500
 1288BOLB   C2C30906  24.470  15.250   7.780
 1288BOLB   C3C30907  24.120  15.430   8.090
 1288BOLB   C4C30908  23.800  15.740   8.230
 1288BOLB   C1D30909  24.880  14.860   7.820
 1288BOLB   C2D30910  24.540  14.980   8.180
 1288BOLB   C3D30911  24.250  15.110   8.450
 1288BOLB   C4D30912  23.930  15.250   8.570
 1289BOLB   NC130913  21.480  29.180  14.780
 1289BOLB   PO130914  21.820  29.350  14.480
 1289BOLB   GL130915  21.810  29.810  14.700
 1289BOLB   GL230916  21.610  29.720  14.940
 1289BOLB   C1A30917  22.040  30.130  14.860
 1289BOLB   C2A30918  22.070  30.600  15.050
 1289BOLB   C3A30919  22.210  30.930  15.150
 1289BOLB   C4A30920  22.180  31.230  14.920
 1289BOLB   C1B30921  21.730  30.040  15.230
 1289BOLB   C2B30922  21.750  30.460  15.380
 1289BOLB   C3B30923  22.120  30.630  15.570
 1289BOLB   C4B30924  22.410  30.660  15.920
 1289BOLB   NC230925  21.590  34.130  15.450
 1289BOLB   PO230926  21.840  33.770  15.570
 1289BOLB   GL330927  21.950  33.400  15.300
 1289BOLB   GL430928  22.030  33.320  14.990
 1289BOLB   C1C30929  21.950  32.960  15.330
 1289BOLB   C2C30930  22.080  32.600  15.170
 1289BOLB   C3C30931  22.160  32.160  15.030
 1289BOLB   C4C30932  22.230  31.710  14.850
 1289BOLB   C1D30933  21.990  32.930  14.740
 1289BOLB   C2D30934  22.050  32.550  14.610
 1289BOLB   C3D30935  22.280  32.190  14.430
 1289BOLB   C4D30936  22.310  31.960  14.180
 1290BOLB   NC130937  12.280  23.710   7.410
 1290BOLB   PO130938  12.480  24.060   7.280
 1290BOLB   GL130939  12.280  24.280   6.980
 1290BOLB   GL230940  11.930  24.290   7.290
 1290BOLB   C1A30941  12.080  24.310   6.550
 1290BOLB   C2A30942  12.100  24.380   6.070
 1290BOLB   C3A30943  12.530  24.390   5.840
 1290BOLB   C4A30944  12.900  24.510   5.510
 1290BOLB   C1B30945  11.850  24.590   7.010
 1290BOLB   C2B30946  11.570  24.780   6.820
 1290BOLB   C3B30947  11.340  25.080   6.930
 1290BOLB   C4B30948  11.500  25.490   7.040
 1290BOLB   NC230949  11.800  25.900   3.400
 1290BOLB   PO230950  12.040  25.560   3.620
 1290BOLB   GL330951  12.280  25.410   4.020
 1290BOLB   GL430952  12.300  25.030   4.020
 1290BOLB   C1C30953  12.490  25.530   4.360
 1290BOLB   C2C30954  12.830  25.530   4.710
 1290BOLB   C3C30955  13.050  25.210   4.970
 1290BOLB   C4C30956  13.150  24.740   5.170
 1290BOLB   C1D30957  12.540  25.070   4.390
 1290BOLB   C2D30958  12.620  24.960   4.850
 1290BOLB   C3D30959  12.650  24.920   5.310
 1290BOLB   C4D30960  12.560  24.830   5.610
 1291BOLB   NC130961  15.920  14.890  18.390
 1291BOLB   PO130962  15.520  14.800  18.160
 1291BOLB   GL130963  15.500  14.390  18.370
 1291BOLB   GL230964  15.190  14.300  18.220
 1291BOLB   C1A30965  15.610  14.060  18.700
 1291BOLB   C2A30966  15.510  13.780  18.930
 1291BOLB   C3A30967  15.350  13.460  19.110
 1291BOLB   C4A30968  15.460  13.030  19.360
 1291BOLB   C1B30969  15.190  13.890  18.410
 1291BOLB   C2B30970  15.300  13.530  18.540
 1291BOLB   C3B30971  15.190  13.100  18.590
 1291BOLB   C4B30972  15.220  12.830  18.830
 1291BOLB   NC230973  15.670  11.550  21.560
 1291BOLB   PO230974  15.590  11.760  21.180
 1291BOLB   GL330975  15.870  12.100  21.040
 1291BOLB   GL430976  16.170  12.250  20.940
 1291BOLB   C1C30977  15.780  12.600  20.810
 1291BOLB   C2C30978  15.770  12.740  20.460
 1291BOLB   C3C30979  15.850  12.760  20.050
 1291BOLB   C4C30980  15.680  12.770  19.590
 1291BOLB   C1D30981  15.970  12.080  20.560
 1291BOLB   C2D30982  15.830  11.840  20.210
 1291BOLB   C3D30983  15.770  11.850  19.750
 1291BOLB   C4D30984  15.830  11.760  19.270
 1292BOLB   NC130985  18.660  24.180   5.620
 1292BOLB   PO130986  18.940  23.930   5.490
 1292BOLB   GL130987  19.000  24.300   5.280
 1292BOLB   GL230988  18.760  24.260   5.080
 1292BOLB   C1A30989  19.330  24.270   4.880
 1292BOLB   C2A30990  19.390  24.380   4.500
 1292BOLB   C3A30991  19.270  24.480   4.100
 1292BOLB   C4A30992  19.250  24.720   3.700
 1292BOLB   C1B30993  18.900  24.330   4.650
 1292BOLB   C2B30994  18.870  24.210   4.260
 1292BOLB   C3B30995  18.530  24.220   4.030
 1292BOLB   C4B30996  18.240  24.460   3.720
 1292BOLB   NC230997  19.490  26.290   1.790
 1292BOLB   PO230998  19.260  25.950   1.830
 1292BOLB   GL330999  19.020  25.750   2.140
 1292BOLB   GL431000  18.700  25.800   2.430
 1292BOLB   C1C31001  19.030  25.300   2.410
 1292BOLB   C2C31002  18.990  25.190   2.810
 1292BOLB   C3C31003  19.230  25.090   3.080
 1292BOLB   C4C31004  19.070  24.970   3.390
 1292BOLB   C1D31005  18.620  25.520   2.740
 1292BOLB   C2D31006  18.570  25.260   3.020
 1292BOLB   C3D31007  18.580  25.140   3.380
 1292BOLB   C4D31008  18.810  25.070   3.780
 1293BOLB   NC131009   9.020  21.130  13.720
 1293BOLB   PO131010   9.000  20.810  13.980
 1293BOLB   GL131011   8.570  20.850  13.830
 1293BOLB   GL231012   8.420  21.100  13.980
 1293BOLB   C1A31013   8.170  20.630  13.960
 1293BOLB   C2A31014   7.850  20.380  13.950
 1293BOLB   C3A31015   7.550  20.490  14.190
 1293BOLB   C4A31016   7.140  20.310  14.390
 1293BOLB   C1B31017   8.070  21.090  14.210
 1293BOLB   C2B31018   7.660  20.910  14.340
 1293BOLB   C3B31019   7.240  20.970  14.520
 1293BOLB   C4B31020   6.780  21.280  14.470
 1293BOLB   NC231021   5.130  19.290  16.020
 1293BOLB   PO231022   5.220  19.470  15.530
 1293BOLB   GL331023   5.640  19.330  15.310
 1293BOLB   GL431024   5.970  19.280  15.420
 1293BOLB   C1C31025   5.850  19.350  14.930
 1293BOLB   C2C31026   6.270  19.400  14.780
 1293BOLB   C3C31027   6.650  19.690  14.800
 1293BOLB   C4C31028   6.910  19.970  14.620
 1293BOLB   C1D31029   6.330  19.560  15.260
 1293BOLB   C2D31030   6.710  19.630  15.320
 1293BOLB   C3D31031   7.120  19.800  15.180
 1293BOLB   C4D31032   7.540  19.910  15.330
 1294BOLB   NC131033  15.120  25.010   6.840
 1294BOLB   PO131034  14.830  25.300   6.920
 1294BOLB   GL131035  14.510  25.540   6.710
 1294BOLB   GL231036  14.380  25.810   6.880
 1294BOLB   C1A31037  14.500  25.610   6.260
 1294BOLB   C2A31038  14.170  25.810   5.950
 1294BOLB   C3A31039  14.010  26.040   5.610
 1294BOLB   C4A31040  13.770  26.070   5.210
 1294BOLB   C1B31041  14.170  25.940   6.490
 1294BOLB   C2B31042  13.910  26.180   6.090
 1294BOLB   C3B31043  13.640  26.570   5.980
 1294BOLB   C4B31044  13.420  26.840   5.680
 1294BOLB   NC231045  12.040  28.130   4.660
 1294BOLB   PO231046  12.390  27.830   4.670
 1294BOLB   GL331047  12.560  27.500   4.610
 1294BOLB   GL431048  12.930  27.430   4.650
 1294BOLB   C1C31049  12.500  27.000   4.560
 1294BOLB   C2C31050  12.580  26.630   4.870
 1294BOLB   C3C31051  12.960  26.360   5.060
 1294BOLB   C4C31052  13.440  26.290   5.020
 1294BOLB   C1D31053  13.140  27.370   5.030
 1294BOLB   C2D31054  13.500  27.200   5.210
 1294BOLB   C3D31055  13.780  27.140   5.340
 1294BOLB   C4D31056  13.890  27.060   5.740
 1295BOLB   NC131057  25.740  24.490  16.120
 1295BOLB   PO131058  26.130  24.600  15.930
 1295BOLB   GL131059  26.540  24.620  16.160
 1295BOLB   GL231060  26.500  24.670  16.450
 1295BOLB   C1A31061  27.070  24.790  16.240
 1295BOLB   C2A31062  27.300  25.090  16.390
 1295BOLB   C3A31063  27.260  25.500  16.710
 1295BOLB   C4A31064  27.510  25.750  16.830
 1295BOLB   C1B31065  26.860  24.560  16.700
 1295BOLB   C2B31066  27.280  24.560  16.810
 1295BOLB   C3B31067  27.560  24.850  16.770
 1295BOLB   C4B31068  27.620  25.240  16.870
 1295BOLB   NC231069  29.340  27.210  17.530
 1295BOLB   PO231070  29.100  27.020  17.800
 1295BOLB   GL331071  28.800  26.900  17.530
 1295BOLB   GL431072  28.560  27.190  17.550
 1295BOLB   C1C31073  28.500  26.560  17.530
 1295BOLB   C2C31074  28.410  26.360  17.120
 1295BOLB   C3C31075  28.100  26.230  16.930
 1295BOLB   C4C31076  27.810  26.040  16.700
 1295BOLB   C1D31077  28.320  26.970  17.230
 1295BOLB   C2D31078  28.000  26.720  17.220
 1295BOLB   C3D31079  27.660  26.490  17.040
 1295BOLB   C4D31080  27.590  26.070  17.170
 1296BOLB   NC131081  23.370  25.020   7.910
 1296BOLB   PO131082  23.750  24.840   7.730
 1296BOLB   GL131083  24.220  24.960   7.910
 1296BOLB   GL231084  24.420  24.640   7.920
 1296BOLB   C1A31085  24.560  25.090   7.690
 1296BOLB   C2A31086  24.870  25.170   7.450
 1296BOLB   C3A31087  25.020  25.420   7.130
 1296BOLB   C4A31088  24.920  25.400   6.700
 1296BOLB   C1B31089  24.610  24.590   7.530
 1296BOLB   C2B31090  24.910  24.400   7.180
 1296BOLB   C3B31091  25.280  24.450   6.930
 1296BOLB   C4B31092  25.630  24.610   6.730
 1296BOLB   NC231093  25.900  26.350   4.840
 1296BOLB   PO231094  25.650  26.100   4.440
 1296BOLB   GL331095  25.440  26.110   4.950
 1296BOLB   GL431096  25.190  26.210   5.000
 1296BOLB   C1C31097  25.350  25.910   5.350
 1296BOLB   C2C31098  25.100  25.770   5.610
 1296BOLB   C3C31099  25.030  25.610   5.980
 1296BOLB   C4C31100  24.830  25.590   6.330
 1296BOLB   C1D31101  24.890  26.280   5.310
 1296BOLB   C2D31102  24.780  26.220   5.680
 1296BOLB   C3D31103  24.800  26.010   6.020
 1296BOLB   C4D31104  24.570  25.990   6.450
 1297BOLB   NC131105  18.700  25.520   6.910
 1297BOLB   PO131106  18.470  25.360   6.590
 1297BOLB   GL131107  18.380  25.610   6.180
 1297BOLB   GL231108  18.560  25.520   5.940
 1297BOLB   C1A31109  18.180  25.820   5.830
 1297BOLB   C2A31110  18.340  26.070   5.540
 1297BOLB   C3A31111  18.320  26.150   5.040
 1297BOLB   C4A31112  18.670  26.170   4.650
 1297BOLB   C1B31113  18.550  25.560   5.570
 1297BOLB   C2B31114  18.560  25.590   5.120
 1297BOLB   C3B31115  18.620  25.510   4.730
 1297BOLB   C4B31116  18.600  25.740   4.350
 1297BOLB   NC231117  18.650  27.580   2.590
 1297BOLB   PO231118  19.010  27.470   2.840
 1297BOLB   GL331119  18.750  27.210   2.940
 1297BOLB   GL431120  18.780  27.370   3.280
 1297BOLB   C1C31121  18.550  26.870   3.250
 1297BOLB   C2C31122  18.700  26.520   3.490
 1297BOLB   C3C31123  18.750  26.360   3.870
 1297BOLB   C4C31124  18.650  26.260   4.260
 1297BOLB   C1D31125  18.630  27.320   3.750
 1297BOLB   C2D31126  18.360  27.470   4.060
 1297BOLB   C3D31127  18.090  27.600   4.370
 1297BOLB   C4D31128  17.820  27.750   4.660
 1298BOLB   NC131129  14.180  27.340  10.330
 1298BOLB   PO131130  14.110  27.780  10.250
 1298BOLB   GL131131  13.720  27.960  10.280
 1298BOLB   GL231132  13.670  27.980   9.920
 1298BOLB   C1A31133  13.530  28.300  10.290
 1298BOLB   C2A31134  13.130  28.510  10.360
 1298BOLB   C3A31135  13.110  28.910  10.260
 1298BOLB   C4A31136  13.070  29.160   9.860
 1298BOLB   C1B31137  13.340  28.340   9.820
 1298BOLB   C2B31138  13.080  28.660   9.800
 1298BOLB   C3B31139  12.660  28.920   9.690
 1298BOLB   C4B31140  12.280  29.070   9.900
 1298BOLB   NC231141  11.840  30.520   8.160
 1298BOLB   PO231142  12.110  30.520   8.520
 1298BOLB   GL331143  12.240  30.230   8.720
 1298BOLB   GL431144  12.520  30.240   8.900
 1298BOLB   C1C31145  12.210  30.050   9.170
 1298BOLB   C2C31146  12.620  30.000   9.330
 1298BOLB   C3C31147  12.900  29.660   9.290
 1298BOLB   C4C31148  12.970  29.390   9.480
 1298BOLB   C1D31149  12.730  29.900   8.870
 1298BOLB   C2D31150  12.930  29.520   8.770
 1298BOLB   C3D31151  12.880  29.060   8.750
 1298BOLB   C4D31152  12.600  28.720   8.720
 1299BOLB   NC131153   8.840  21.670  12.600
 1299BOLB   PO131154   8.850  21.490  12.220
 1299BOLB   GL131155   8.460  21.360  12.080
 1299BOLB   GL231156   8.420  21.030  11.980
 1299BOLB   C1A31157   8.210  21.410  11.750
 1299BOLB   C2A31158   7.960  21.500  11.390
 1299BOLB   C3A31159   7.690  21.290  11.050
 1299BOLB   C4A31160   7.450  21.190  10.720
 1299BOLB   C1B31161   8.430  20.510  11.890
 1299BOLB   C2B31162   8.590  20.180  11.990
 1299BOLB   C3B31163   8.780  19.750  12.130
 1299BOLB   C4B31164   9.040  19.460  12.310
 1299BOLB   NC231165   5.500  20.560  10.100
 1299BOLB   PO231166   5.760  20.190   9.890
 1299BOLB   GL331167   6.040  20.510   9.920
 1299BOLB   GL431168   5.910  20.710   9.780
 1299BOLB   C1C31169   6.460  20.720   9.860
 1299BOLB   C2C31170   6.780  20.930   9.760
 1299BOLB   C3C31171   6.960  21.240  10.000
 1299BOLB   C4C31172   7.230  21.270  10.420
 1299BOLB   C1D31173   6.160  21.080  10.030
 1299BOLB   C2D31174   6.440  21.370   9.980
 1299BOLB   C3D31175   6.380  21.770  10.140
 1299BOLB   C4D31176   6.130  21.990  10.270
 1300BOLB   NC131177  22.930  16.200  14.220
 1300BOLB   PO131178  23.320  16.270  14.090
 1300BOLB   GL131179  23.570  15.880  14.240
 1300BOLB   GL231180  23.800  16.020  14.120
 1300BOLB   C1A31181  23.890  15.510  14.230
 1300BOLB   C2A31182  24.260  15.350  14.250
 1300BOLB   C3A31183  24.540  14.990  14.180
 1300BOLB   C4A31184  24.530  14.480  14.240
 1300BOLB   C1B31185  24.150  15.890  14.300
 1300BOLB   C2B31186  24.540  15.730  14.450
 1300BOLB   C3B31187  24.670  15.360  14.580
 1300BOLB   C4B31188  24.860  15.200  14.870
 1300BOLB   NC231189  26.850  13.700  14.410
 1300BOLB   PO231190  26.590  13.390  14.620
 1300BOLB   GL331191  26.250  13.510  14.620
 1300BOLB   GL431192  26.250  13.790  14.760
 1300BOLB   C1C31193  25.780  13.500  14.620
 1300BOLB   C2C31194  25.340  13.560  14.860
 1300BOLB   C3C31195  25.020  13.890  14.630
 1300BOLB   C4C31196  24.740  14.110  14.480
 1300BOLB   C1D31197  25.850  13.940  14.780
 1300BOLB   C2D31198  25.490  14.050  14.780
 1300BOLB   C3D31199  25.150  14.330  14.830
 1300BOLB   C4D31200  24.950  14.730  14.980
 1301BOLB   NC131201  26.360  22.640  11.320
 1301BOLB   PO131202  26.200  22.890  11.620
 1301BOLB   GL131203  26.590  22.830  11.740
 1301BOLB   GL231204  26.620  22.480  11.700
 1301BOLB   C1A31205  26.840  23.020  12.010
 1301BOLB   C2A31206  27.280  23.120  12.100
 1301BOLB   C3A31207  27.690  23.280  12.380
 1301BOLB   C4A31208  28.190  23.240  12.210
 1301BOLB   C1B31209  26.990  22.240  11.530
 1301BOLB   C2B31210  27.410  22.030  11.650
 1301BOLB   C3B31211  27.530  21.580  11.630
 1301BOLB   C4B31212  27.620  21.140  11.720
 1301BOLB   NC231213  30.680  23.540  12.540
 1301BOLB   PO231214  30.450  23.830  12.810
 1301BOLB   GL331215  30.230  23.520  12.560
 1301BOLB   GL431216  29.970  23.680  12.720
 1301BOLB   C1C31217  29.810  23.290  12.310
 1301BOLB   C2C31218  29.450  23.370  12.120
 1301BOLB   C3C31219  28.990  23.240  12.120
 1301BOLB   C4C31220  28.590  23.220  12.190
 1301BOLB   C1D31221  29.610  23.550  12.700
 1301BOLB   C2D31222  29.200  23.530  12.510
 1301BOLB   C3D31223  28.840  23.540  12.520
 1301BOLB   C4D31224  28.460  23.700  12.400
 1302BOLB   NC131225  18.470  25.050   6.100
 1302BOLB   PO131226  18.580  24.650   5.760
 1302BOLB   GL131227  18.750  24.690   5.410
 1302BOLB   GL231228  19.160  24.770   5.490
 1302BOLB   C1A31229  18.990  24.690   4.960
 1302BOLB   C2A31230  19.030  24.800   4.420
 1302BOLB   C3A31231  18.590  24.820   4.210
 1302BOLB   C4A31232  18.360  25.000   3.870
 1302BOLB   C1B31233  19.410  24.580   5.330
 1302BOLB   C2B31234  19.600  24.720   4.920
 1302BOLB   C3B31235  19.630  24.840   4.520
 1302BOLB   C4B31236  19.900  25.130   4.420
 1302BOLB   NC231237  18.450  26.490   1.860
 1302BOLB   PO231238  18.280  26.140   1.730
 1302BOLB   GL331239  18.320  25.970   2.120
 1302BOLB   GL431240  18.390  26.200   2.320
 1302BOLB   C1C31241  18.210  25.650   2.520
 1302BOLB   C2C31242  18.150  25.290   2.750
 1302BOLB   C3C31243  18.040  25.170   3.120
 1302BOLB   C4C31244  18.130  24.990   3.550
 1302BOLB   C1D31245  18.360  26.080   2.720
 1302BOLB   C2D31246  18.330  25.790   3.070
 1302BOLB   C3D31247  18.510  25.670   3.400
 1302BOLB   C4D31248  18.880  25.550   3.600
 1303BOLB   NC131249  17.230  23.800   5.600
 1303BOLB   PO131250  16.890  23.530   5.350
 1303BOLB   GL131251  16.850  23.820   5.130
 1303BOLB   GL231252  16.670  24.100   5.330
 1303BOLB   C1A31253  16.840  24.060   4.890
 1303BOLB   C2A31254  16.910  24.330   4.480
 1303BOLB   C3A31255  16.930  24.490   4.180
 1303BOLB   C4A31256  16.900  24.420   3.720
 1303BOLB   C1B31257  16.380  24.100   5.010
 1303BOLB   C2B31258  16.360  24.270   4.670
 1303BOLB   C3B31259  16.510  24.110   4.340
 1303BOLB   C4B31260  16.720  23.990   3.970
 1303BOLB   NC231261  17.140  26.040   2.310
 1303BOLB   PO231262  17.460  26.000   2.030
 1303BOLB   GL331263  17.790  25.840   2.270
 1303BOLB   GL431264  17.900  26.130   2.500
 1303BOLB   C1C31265  17.680  25.400   2.550
 1303BOLB   C2C31266  17.360  25.040   2.770
 1303BOLB   C3C31267  17.340  24.880   3.180
 1303BOLB   C4C31268  17.180  24.640   3.510
 1303BOLB   C1D31269  17.800  25.820   2.820
 1303BOLB   C2D31270  17.910  25.620   3.250
 1303BOLB   C3D31271  18.060  25.480   3.660
 1303BOLB   C4D31272  17.930  25.230   3.940
 1304BOLB   NC131273  18.410   8.380   8.480
 1304BOLB   PO131274  18.810   8.650   8.590
 1304BOLB   GL131275  18.750   9.150   8.510
 1304BOLB   GL231276  18.410   9.290   8.770
 1304BOLB   C1A31277  18.770   9.630   8.610
 1304BOLB   C2A31278  18.650  10.140   8.770
 1304BOLB   C3A31279  18.210  10.410   8.760
 1304BOLB   C4A31280  17.740  10.580   8.830
 1304BOLB   C1B31281  18.050   9.520   8.980
 1304BOLB   C2B31282  17.560   9.570   9.080
 1304BOLB   C3B31283  17.270   9.880   9.020
 1304BOLB   C4B31284  17.150  10.290   9.170
 1304BOLB   NC231285  18.520   9.170   8.080
 1304BOLB   PO231286  18.950   9.120   7.980
 1304BOLB   GL331287  18.810   9.620   8.100
 1304BOLB   GL431288  18.740   9.930   7.970
 1304BOLB   C1C31289  18.430   9.790   8.330
 1304BOLB   C2C31290  18.080   9.790   8.550
 1304BOLB   C3C31291  17.690   9.990   8.780
 1304BOLB   C4C31292  17.520  10.250   8.830
 1304BOLB   C1D31293  18.940  10.380   7.910
 1304BOLB   C2D31294  18.840  10.800   8.090
 1304BOLB   C3D31295  18.770  11.210   8.210
 1304BOLB   C4D31296  19.020  11.450   8.360
 1305BOLB   NC131297  14.640  26.970   8.970
 1305BOLB   PO131298  14.690  26.830   8.700
 1305BOLB   GL131299  14.530  27.140   8.510
 1305BOLB   GL231300  14.630  27.510   8.500
 1305BOLB   C1A31301  14.140  27.330   8.520
 1305BOLB   C2A31302  13.870  27.560   8.320
 1305BOLB   C3A31303  13.610  27.800   8.040
 1305BOLB   C4A31304  13.360  28.100   7.870
 1305BOLB   C1B31305  14.500  27.840   8.230
 1305BOLB   C2B31306  14.530  28.010   7.850
 1305BOLB   C3B31307  14.340  28.200   7.490
 1305BOLB   C4B31308  14.490  28.490   7.070
 1305BOLB   NC231309  12.690  29.740   5.470
 1305BOLB   PO231310  12.570  29.610   5.870
 1305BOLB   GL331311  12.780  29.250   6.080
 1305BOLB   GL431312  12.580  29.020   5.920
 1305BOLB   C1C31313  13.040  28.870   6.370
 1305BOLB   C2C31314  13.110  28.660   6.760
 1305BOLB   C3C31315  13.070  28.400   7.130
 1305BOLB   C4C31316  13.070  28.300   7.600
 1305BOLB   C1D31317  12.620  28.660   6.150
 1305BOLB   C2D31318  12.950  28.340   6.280
 1305BOLB   C3D31319  13.130  28.050   6.480
 1305BOLB   C4D31320  13.210  27.640   6.560
 1306BOLB   NC131321  15.560  28.600  12.070
 1306BOLB   PO131322  15.440  29.060  12.050
 1306BOLB   GL131323  15.520  29.420  11.790
 1306BOLB   GL231324  15.330  29.410  11.520
 1306BOLB   C1A31325  15.640  29.830  11.710
 1306BOLB   C2A31326  15.370  30.200  11.860
 1306BOLB   C3A31327  15.100  30.420  12.140
 1306BOLB   C4A31328  14.780  30.760  12.230
 1306BOLB   C1B31329  15.230  29.780  11.430
 1306BOLB   C2B31330  14.950  30.190  11.440
 1306BOLB   C3B31331  14.610  30.440  11.160
 1306BOLB   C4B31332  14.360  30.770  11.130
 1306BOLB   NC231333  12.830  32.230  11.460
 1306BOLB   PO231334  13.080  32.490  11.680
 1306BOLB   GL331335  13.380  32.180  11.730
 1306BOLB   GL431336  13.240  32.000  11.990
 1306BOLB   C1C31337  13.760  31.990  11.760
 1306BOLB   C2C31338  13.900  31.630  11.710
 1306BOLB   C3C31339  14.230  31.280  11.880
 1306BOLB   C4C31340  14.500  31.120  12.170
 1306BOLB   C1D31341  13.470  31.680  12.040
 1306BOLB   C2D31342  13.860  31.450  12.270
 1306BOLB   C3D31343  14.010  31.170  12.450
 1306BOLB   C4D31344  14.210  30.780  12.400
 1307BOLB   NC131345  22.770  28.420   9.840
 1307BOLB   PO131346  22.380  28.190   9.640
 1307BOLB   GL131347  22.230  28.510   9.310
 1307BOLB   GL231348  22.600  28.570   9.400
 1307BOLB   C1A31349  22.310  28.760   8.990
 1307BOLB   C2A31350  22.440  28.930   8.660
 1307BOLB   C3A31351  22.640  29.200   8.320
 1307BOLB   C4A31352  22.560  29.480   7.950
 1307BOLB   C1B31353  22.830  28.790   9.130
 1307BOLB   C2B31354  23.150  29.120   9.050
 1307BOLB   C3B31355  23.180  29.590   9.140
 1307BOLB   C4B31356  23.180  30.090   9.140
 1307BOLB   NC231357  22.690  30.430   5.890
 1307BOLB   PO231358  22.320  30.720   6.020
 1307BOLB   GL331359  22.350  30.410   6.310
 1307BOLB   GL431360  22.680  30.320   6.540
 1307BOLB   C1C31361  22.210  30.230   6.710
 1307BOLB   C2C31362  22.220  30.140   7.150
 1307BOLB   C3C31363  22.200  29.830   7.440
 1307BOLB   C4C31364  22.310  29.830   7.880
 1307BOLB   C1D31365  22.570  29.870   6.730
 1307BOLB   C2D31366  22.310  29.730   6.950
 1307BOLB   C3D31367  22.170  29.390   7.200
 1307BOLB   C4D31368  22.170  29.380   7.690
 1308BOLB   NC131369  22.640  22.300   6.700
 1308BOLB   PO131370  22.400  22.200   6.440
 1308BOLB   GL131371  22.800  22.300   6.190
 1308BOLB   GL231372  22.760  21.990   6.010
 1308BOLB   C1A31373  23.020  22.350   5.750
 1308BOLB   C2A31374  23.240  22.660   5.370
 1308BOLB   C3A31375  23.460  22.780   5.100
 1308BOLB   C4A31376  23.710  23.080   4.810
 1308BOLB   C1B31377  22.660  22.080   5.540
 1308BOLB   C2B31378  22.580  22.130   5.210
 1308BOLB   C3B31379  22.570  22.010   4.750
 1308BOLB   C4B31380  22.820  21.840   4.420
 1308BOLB   NC231381  25.930  23.030   4.230
 1308BOLB   PO231382  25.680  23.120   3.910
 1308BOLB   GL331383  25.430  22.840   4.160
 1308BOLB   GL431384  25.540  22.870   4.440
 1308BOLB   C1C31385  25.100  22.670   4.350
 1308BOLB   C2C31386  24.790  22.630   4.580
 1308BOLB   C3C31387  24.370  22.610   4.500
 1308BOLB   C4C31388  23.970  22.880   4.460
 1308BOLB   C1D31389  25.330  22.510   4.740
 1308BOLB   C2D31390  25.600  22.300   5.080
 1308BOLB   C3D31391  25.240  22.220   5.400
 1308BOLB   C4D31392  24.980  21.770   5.340
 1309BOLB   NC131393  15.290  26.090   7.770
 1309BOLB   PO131394  14.890  25.950   7.650
 1309BOLB   GL131395  14.550  26.250   7.660
 1309BOLB   GL231396  14.490  26.550   7.850
 1309BOLB   C1A31397  14.270  26.420   7.380
 1309BOLB   C2A31398  13.900  26.600   7.140
 1309BOLB   C3A31399  13.690  26.830   6.830
 1309BOLB   C4A31400  13.300  27.020   6.560
 1309BOLB   C1B31401  14.190  26.870   7.640
 1309BOLB   C2B31402  14.090  27.180   7.360
 1309BOLB   C3B31403  13.960  27.240   6.980
 1309BOLB   C4B31404  13.780  27.420   6.580
 1309BOLB   NC231405  12.060  28.810   5.200
 1309BOLB   PO231406  12.160  28.810   5.610
 1309BOLB   GL331407  12.070  28.490   5.910
 1309BOLB   GL431408  12.080  28.720   6.280
 1309BOLB   C1C31409  11.970  28.120   6.180
 1309BOLB   C2C31410  12.190  27.870   6.410
 1309BOLB   C3C31411  12.700  27.620   6.410
 1309BOLB   C4C31412  12.920  27.200   6.390
 1309BOLB   C1D31413  12.330  28.370   6.380
 1309BOLB   C2D31414  12.630  28.130   6.580
 1309BOLB   C3D31415  12.770  27.760   6.910
 1309BOLB   C4D31416  12.990  27.390   6.950
 1310BOLB   NC131417  13.880  15.760   8.590
 1310BOLB   PO131418  13.880  15.380   8.900
 1310BOLB   GL131419  13.600  15.060   8.990
 1310BOLB   GL231420  13.440  15.320   9.080
 1310BOLB   C1A31421  13.160  14.860   9.030
 1310BOLB   C2A31422  12.930  15.000   9.390
 1310BOLB   C3A31423  12.450  15.010   9.510
 1310BOLB   C4A31424  11.990  15.060   9.610
 1310BOLB   C1B31425  13.040  15.330   9.050
 1310BOLB   C2B31426  12.570  15.440   9.120
 1310BOLB   C3B31427  12.300  15.520   9.500
 1310BOLB   C4B31428  11.930  15.620   9.690
 1310BOLB   NC231429   9.900  14.820  10.280
 1310BOLB   PO231430  10.060  14.600  10.580
 1310BOLB   GL331431  10.470  14.490  10.570
 1310BOLB   GL431432  10.430  14.440  10.870
 1310BOLB   C1C31433  10.750  14.810  10.410
 1310BOLB   C2C31434  11.100  15.000  10.170
 1310BOLB   C3C31435  11.260  14.780   9.890
 1310BOLB   C4C31436  11.580  14.830   9.660
 1310BOLB   C1D31437  10.910  14.290  10.690
 1310BOLB   C2D31438  11.230  14.090  10.640
 1310BOLB   C3D31439  11.410  13.760  10.740
 1310BOLB   C4D31440  11.610  13.500  10.580
 1311BOLB   NC131441  21.390  26.810   8.800
 1311BOLB   PO131442  21.660  26.990   8.530
 1311BOLB   GL131443  21.780  27.170   8.010
 1311BOLB   GL231444  21.760  27.270   7.640
 1311BOLB   C1A31445  22.240  27.330   7.730
 1311BOLB   C2A31446  22.440  27.600   7.420
 1311BOLB   C3A31447  22.500  27.880   7.070
 1311BOLB   C4A31448  22.750  28.220   6.910
 1311BOLB   C1B31449  21.970  27.390   7.220
 1311BOLB   C2B31450  22.400  27.380   6.980
 1311BOLB   C3B31451  22.680  27.340   6.680
 1311BOLB   C4B31452  23.060  27.690   6.720
 1311BOLB   NC231453  24.790  29.400   5.800
 1311BOLB   PO231454  24.590  29.620   6.100
 1311BOLB   GL331455  24.480  29.190   6.200
 1311BOLB   GL431456  24.640  28.970   6.230
 1311BOLB   C1C31457  24.080  29.250   6.470
 1311BOLB   C2C31458  23.810  28.940   6.690
 1311BOLB   C3C31459  23.460  28.630   6.770
 1311BOLB   C4C31460  23.100  28.560   6.900
 1311BOLB   C1D31461  24.680  28.800   6.600
 1311BOLB   C2D31462  24.300  28.870   6.850
 1311BOLB   C3D31463  24.070  28.820   7.160
 1311BOLB   C4D31464  23.970  29.000   7.620
 1312BOLB   NC131465  13.110  22.440   6.340
 1312BOLB   PO131466  13.120  22.030   6.200
 1312BOLB   GL131467  12.710  22.180   6.110
 1312BOLB   GL231468  12.480  21.950   6.150
 1312BOLB   C1A31469  12.640  22.350   5.670
 1312BOLB   C2A31470  12.340  22.500   5.500
 1312BOLB   C3A31471  11.950  22.610   5.470
 1312BOLB   C4A31472  11.650  22.820   5.110
 1312BOLB   C1B31473  12.240  22.080   5.790
 1312BOLB   C2B31474  11.800  22.190   5.720
 1312BOLB   C3B31475  11.380  22.120   5.620
 1312BOLB   C4B31476  11.040  22.070   5.280
 1312BOLB   NC231477  11.640  24.570   3.610
 1312BOLB   PO231478  11.500  24.230   3.310
 1312BOLB   GL331479  11.500  24.130   3.780
 1312BOLB   GL431480  11.320  24.350   4.000
 1312BOLB   C1C31481  11.800  23.880   3.970
 1312BOLB   C2C31482  11.930  23.480   4.220
 1312BOLB   C3C31483  11.740  23.180   4.450
 1312BOLB   C4C31484  11.550  23.090   4.790
 1312BOLB   C1D31485  11.460  24.250   4.360
 1312BOLB   C2D31486  11.810  24.190   4.670
 1312BOLB   C3D31487  12.270  24.140   4.770
 1312BOLB   C4D31488  12.680  24.440   4.780
 1313BOLB   NC131489  21.510  24.290   6.880
 1313BOLB   PO131490  21.400  24.260   6.430
 1313BOLB   GL131491  21.600  24.480   6.100
 1313BOLB   GL231492  21.570  24.730   5.970
 1313BOLB   C1A31493  21.890  24.500   5.680
 1313BOLB   C2A31494  22.290  24.340   5.340
 1313BOLB   C3A31495  22.250  24.340   4.920
 1313BOLB   C4A31496  22.210  24.250   4.630
 1313BOLB   C1B31497  21.640  25.050   5.580
 1313BOLB   C2B31498  21.790  25.000   5.090
 1313BOLB   C3B31499  22.080  25.020   4.730
 1313BOLB   C4B31500  22.450  24.800   4.680
 1313BOLB   NC231501  22.710  24.080   2.390
 1313BOLB   PO231502  22.810  23.670   2.160
 1313BOLB   GL331503  22.910  23.640   2.700
 1313BOLB   GL431504  23.250  23.480   2.670
 1313BOLB   C1C31505  22.640  23.880   3.160
 1313BOLB   C2C31506  22.510  23.850   3.570
 1313BOLB   C3C31507  22.440  24.210   3.910
 1313BOLB   C4C31508  22.340  24.140   4.340
 1313BOLB   C1D31509  22.990  23.290   2.990
 1313BOLB   C2D31510  22.830  23.250   3.440
 1313BOLB   C3D31511  22.800  23.020   3.750
 1313BOLB   C4D31512  22.400  22.820   3.940
 1314BOLB   NC131513  26.200  22.570  12.050
 1314BOLB   PO131514  26.050  22.190  12.100
 1314BOLB   GL131515  26.570  22.030  11.940
 1314BOLB   GL231516  26.630  21.930  11.730
 1314BOLB   C1A31517  27.050  22.110  12.030
 1314BOLB   C2A31518  27.400  22.400  12.090
 1314BOLB   C3A31519  27.750  22.100  12.070
 1314BOLB   C4A31520  28.020  21.860  11.760
 1314BOLB   C1B31521  26.970  21.670  11.710
 1314BOLB   C2B31522  27.140  21.200  11.820
 1314BOLB   C3B31523  27.170  20.750  11.750
 1314BOLB   C4B31524  27.070  20.480  11.450
 1314BOLB   NC231525  29.940  20.700  11.250
 1314BOLB   PO231526  29.950  20.810  10.730
 1314BOLB   GL331527  29.500  20.860  11.000
 1314BOLB   GL431528  29.180  20.610  11.010
 1314BOLB   C1C31529  29.310  20.950  11.390
 1314BOLB   C2C31530  28.900  21.030  11.480
 1314BOLB   C3C31531  28.600  21.470  11.590
 1314BOLB   C4C31532  28.330  21.640  11.810
 1314BOLB   C1D31533  28.990  20.560  11.390
 1314BOLB   C2D31534  28.750  20.580  11.680
 1314BOLB   C3D31535  28.840  20.420  12.060
 1314BOLB   C4D31536  28.860  20.340  12.500
 1315BOLB   NC131537  15.400  28.910   9.760
 1315BOLB   PO131538  15.350  28.610   9.530
 1315BOLB   GL131539  15.360  28.970   9.230
 1315BOLB   GL231540  15.620  29.170   9.400
 1315BOLB   C1A31541  15.240  29.200   8.850
 1315BOLB   C2A31542  15.230  29.430   8.500
 1315BOLB   C3A31543  15.230  29.190   8.030
 1315BOLB   C4A31544  15.010  29.350   7.570
 1315BOLB   C1B31545  15.400  29.520   9.340
 1315BOLB   C2B31546  15.170  29.690   9.040
 1315BOLB   C3B31547  14.950  29.860   8.710
 1315BOLB   C4B31548  15.210  30.230   8.690
 1315BOLB   NC231549  13.960  31.470   6.520
 1315BOLB   PO231550  14.210  31.080   6.500
 1315BOLB   GL331551  14.460  30.740   6.900
 1315BOLB   GL431552  14.150  30.680   7.110
 1315BOLB   C1C31553  14.840  30.440   6.840
 1315BOLB   C2C31554  14.900  30.110   7.060
 1315BOLB   C3C31555  14.690  29.880   7.290
 1315BOLB   C4C31556  14.710  29.440   7.340
 1315BOLB   C1D31557  14.130  30.570   7.630
 1315BOLB   C2D31558  14.400  30.240   7.940
 1315BOLB   C3D31559  14.700  29.950   8.060
 1315BOLB   C4D31560  15.050  29.810   8.200
 1316BOLB   NC131561  18.530  22.600   5.320
 1316BOLB   PO131562  18.780  22.320   5.290
 1316BOLB   GL131563  18.610  22.420   4.860
 1316BOLB   GL231564  18.680  22.630   4.760
 1316BOLB   C1A31565  18.450  22.300   4.500
 1316BOLB   C2A31566  18.330  22.590   4.090
 1316BOLB   C3A31567  18.200  22.830   3.720
 1316BOLB   C4A31568  18.250  22.800   3.320
 1316BOLB   C1B31569  18.810  22.730   4.390
 1316BOLB   C2B31570  18.670  22.930   4.130
 1316BOLB   C3B31571  18.760  23.180   3.830
 1316BOLB   C4B31572  18.790  23.530   3.550
 1316BOLB   NC231573  19.220  23.370   0.850
 1316BOLB   PO231574  18.880  23.140   1.110
 1316BOLB   GL331575  18.540  22.880   1.350
 1316BOLB   GL431576  18.730  22.900   1.500
 1316BOLB   C1C31577  18.320  22.680   1.670
 1316BOLB   C2C31578  18.130  22.720   2.100
 1316BOLB   C3C31579  18.070  22.820   2.500
 1316BOLB   C4C31580  18.160  22.820   2.900
 1316BOLB   C1D31581  18.750  22.690   1.910
 1316BOLB   C2D31582  18.850  22.700   2.330
 1316BOLB   C3D31583  18.970  22.670   2.720
 1316BOLB   C4D31584  19.090  22.540   3.180
 1317BOLB   NC131585  15.630  28.160   9.350
 1317BOLB   PO131586  16.010  28.140   9.060
 1317BOLB   GL131587  15.800  28.270   8.590
 1317BOLB   GL231588  15.590  28.320   8.850
 1317BOLB   C1A31589  15.570  28.390   8.350
 1317BOLB   C2A31590  15.440  28.690   8.070
 1317BOLB   C3A31591  15.290  28.770   7.700
 1317BOLB   C4A31592  15.460  29.000   7.360
 1317BOLB   C1B31593  15.650  28.830   8.750
 1317BOLB   C2B31594  15.600  29.080   8.530
 1317BOLB   C3B31595  15.740  29.450   8.300
 1317BOLB   C4B31596  15.450  29.630   8.000
 1317BOLB   NC231597  15.870  30.630   5.810
 1317BOLB   PO231598  16.230  30.790   5.970
 1317BOLB   GL331599  16.260  30.330   5.950
 1317BOLB   GL431600  16.560  30.300   6.170
 1317BOLB   C1C31601  15.980  29.880   5.990
 1317BOLB   C2C31602  15.990  29.490   6.280
 1317BOLB   C3C31603  15.750  29.250   6.570
 1317BOLB   C4C31604  15.620  29.190   7.000
 1317BOLB   C1D31605  16.790  30.190   6.510
 1317BOLB   C2D31606  16.980  29.940   6.830
 1317BOLB   C3D31607  16.940  29.580   7.090
 1317BOLB   C4D31608  16.490  29.370   7.240
 1318BOLB   NC131609  19.510  13.520  10.470
 1318BOLB   PO131610  19.610  13.480  10.130
 1318BOLB   GL131611  19.740  13.220   9.960
 1318BOLB   GL231612  19.470  13.200   9.730
 1318BOLB   C1A31613  20.060  12.960   9.820
 1318BOLB   C2A31614  19.930  12.440   9.770
 1318BOLB   C3A31615  19.890  12.050   9.550
 1318BOLB   C4A31616  19.610  11.730   9.310
 1318BOLB   C1B31617  19.630  12.840   9.540
 1318BOLB   C2B31618  19.510  12.440   9.500
 1318BOLB   C3B31619  19.210  12.130   9.300
 1318BOLB   C4B31620  19.440  11.890   8.880
 1318BOLB   NC231621  20.480   9.740   8.760
 1318BOLB   PO231622  20.580  10.000   8.340
 1318BOLB   GL331623  20.190  10.130   8.540
 1318BOLB   GL431624  19.990   9.840   8.410
 1318BOLB   C1C31625  19.840  10.450   8.600
 1318BOLB   C2C31626  19.810  10.730   8.880
 1318BOLB   C3C31627  19.800  11.070   8.770
 1318BOLB   C4C31628  19.730  11.330   9.010
 1318BOLB   C1D31629  19.760  10.190   8.220
 1318BOLB   C2D31630  19.790  10.690   8.200
 1318BOLB   C3D31631  19.720  11.140   8.290
 1318BOLB   C4D31632  19.500  11.500   8.460
 1319BOLB   NC131633  19.330   9.730  18.620
 1319BOLB   PO131634  19.080   9.860  18.860
 1319BOLB   GL131635  19.010  10.000  18.380
 1319BOLB   GL231636  18.800   9.810  18.190
 1319BOLB   C1A31637  18.910  10.320  18.160
 1319BOLB   C2A31638  18.760  10.810  18.080
 1319BOLB   C3A31639  18.540  11.230  18.210
 1319BOLB   C4A31640  18.130  11.310  18.160
 1319BOLB   C1B31641  18.430   9.960  17.950
 1319BOLB   C2B31642  18.110   9.950  17.660
 1319BOLB   C3B31643  17.640  10.060  17.570
 1319BOLB   C4B31644  17.220  10.070  17.570
 1319BOLB   NC231645  17.610   9.290  18.530
 1319BOLB   PO231646  17.710   9.320  19.030
 1319BOLB   GL331647  17.650   9.790  18.840
 1319BOLB   GL431648  17.480   9.800  18.560
 1319BOLB   C1C31649  17.370  10.230  18.930
 1319BOLB   C2C31650  17.230  10.580  18.620
 1319BOLB   C3C31651  17.360  11.020  18.480
 1319BOLB   C4C31652  17.750  11.420  18.280
 1319BOLB   C1D31653  17.140  10.070  18.480
 1319BOLB   C2D31654  17.010  10.440  18.120
 1319BOLB   C3D31655  17.020  10.840  18.000
 1319BOLB   C4D31656  16.780  11.320  17.750
 1320BOLB   NC131657  14.490  14.530   6.940
 1320BOLB   PO131658  14.130  14.610   6.690
 1320BOLB   GL131659  14.330  14.180   6.610
 1320BOLB   GL231660  14.130  14.020   6.810
 1320BOLB   C1A31661  14.330  13.750   6.390
 1320BOLB   C2A31662  14.450  13.390   6.160
 1320BOLB   C3A31663  14.630  13.380   5.640
 1320BOLB   C4A31664  14.540  13.410   5.220
 1320BOLB   C1B31665  13.940  13.600   6.920
 1320BOLB   C2B31666  13.840  13.190   6.870
 1320BOLB   C3B31667  13.600  12.960   6.480
 1320BOLB   C4B31668  13.250  12.790   6.280
 1320BOLB   NC231669  13.930  12.610   3.610
 1320BOLB   PO231670  14.170  12.310   3.350
 1320BOLB   GL331671  14.400  12.680   3.470
 1320BOLB   GL431672  14.660  12.950   3.340
 1320BOLB   C1C31673  14.630  12.670   3.880
 1320BOLB   C2C31674  14.700  12.800   4.250
 1320BOLB   C3C31675  14.660  13.070   4.610
 1320BOLB   C4C31676  14.680  13.450   4.850
 1320BOLB   C1D31677  14.780  13.100   3.780
 1320BOLB   C2D31678  14.850  13.390   4.240
 1320BOLB   C3D31679  15.090  13.470   4.480
 1320BOLB   C4D31680  15.090  13.750   4.790
 1321BOLB   NC131681  16.970  28.940   9.720
 1321BOLB   PO131682  17.030  28.840   9.270
 1321BOLB   GL131683  17.010  29.030   8.930
 1321BOLB   GL231684  16.950  29.020   8.560
 1321BOLB   C1A31685  17.120  29.420   8.820
 1321BOLB   C2A31686  16.980  29.840   8.730
 1321BOLB   C3A31687  16.670  30.080   8.590
 1321BOLB   C4A31688  16.770  30.570   8.460
 1321BOLB   C1B31689  16.680  29.150   8.310
 1321BOLB   C2B31690  16.640  29.510   8.000
 1321BOLB   C3B31691  16.350  29.720   7.710
 1321BOLB   C4B31692  16.040  29.480   7.630
 1321BOLB   NC231693  15.690  32.740   8.470
 1321BOLB   PO231694  16.020  32.600   8.120
 1321BOLB   GL331695  16.160  32.410   8.490
 1321BOLB   GL431696  15.860  32.320   8.610
 1321BOLB   C1C31697  16.350  32.070   8.710
 1321BOLB   C2C31698  16.390  31.800   8.970
 1321BOLB   C3C31699  16.580  31.360   8.890
 1321BOLB   C4C31700  16.680  30.900   8.670
 1321BOLB   C1D31701  15.810  31.980   8.780
 1321BOLB   C2D31702  15.860  31.610   8.830
 1321BOLB   C3D31703  16.110  31.260   8.920
 1321BOLB   C4D31704  16.350  31.250   9.320
 1322BOLB   NC131705  19.160  13.180  10.740
 1322BOLB   PO131706  19.600  13.270  10.890
 1322BOLB   GL131707  19.870  13.000  10.800
 1322BOLB   GL231708  19.600  12.790  10.920
 1322BOLB   C1A31709  20.200  12.660  10.710
 1322BOLB   C2A31710  20.360  12.260  10.540
 1322BOLB   C3A31711  20.530  12.010  10.080
 1322BOLB   C4A31712  20.340  11.920   9.640
 1322BOLB   C1B31713  19.740  12.540  10.650
 1322BOLB   C2B31714  19.720  12.220  10.390
 1322BOLB   C3B31715  19.760  11.790  10.510
 1322BOLB   C4B31716  19.740  11.530  10.190
 1322BOLB   NC231717  21.530  10.660   7.710
 1322BOLB   PO231718  21.360  10.580   8.200
 1322BOLB   GL331719  21.250  10.890   8.330
 1322BOLB   GL431720  21.170  10.990   8.730
 1322BOLB   C1C31721  21.170  11.360   8.350
 1322BOLB   C2C31722  20.860  11.680   8.500
 1322BOLB   C3C31723  20.620  11.720   8.770
 1322BOLB   C4C31724  20.340  11.910   9.160
 1322BOLB   C1D31725  20.720  11.190   8.700
 1322BOLB   C2D31726  20.340  11.350   9.020
 1322BOLB   C3D31727  20.080  11.530   9.290
 1322BOLB   C4D31728  20.010  11.580   9.750
 1323BOLB   NC131729  20.850  16.180   8.170
 1323BOLB   PO131730  20.770  15.730   8.040
 1323BOLB   GL131731  21.040  15.710   7.960
 1323BOLB   GL231732  21.300  15.860   8.150
 1323BOLB   C1A31733  21.270  15.470   7.620
 1323BOLB   C2A31734  21.450  14.990   7.490
 1323BOLB   C3A31735  21.710  14.780   7.680
 1323BOLB   C4A31736  22.070  14.530   7.730
 1323BOLB   C1B31737  21.500  15.870   7.760
 1323BOLB   C2B31738  21.680  15.570   7.430
 1323BOLB   C3B31739  21.870  15.430   7.080
 1323BOLB   C4B31740  22.020  15.230   6.730
 1323BOLB   NC231741  22.960  12.230   7.010
 1323BOLB   PO231742  23.200  12.450   7.250
 1323BOLB   GL331743  23.220  12.750   7.480
 1323BOLB   GL431744  22.980  12.650   7.760
 1323BOLB   C1C31745  22.900  13.140   7.490
 1323BOLB   C2C31746  22.610  13.480   7.310
 1323BOLB   C3C31747  22.540  13.900   7.400
 1323BOLB   C4C31748  22.400  14.280   7.690
 1323BOLB   C1D31749  22.770  12.500   8.030
 1323BOLB   C2D31750  22.380  12.610   8.240
 1323BOLB   C3D31751  22.200  12.910   8.460
 1323BOLB   C4D31752  22.020  13.240   8.620
 1324BOLB   NC131753  10.600  23.290   8.770
 1324BOLB   PO131754  10.790  23.130   8.380
 1324BOLB   GL131755  10.540  23.100   8.120
 1324BOLB   GL231756  10.560  22.920   7.830
 1324BOLB   C1A31757  10.430  23.500   7.790
 1324BOLB   C2A31758  10.290  23.860   7.830
 1324BOLB   C3A31759   9.910  24.120   7.710
 1324BOLB   C4A31760   9.800  24.490   7.500
 1324BOLB   C1B31761  10.270  22.980   7.590
 1324BOLB   C2B31762  10.050  23.260   7.350
 1324BOLB   C3B31763   9.660  23.550   7.290
 1324BOLB   C4B31764   9.350  23.410   6.970
 1324BOLB   NC231765  10.180  25.460   5.080
 1324BOLB   PO231766  10.250  25.700   5.450
 1324BOLB   GL331767  10.070  25.510   5.710
 1324BOLB   GL431768  10.140  25.690   6.060
 1324BOLB   C1C31769  10.000  25.240   6.000
 1324BOLB   C2C31770  10.120  25.330   6.460
 1324BOLB   C3C31771   9.930  25.020   6.770
 1324BOLB   C4C31772   9.700  24.760   7.040
 1324BOLB   C1D31773  10.540  25.590   6.360
 1324BOLB   C2D31774  10.650  25.240   6.730
 1324BOLB   C3D31775  10.910  24.770   6.790
 1324BOLB   C4D31776  11.160  24.550   7.010
 1325BOLB   NC131777  24.160  21.160   8.580
 1325BOLB   PO131778  24.140  21.560   8.420
 1325BOLB   GL131779  24.320  21.260   8.120
 1325BOLB   GL231780  24.270  21.340   7.870
 1325BOLB   C1A31781  24.670  21.030   7.760
 1325BOLB   C2A31782  25.010  20.980   7.370
 1325BOLB   C3A31783  25.460  20.930   7.340
 1325BOLB   C4A31784  25.880  20.740   7.410
 1325BOLB   C1B31785  24.660  21.560   7.660
 1325BOLB   C2B31786  24.880  21.870   7.340
 1325BOLB   C3B31787  25.080  21.860   6.970
 1325BOLB   C4B31788  25.260  21.950   6.650
 1325BOLB   NC231789  27.460  19.610   6.660
 1325BOLB   PO231790  27.480  19.210   6.890
 1325BOLB   GL331791  27.260  19.520   7.140
 1325BOLB   GL431792  27.110  19.410   7.360
 1325BOLB   C1C31793  26.890  19.780   6.980
 1325BOLB   C2C31794  26.720  20.040   7.240
 1325BOLB   C3C31795  26.300  20.050   7.360
 1325BOLB   C4C31796  25.980  20.290   7.520
 1325BOLB   C1D31797  26.770  19.500   7.530
 1325BOLB   C2D31798  26.390  19.550   7.690
 1325BOLB   C3D31799  25.960  19.560   7.810
 1325BOLB   C4D31800  25.630  19.920   7.590
 1326BOLB   NC131801  21.110  18.230   6.720
 1326BOLB   PO131802  21.280  17.930   6.870
 1326BOLB   GL131803  21.590  17.710   6.770
 1326BOLB   GL231804  21.770  17.970   6.890
 1326BOLB   C1A31805  21.820  17.550   6.540
 1326BOLB   C2A31806  21.830  17.440   6.230
 1326BOLB   C3A31807  22.200  17.280   5.960
 1326BOLB   C4A31808  22.430  17.250   5.570
 1326BOLB   C1B31809  22.200  17.750   6.800
 1326BOLB   C2B31810  22.380  17.470   6.440
 1326BOLB   C3B31811  22.660  17.280   6.200
 1326BOLB   C4B31812  22.860  17.310   5.780
 1326BOLB   NC231813  23.670  16.390   3.750
 1326BOLB   PO231814  23.790  16.840   3.860
 1326BOLB   GL331815  23.590  16.890   4.210
 1326BOLB   GL431816  23.770  17.150   4.310
 1326BOLB   C1C31817  23.400  17.010   4.630
 1326BOLB   C2C31818  23.390  17.360   4.850
 1326BOLB   C3C31819  23.100  17.530   5.150
 1326BOLB   C4C31820  22.600  17.590   5.230
 1326BOLB   C1D31821  23.870  17.520   4.520
 1326BOLB   C2D31822  23.830  17.740   4.710
 1326BOLB   C3D31823  23.500  17.840   4.980
 1326BOLB   C4D31824  23.190  18.020   5.310
 1327BOLB   NC131825  22.110  14.430  11.940
 1327BOLB   PO131826  21.810  14.350  12.230
 1327BOLB   GL131827  22.120  14.120  12.380
 1327BOLB   GL231828  22.470  14.210  12.300
 1327BOLB   C1A31829  22.290  13.710  12.550
 1327BOLB   C2A31830  22.500  13.340  12.570
 1327BOLB   C3A31831  22.810  12.910  12.560
 1327BOLB   C4A31832  23.020  12.740  12.220
 1327BOLB   C1B31833  22.650  13.800  12.200
 1327BOLB   C2B31834  22.660  13.560  11.750
 1327BOLB   C3B31835  22.950  13.440  11.390
 1327BOLB   C4B31836  23.080  13.080  11.080
 1327BOLB   NC231837  24.030  11.360  11.070
 1327BOLB   PO231838  23.900  10.910  11.200
 1327BOLB   GL331839  23.540  11.260  11.210
 1327BOLB   GL431840  23.290  11.100  11.100
 1327BOLB   C1C31841  23.370  11.590  11.050
 1327BOLB   C2C31842  23.200  12.020  11.070
 1327BOLB   C3C31843  23.030  12.370  11.370
 1327BOLB   C4C31844  22.990  12.620  11.740
 1327BOLB   C1D31845  22.860  11.270  11.250
 1327BOLB   C2D31846  22.710  11.660  11.310
 1327BOLB   C3D31847  22.700  12.110  11.130
 1327BOLB   C4D31848  22.470  12.280  11.020
 1328BOLB   NC131849  19.620  26.210   7.120
 1328BOLB   PO131850  19.550  26.650   7.210
 1328BOLB   GL131851  19.580  27.020   7.000
 1328BOLB   GL231852  19.850  27.070   7.060
 1328BOLB   C1A31853  19.630  27.290   6.600
 1328BOLB   C2A31854  19.570  27.790   6.460
 1328BOLB   C3A31855  19.850  28.010   6.190
 1328BOLB   C4A31856  19.800  28.310   5.890
 1328BOLB   C1B31857  19.750  27.550   7.040
 1328BOLB   C2B31858  19.840  27.910   6.890
 1328BOLB   C3B31859  20.040  28.150   6.630
 1328BOLB   C4B31860  20.490  28.350   6.590
 1328BOLB   NC231861  19.690  30.500   4.450
 1328BOLB   PO231862  19.580  30.380   4.800
 1328BOLB   GL331863  19.750  29.990   5.060
 1328BOLB   GL431864  20.050  30.000   5.330
 1328BOLB   C1C31865  19.490  29.630   5.370
 1328BOLB   C2C31866  19.540  29.170   5.390
 1328BOLB   C3C31867  19.630  28.960   5.670
 1328BOLB   C4C31868  19.820  28.550   5.660
 1328BOLB   C1D31869  20.070  29.790   5.740
 1328BOLB   C2D31870  20.080  29.680   6.150
 1328BOLB   C3D31871  20.010  29.720   6.560
 1328BOLB   C4D31872  19.700  29.610   6.950
 1329BOLB   NC131873  25.410  26.670  11.150
 1329BOLB   PO131874  25.590  26.270  11.150
 1329BOLB   GL131875  25.910  26.520  10.920
 1329BOLB   GL231876  25.830  26.880  10.990
 1329BOLB   C1A31877  26.190  26.680  10.660
 1329BOLB   C2A31878  26.330  26.720  10.270
 1329BOLB   C3A31879  26.540  26.970   9.980
 1329BOLB   C4A31880  26.530  27.080   9.510
 1329BOLB   C1B31881  26.180  27.070  10.960
 1329BOLB   C2B31882  26.450  27.260  11.070
 1329BOLB   C3B31883  26.920  27.310  11.140
 1329BOLB   C4B31884  27.050  27.680  11.320
 1329BOLB   NC231885  28.470  28.410   8.080
 1329BOLB   PO231886  28.110  28.310   8.320
 1329BOLB   GL331887  27.690  28.140   8.480
 1329BOLB   GL431888  27.850  28.180   8.770
 1329BOLB   C1C31889  27.610  27.750   8.710
 1329BOLB   C2C31890  27.220  27.500   8.730
 1329BOLB   C3C31891  26.970  27.260   8.870
 1329BOLB   C4C31892  26.650  27.130   9.190
 1329BOLB   C1D31893  27.590  28.110   9.040
 1329BOLB   C2D31894  27.350  27.850   9.150
 1329BOLB   C3D31895  27.390  27.450   9.410
 1329BOLB   C4D31896  27.420  27.090   9.690
 1330BOLB   NC131897   8.660  22.550  13.940
 1330BOLB   PO131898   8.740  22.930  14.000
 1330BOLB   GL131899   8.340  22.930  14.000
 1330BOLB   GL231900   8.170  22.600  13.920
 1330BOLB   C1A31901   7.910  23.040  13.950
 1330BOLB   C2A31902   7.530  22.950  13.900
 1330BOLB   C3A31903   7.350  22.750  14.120
 1330BOLB   C4A31904   7.150  22.530  14.320
 1330BOLB   C1B31905   7.770  22.430  13.690
 1330BOLB   C2B31906   7.620  22.020  13.580
 1330BOLB   C3B31907   7.240  21.950  13.420
 1330BOLB   C4B31908   6.890  22.070  13.590
 1330BOLB   NC231909   4.540  22.430  14.530
 1330BOLB   PO231910   4.920  22.310  14.290
 1330BOLB   GL331911   5.300  22.190  14.240
 1330BOLB   GL431912   5.350  22.050  14.020
 1330BOLB   C1C31913   5.560  22.200  14.590
 1330BOLB   C2C31914   5.960  22.150  14.700
 1330BOLB   C3C31915   6.330  22.260  14.610
 1330BOLB   C4C31916   6.740  22.380  14.480
 1330BOLB   C1D31917   5.850  22.150  14.090
 1330BOLB   C2D31918   6.260  22.110  14.120
 1330BOLB   C3D31919   6.690  22.370  13.970
 1330BOLB   C4D31920   6.950  22.630  13.740
 1331BOLB   NC131921  10.260  20.280  16.660
 1331BOLB   PO131922   9.930  20.450  16.940
 1331BOLB   GL131923   9.610  20.570  17.240
 1331BOLB   GL231924   9.760  20.560  17.420
 1331BOLB   C1A31925   9.200  20.550  17.550
 1331BOLB   C2A31926   9.010  20.400  17.920
 1331BOLB   C3A31927   8.820  20.490  18.360
 1331BOLB   C4A31928   8.450  20.590  18.570
 1331BOLB   C1B31929   9.620  20.800  17.850
 1331BOLB   C2B31930   9.250  21.020  17.940
 1331BOLB   C3B31931   8.840  20.940  17.920
 1331BOLB   C4B31932   8.490  20.840  18.100
 1331BOLB   NC231933   6.770  19.730  19.940
 1331BOLB   PO231934   6.730  20.180  19.810
 1331BOLB   GL331935   7.180  20.040  19.890
 1331BOLB   GL431936   7.210  19.920  19.660
 1331BOLB   C1C31937   7.670  19.940  19.760
 1331BOLB   C2C31938   8.000  20.150  19.510
 1331BOLB   C3C31939   8.030  20.450  19.130
 1331BOLB   C4C31940   8.160  20.770  18.880
 1331BOLB   C1D31941   7.480  19.470  19.570
 1331BOLB   C2D31942   7.620  19.250  19.940
 1331BOLB   C3D31943   7.900  19.200  20.350
 1331BOLB   C4D31944   8.220  19.000  20.620
 1332BOLB   NC131945  12.330  26.170  10.920
 1332BOLB   PO131946  12.070  26.580  11.040
 1332BOLB   GL131947  11.730  26.860  10.950
 1332BOLB   GL231948  11.440  26.810  10.930
 1332BOLB   C1A31949  11.640  27.220  10.630
 1332BOLB   C2A31950  11.380  27.610  10.440
 1332BOLB   C3A31951  11.190  28.040  10.550
 1332BOLB   C4A31952  11.130  28.450  10.650
 1332BOLB   C1B31953  11.010  27.090  11.040
 1332BOLB   C2B31954  10.570  27.090  11.120
 1332BOLB   C3B31955  10.260  26.800  11.320
 1332BOLB   C4B31956   9.850  26.860  11.430
 1332BOLB   NC231957   9.910  30.870  11.110
 1332BOLB   PO231958   9.910  30.780  10.750
 1332BOLB   GL331959  10.420  30.620  10.610
 1332BOLB   GL431960  10.690  30.480  10.780
 1332BOLB   C1C31961  10.660  30.100  10.500
 1332BOLB   C2C31962  10.710  29.630  10.490
 1332BOLB   C3C31963  10.880  29.160  10.460
 1332BOLB   C4C31964  11.030  28.800  10.600
 1332BOLB   C1D31965  10.570  30.260  10.980
 1332BOLB   C2D31966  10.340  29.870  11.150
 1332BOLB   C3D31967  10.100  29.490  11.150
 1332BOLB   C4D31968   9.960  29.120  10.840
 1333BOLB   NC131969  22.770  23.120   6.460
 1333BOLB   PO131970  22.500  22.720   6.440
 1333BOLB   GL131971  22.720  22.830   6.020
 1333BOLB   GL231972  23.080  23.000   6.130
 1333BOLB   C1A31973  22.930  22.910   5.650
 1333BOLB   C2A31974  23.010  23.140   5.270
 1333BOLB   C3A31975  23.310  23.280   5.070
 1333BOLB   C4A31976  23.280  23.350   4.650
 1333BOLB   C1B31977  23.340  22.680   5.900
 1333BOLB   C2B31978  23.790  22.600   5.900
 1333BOLB   C3B31979  24.230  22.590   5.780
 1333BOLB   C4B31980  24.580  22.560   5.490
 1333BOLB   NC231981  23.740  23.710   2.520
 1333BOLB   PO231982  23.710  23.230   2.370
 1333BOLB   GL331983  23.800  23.260   2.720
 1333BOLB   GL431984  23.610  23.010   2.930
 1333BOLB   C1C31985  23.820  23.470   3.130
 1333BOLB   C2C31986  23.620  23.620   3.550
 1333BOLB   C3C31987  23.410  23.470   3.940
 1333BOLB   C4C31988  23.170  23.630   4.290
 1333BOLB   C1D31989  23.260  22.870   3.130
 1333BOLB   C2D31990  23.040  22.680   3.360
 1333BOLB   C3D31991  23.120  22.590   3.690
 1333BOLB   C4D31992  23.280  22.360   4.000
 1334BOLB   NC131993  18.880  15.590   6.750
 1334BOLB   PO131994  19.210  15.570   7.010
 1334BOLB   GL131995  19.430  15.320   6.770
 1334BOLB   GL231996  19.190  15.260   6.510
 1334BOLB   C1A31997  19.550  14.860   6.680
 1334BOLB   C2A31998  19.690  14.560   6.330
 1334BOLB   C3A31999  19.940  14.410   6.050
 1334BOLB   C4A32000  20.360  14.570   5.890
 1334BOLB   C1B32001  19.430  15.050   6.140
 1334BOLB   C2B32002  19.390  14.880   5.720
 1334BOLB   C3B32003  19.450  14.510   5.480
 1334BOLB   C4B32004  19.550  14.160   5.230
 1334BOLB   NC232005  21.280  12.880   4.530
 1334BOLB   PO232006  21.690  13.050   4.710
 1334BOLB   GL332007  21.600  13.160   5.100
 1334BOLB   GL432008  21.510  13.450   4.990
 1334BOLB   C1C32009  21.250  13.390   5.400
 1334BOLB   C2C32010  21.130  13.750   5.520
 1334BOLB   C3C32011  21.000  13.970   5.880
 1334BOLB   C4C32012  20.720  14.330   5.830
 1334BOLB   C1D32013  21.060  13.390   4.860
 1334BOLB   C2D32014  20.610  13.380   4.830
 1334BOLB   C3D32015  20.110  13.490   4.880
 1334BOLB   C4D32016  19.740  13.460   5.100
 1335BOLB   NC132017  11.760  23.070   7.610
 1335BOLB   PO132018  12.140  22.790   7.370
 1335BOLB   GL132019  11.860  22.900   7.050
 1335BOLB   GL232020  11.510  22.930   7.010
 1335BOLB   C1A32021  11.780  22.880   6.610
 1335BOLB   C2A32022  11.480  22.850   6.210
 1335BOLB   C3A32023  11.360  23.080   5.800
 1335BOLB   C4A32024  11.260  23.490   5.620
 1335BOLB   C1B32025  11.330  22.750   6.680
 1335BOLB   C2B32026  11.050  22.740   6.360
 1335BOLB   C3B32027  10.590  22.790   6.200
 1335BOLB   C4B32028  10.400  22.910   5.900
 1335BOLB   NC232029   9.760  24.660   4.710
 1335BOLB   PO232030   9.870  24.970   5.030
 1335BOLB   GL332031  10.140  24.640   5.160
 1335BOLB   GL432032  10.210  24.950   5.380
 1335BOLB   C1C32033  10.240  24.310   5.370
 1335BOLB   C2C32034  10.410  23.870   5.290
 1335BOLB   C3C32035  10.610  23.640   5.400
 1335BOLB   C4C32036  10.980  23.730   5.470
 1335BOLB   C1D32037  10.390  25.160   5.770
 1335BOLB   C2D32038  10.730  25.250   6.010
 1335BOLB   C3D32039  10.960  25.060   6.340
 1335BOLB   C4D32040  11.290  25.070   6.440
 1336BOLB   NC132041  15.280  15.640   5.050
 1336BOLB   PO132042  15.400  16.070   5.030
 1336BOLB   GL132043  15.280  16.170   4.680
 1336BOLB   GL232044  15.240  16.520   4.590
 1336BOLB   C1A32045  15.190  15.930   4.380
 1336BOLB   C2A32046  15.170  15.700   4.090
 1336BOLB   C3A32047  15.400  15.620   3.750
 1336BOLB   C4A32048  15.390  15.820   3.360
 1336BOLB   C1B32049  15.370  16.390   4.150
 1336BOLB   C2B32050  15.470  16.110   3.840
 1336BOLB   C3B32051  15.810  15.870   3.740
 1336BOLB   C4B32052  16.290  15.830   3.710
 1336BOLB   NC232053  15.320  16.080   1.030
 1336BOLB   PO232054  14.990  16.020   1.320
 1336BOLB   GL332055  15.000  16.060   1.780
 1336BOLB   GL432056  14.700  15.990   2.000
 1336BOLB   C1C32057  15.260  16.260   2.210
 1336BOLB   C2C32058  15.250  16.320   2.590
 1336BOLB   C3C32059  15.370  16.460   3.030
 1336BOLB   C4C32060  15.520  16.220   3.320
 1336BOLB   C1D32061  14.900  16.020   2.470
 1336BOLB   C2D32062  15.030  15.900   2.870
 1336BOLB   C3D32063  15.070  16.130   3.140
 1336BOLB   C4D32064  15.110  16.380   3.460
 1337BOLB   NC132065  19.400  13.400   3.010
 1337BOLB   PO132066  19.540  13.220   3.430
 1337BOLB   GL132067  19.430  13.380   3.820
 1337BOLB   GL232068  19.680  13.270   4.100
 1337BOLB   C1A32069  19.350  13.670   4.150
 1337BOLB   C2A32070  19.440  14.060   4.420
 1337BOLB   C3A32071  19.100  14.280   4.730
 1337BOLB   C4A32072  19.080  14.420   5.110
 1337BOLB   C1B32073  19.350  12.990   4.150
 1337BOLB   C2B32074  19.070  13.220   4.380
 1337BOLB   C3B32075  18.960  13.210   4.810
 1337BOLB   C4B32076  18.730  13.010   4.940
 1337BOLB   NC232077  18.320  15.620   7.340
 1337BOLB   PO232078  18.370  15.630   6.880
 1337BOLB   GL332079  18.530  15.610   6.430
 1337BOLB   GL432080  18.340  15.370   6.210
 1337BOLB   C1C32081  18.810  15.370   6.140
 1337BOLB   C2C32082  18.890  15.180   5.900
 1337BOLB   C3C32083  18.900  14.970   5.580
 1337BOLB   C4C32084  19.060  14.770   5.180
 1337BOLB   C1D32085  18.360  15.310   5.800
 1337BOLB   C2D32086  18.500  15.160   5.410
 1337BOLB   C3D32087  18.590  14.720   5.230
 1337BOLB   C4D32088  18.680  14.520   4.850
 1338BOLB   NC132089  25.700  26.980  14.770
 1338BOLB   PO132090  25.790  26.520  14.760
 1338BOLB   GL132091  26.130  26.710  14.900
 1338BOLB   GL232092  26.150  27.010  14.890
 1338BOLB   C1A32093  26.600  26.770  14.750
 1338BOLB   C2A32094  27.050  26.940  14.850
 1338BOLB   C3A32095  27.320  27.200  15.040
 1338BOLB   C4A32096  27.640  27.120  15.250
 1338BOLB   C1B32097  26.560  27.210  15.050
 1338BOLB   C2B32098  26.870  27.290  15.270
 1338BOLB   C3B32099  27.260  27.440  15.560
 1338BOLB   C4B32100  27.710  27.490  15.590
 1338BOLB   NC232101  29.960  26.960  15.990
 1338BOLB   PO232102  29.920  26.810  15.610
 1338BOLB   GL332103  29.600  26.750  15.250
 1338BOLB   GL432104  29.680  26.740  14.940
 1338BOLB   C1C32105  29.280  26.960  15.200
 1338BOLB   C2C32106  28.870  26.850  15.140
 1338BOLB   C3C32107  28.500  26.650  15.190
 1338BOLB   C4C32108  28.010  26.740  15.190
 1338BOLB   C1D32109  29.570  26.400  14.810
 1338BOLB   C2D32110  29.670  26.000  14.630
 1338BOLB   C3D32111  29.530  25.730  14.390
 1338BOLB   C4D32112  29.060  25.780  14.240
 1339BOLB   NC132113  14.010  12.220  15.230
 1339BOLB   PO132114  14.020  11.980  14.770
 1339BOLB   GL132115  13.800  11.710  14.790
 1339BOLB   GL232116  13.710  11.570  14.620
 1339BOLB   C1A32117  13.610  11.360  15.000
 1339BOLB   C2A32118  13.570  10.820  15.110
 1339BOLB   C3A32119  13.760  10.430  15.040
 1339BOLB   C4A32120  14.200  10.370  14.930
 1339BOLB   C1B32121  13.600  11.190  14.510
 1339BOLB   C2B32122  13.350  10.860  14.320
 1339BOLB   C3B32123  12.990  10.710  14.280
 1339BOLB   C4B32124  12.600  10.430  14.360
 1339BOLB   NC232125  15.250   7.680  14.800
 1339BOLB   PO232126  15.140   8.010  15.140
 1339BOLB   GL332127  14.940   8.410  15.010
 1339BOLB   GL432128  14.590   8.320  14.960
 1339BOLB   C1C32129  14.820   8.770  14.910
 1339BOLB   C2C32130  14.720   9.140  14.810
 1339BOLB   C3C32131  14.390   9.490  15.000
 1339BOLB   C4C32132  14.270   9.950  15.070
 1339BOLB   C1D32133  14.750   8.460  14.480
 1339BOLB   C2D32134  14.760   8.850  14.300
 1339BOLB   C3D32135  15.100   9.230  14.380
 1339BOLB   C4D32136  15.050   9.510  14.680
 1340BOLB   NC132137  14.210  24.880   6.910
 1340BOLB   PO132138  14.240  24.360   6.870
 1340BOLB   GL132139  13.830  24.550   6.940
 1340BOLB   GL232140  13.840  24.670   6.630
 1340BOLB   C1A32141  13.490  24.820   6.860
 1340BOLB   C2A32142  13.190  24.710   6.700
 1340BOLB   C3A32143  13.160  24.970   6.350
 1340BOLB   C4A32144  12.860  25.280   6.230
 1340BOLB   C1B32145  13.720  24.710   6.220
 1340BOLB   C2B32146  13.830  24.900   5.790
 1340BOLB   C3B32147  13.740  25.060   5.410
 1340BOLB   C4B32148  13.450  25.170   5.250
 1340BOLB   NC232149  10.750  25.900   4.270
 1340BOLB   PO232150  11.030  25.940   4.490
 1340BOLB   GL332151  11.320  25.980   4.830
 1340BOLB   GL432152  11.550  26.260   4.970
 1340BOLB   C1C32153  11.630  25.800   5.130
 1340BOLB   C2C32154  11.960  25.450   5.200
 1340BOLB   C3C32155  12.350  25.320   5.480
 1340BOLB   C4C32156  12.670  25.300   5.840
 1340BOLB   C1D32157  12.020  26.130   5.040
 1340BOLB   C2D32158  12.270  25.860   5.340
 1340BOLB   C3D32159  12.590  25.750   5.610
 1340BOLB   C4D32160  12.980  25.690   5.770
 1341BOLB   NC132161  12.190  24.870   7.960
 1341BOLB   PO132162  12.240  24.490   7.630
 1341BOLB   GL132163  12.020  24.770   7.510
 1341BOLB   GL232164  12.330  25.000   7.510
 1341BOLB   C1A32165  11.900  25.080   7.050
 1341BOLB   C2A32166  11.740  25.260   6.620
 1341BOLB   C3A32167  11.750  25.150   6.180
 1341BOLB   C4A32168  11.450  25.490   6.160
 1341BOLB   C1B32169  12.060  25.350   7.460
 1341BOLB   C2B32170  12.000  25.590   7.070
 1341BOLB   C3B32171  11.720  26.030   7.130
 1341BOLB   C4B32172  11.650  26.380   7.450
 1341BOLB   NC232173  10.710  26.760   5.150
 1341BOLB   PO232174  10.920  27.150   5.130
 1341BOLB   GL332175  10.750  27.020   5.600
 1341BOLB   GL432176  10.970  26.800   5.650
 1341BOLB   C1C32177  10.530  26.780   6.010
 1341BOLB   C2C32178  10.640  26.510   6.210
 1341BOLB   C3C32179  10.970  26.180   6.200
 1341BOLB   C4C32180  11.220  25.810   6.220
 1341BOLB   C1D32181  11.270  26.480   5.690
 1341BOLB   C2D32182  11.420  26.160   5.970
 1341BOLB   C3D32183  11.780  25.900   6.090
 1341BOLB   C4D32184  11.760  25.760   6.550
 1342BOLB   NC132185  14.790  13.650   9.120
 1342BOLB   PO132186  14.380  13.740   9.100
 1342BOLB   GL132187  13.970  13.770   8.990
 1342BOLB   GL232188  13.870  13.850   9.320
 1342BOLB   C1A32189  13.690  13.670   8.660
 1342BOLB   C2A32190  13.570  13.570   8.250
 1342BOLB   C3A32191  13.530  13.430   7.760
 1342BOLB   C4A32192  13.500  13.060   7.440
 1342BOLB   C1B32193  13.490  13.480   9.190
 1342BOLB   C2B32194  13.310  13.380   8.810
 1342BOLB   C3B32195  13.460  13.160   8.550
 1342BOLB   C4B32196  13.360  12.930   8.160
 1342BOLB   NC232197  11.770  10.960   6.840
 1342BOLB   PO232198  11.880  11.360   6.980
 1342BOLB   GL332199  12.170  11.660   6.840
 1342BOLB   GL432200  12.110  11.950   7.060
 1342BOLB   C1C32201  12.530  12.060   6.730
 1342BOLB   C2C32202  12.530  12.570   6.870
 1342BOLB   C3C32203  12.940  12.730   7.080
 1342BOLB   C4C32204  13.390  12.910   7.060
 1342BOLB   C1D32205  12.340  12.320   7.260
 1342BOLB   C2D32206  12.570  12.610   7.430
 1342BOLB   C3D32207  12.620  13.030   7.480
 1342BOLB   C4D32208  12.920  13.210   7.230
 1343BOLB   NC132209  20.110  18.670   5.940
 1343BOLB   PO132210  20.440  18.970   5.880
 1343BOLB   GL132211  20.790  18.880   5.620
 1343BOLB   GL232212  20.950  18.670   5.640
 1343BOLB   C1A32213  20.950  18.970   5.130
 1343BOLB   C2A32214  21.190  18.860   4.930
 1343BOLB   C3A32215  21.400  18.600   4.660
 1343BOLB   C4A32216  21.820  18.430   4.540
 1343BOLB   C1B32217  21.210  18.490   5.320
 1343BOLB   C2B32218  21.190  18.070   5.160
 1343BOLB   C3B32219  21.230  18.070   4.690
 1343BOLB   C4B32220  21.560  17.870   4.350
 1343BOLB   NC232221  23.030  18.940   2.370
 1343BOLB   PO232222  22.730  18.510   2.310
 1343BOLB   GL332223  22.560  18.720   2.700
 1343BOLB   GL432224  22.710  18.890   2.800
 1343BOLB   C1C32225  22.400  18.400   2.970
 1343BOLB   C2C32226  22.250  18.260   3.350
 1343BOLB   C3C32227  22.080  18.180   3.750
 1343BOLB   C4C32228  21.920  18.220   4.160
 1343BOLB   C1D32229  22.840  18.820   3.220
 1343BOLB   C2D32230  22.960  18.740   3.650
 1343BOLB   C3D32231  23.280  18.740   3.950
 1343BOLB   C4D32232  23.240  18.530   4.250
 1344BOLB   NC132233  19.030  20.550   5.020
 1344BOLB   PO132234  19.230  20.360   5.240
 1344BOLB   GL132235  19.470  20.330   4.840
 1344BOLB   GL232236  19.870  20.530   4.720
 1344BOLB   C1A32237  19.510  20.510   4.360
 1344BOLB   C2A32238  19.880  20.650   4.200
 1344BOLB   C3A32239  19.950  20.810   3.840
 1344BOLB   C4A32240  19.990  21.080   3.480
 1344BOLB   C1B32241  20.290  20.540   4.480
 1344BOLB   C2B32242  20.700  20.590   4.450
 1344BOLB   C3B32243  21.070  20.470   4.540
 1344BOLB   C4B32244  21.560  20.420   4.780
 1344BOLB   NC232245  19.690  21.610   0.830
 1344BOLB   PO232246  19.420  21.470   1.160
 1344BOLB   GL332247  19.440  21.210   1.520
 1344BOLB   GL432248  19.090  21.350   1.480
 1344BOLB   C1C32249  19.510  21.110   2.040
 1344BOLB   C2C32250  19.490  21.480   2.320
 1344BOLB   C3C32251  19.580  21.380   2.730
 1344BOLB   C4C32252  19.900  21.170   3.010
 1344BOLB   C1D32253  18.980  21.040   1.740
 1344BOLB   C2D32254  18.640  20.840   1.920
 1344BOLB   C3D32255  18.320  20.470   1.950
 1344BOLB   C4D32256  18.100  20.250   2.260
 1345BOLB   NC132257  20.860  17.180   8.530
 1345BOLB   PO132258  21.170  16.920   8.260
 1345BOLB   GL132259  21.480  16.770   7.840
 1345BOLB   GL232260  21.430  16.430   7.740
 1345BOLB   C1A32261  21.870  16.600   7.640
 1345BOLB   C2A32262  22.010  16.210   7.510
 1345BOLB   C3A32263  21.880  15.980   7.200
 1345BOLB   C4A32264  22.030  15.880   6.810
 1345BOLB   C1B32265  21.490  16.380   7.320
 1345BOLB   C2B32266  21.580  16.260   7.010
 1345BOLB   C3B32267  21.640  16.210   6.530
 1345BOLB   C4B32268  22.010  15.970   6.210
 1345BOLB   NC232269  24.140  14.450   5.700
 1345BOLB   PO232270  24.250  14.640   6.130
 1345BOLB   GL332271  23.810  14.580   6.230
 1345BOLB   GL432272  23.670  14.580   6.050
 1345BOLB   C1C32273  23.370  14.660   6.450
 1345BOLB   C2C32274  23.020  14.960   6.620
 1345BOLB   C3C32275  22.600  15.260   6.620
 1345BOLB   C4C32276  22.300  15.630   6.540
 1345BOLB   C1D32277  23.340  14.440   5.850
 1345BOLB   C2D32278  22.820  14.420   5.750
 1345BOLB   C3D32279  22.560  14.570   5.310
 1345BOLB   C4D32280  22.210  14.820   5.410
 1346BOLB   NC132281  18.430  28.220   8.200
 1346BOLB   PO132282  18.750  28.490   8.420
 1346BOLB   GL132283  18.540  28.730   8.170
 1346BOLB   GL232284  18.470  28.660   7.810
 1346BOLB   C1A32285  18.220  29.030   8.020
 1346BOLB   C2A32286  18.370  29.430   7.870
 1346BOLB   C3A32287  18.700  29.690   7.770
 1346BOLB   C4A32288  18.910  29.900   7.550
 1346BOLB   C1B32289  18.590  29.090   7.620
 1346BOLB   C2B32290  18.810  29.410   7.370
 1346BOLB   C3B32291  18.920  29.660   7.110
 1346BOLB   C4B32292  18.930  29.860   6.820
 1346BOLB   NC232293  17.110  30.570   5.460
 1346BOLB   PO232294  17.520  30.860   5.540
 1346BOLB   GL332295  17.900  30.820   5.840
 1346BOLB   GL432296  18.200  30.620   5.780
 1346BOLB   C1C32297  18.000  30.710   6.300
 1346BOLB   C2C32298  18.270  30.600   6.650
 1346BOLB   C3C32299  18.630  30.270   6.730
 1346BOLB   C4C32300  18.720  30.130   7.140
 1346BOLB   C1D32301  17.920  30.270   5.740
 1346BOLB   C2D32302  17.690  30.140   6.060
 1346BOLB   C3D32303  17.760  30.180   6.530
 1346BOLB   C4D32304  18.150  30.130   6.670
 1347BOLB   NC132305  15.970  19.840   4.690
 1347BOLB   PO132306  15.660  20.040   4.980
 1347BOLB   GL132307  15.610  20.180   4.590
 1347BOLB   GL232308  15.220  20.290   4.450
 1347BOLB   C1A32309  15.500  19.910   4.220
 1347BOLB   C2A32310  15.520  19.900   3.820
 1347BOLB   C3A32311  15.540  19.710   3.370
 1347BOLB   C4A32312  15.460  19.560   2.990
 1347BOLB   C1B32313  15.040  20.480   4.090
 1347BOLB   C2B32314  14.790  20.760   3.830
 1347BOLB   C3B32315  14.550  20.900   3.470
 1347BOLB   C4B32316  14.560  21.100   3.050
 1347BOLB   NC232317  16.040  20.550   0.350
 1347BOLB   PO232318  16.150  20.150   0.560
 1347BOLB   GL332319  16.130  20.150   0.950
 1347BOLB   GL432320  16.370  19.890   0.940
 1347BOLB   C1C32321  16.000  20.070   1.390
 1347BOLB   C2C32322  15.780  19.990   1.750
 1347BOLB   C3C32323  15.640  19.910   2.250
 1347BOLB   C4C32324  15.630  19.670   2.650
 1347BOLB   C1D32325  16.450  19.820   1.400
 1347BOLB   C2D32326  16.290  19.730   1.760
 1347BOLB   C3D32327  16.530  19.550   2.080
 1347BOLB   C4D32328  16.750  19.370   2.420
 1348BOLB   NC132329  24.760  22.290   8.890
 1348BOLB   PO132330  24.620  22.340   8.450
 1348BOLB   GL132331  24.830  22.430   8.050
 1348BOLB   GL232332  24.830  22.740   7.930
 1348BOLB   C1A32333  25.130  22.240   7.740
 1348BOLB   C2A32334  25.330  21.990   7.500
 1348BOLB   C3A32335  25.660  21.670   7.500
 1348BOLB   C4A32336  25.880  21.310   7.260
 1348BOLB   C1B32337  24.970  22.730   7.560
 1348BOLB   C2B32338  25.060  23.190   7.390
 1348BOLB   C3B32339  25.400  23.280   7.110
 1348BOLB   C4B32340  25.560  23.270   6.670
 1348BOLB   NC232341  26.390  21.350   4.820
 1348BOLB   PO232342  26.800  21.550   4.860
 1348BOLB   GL332343  26.730  21.430   5.330
 1348BOLB   GL432344  26.380  21.180   5.350
 1348BOLB   C1C32345  26.540  21.590   5.670
 1348BOLB   C2C32346  26.310  21.410   6.040
 1348BOLB   C3C32347  26.120  21.270   6.380
 1348BOLB   C4C32348  26.050  21.220   6.880
 1348BOLB   C1D32349  26.480  21.110   5.700
 1348BOLB   C2D32350  26.320  20.860   6.110
 1348BOLB   C3D32351  25.980  20.740   6.460
 1348BOLB   C4D32352  25.510  20.690   6.380
 1349BOLB   NC132353  23.240  17.600   9.990
 1349BOLB   PO132354  23.580  17.400  10.370
 1349BOLB   GL132355  23.900  17.170  10.310
 1349BOLB   GL232356  23.800  16.880  10.460
 1349BOLB   C1A32357  24.170  17.180   9.920
 1349BOLB   C2A32358  24.490  17.080   9.710
 1349BOLB   C3A32359  24.750  17.050   9.330
 1349BOLB   C4A32360  25.080  16.940   9.150
 1349BOLB   C1B32361  24.250  16.730  10.200
 1349BOLB   C2B32362  24.640  16.610   9.930
 1349BOLB   C3B32363  25.000  16.790   9.760
 1349BOLB   C4B32364  25.450  16.770   9.670
 1349BOLB   NC232365  26.770  15.590   8.070
 1349BOLB   PO232366  26.400  15.400   8.190
 1349BOLB   GL332367  26.000  15.380   8.390
 1349BOLB   GL432368  25.980  15.210   8.690
 1349BOLB   C1C32369  25.670  15.710   8.530
 1349BOLB   C2C32370  25.360  15.980   8.630
 1349BOLB   C3C32371  25.210  16.400   8.510
 1349BOLB   C4C32372  25.130  16.690   8.810
 1349BOLB   C1D32373  25.500  15.230   8.670
 1349BOLB   C2D32374  25.180  15.270   8.910
 1349BOLB   C3D32375  24.780  15.390   9.170
 1349BOLB   C4D32376  24.650  15.370   9.570
 1350BOLB   NC132377  24.470  28.030  12.430
 1350BOLB   PO132378  24.730  28.110  12.560
 1350BOLB   GL132379  25.050  28.310  12.350
 1350BOLB   GL232380  25.110  28.430  12.610
 1350BOLB   C1A32381  25.260  28.710  12.170
 1350BOLB   C2A32382  25.490  28.980  12.180
 1350BOLB   C3A32383  25.660  29.330  12.290
 1350BOLB   C4A32384  25.450  29.790  12.330
 1350BOLB   C1B32385  25.500  28.830  12.670
 1350BOLB   C2B32386  25.870  29.000  12.660
 1350BOLB   C3B32387  26.340  28.990  12.620
 1350BOLB   C4B32388  26.700  29.090  12.440
 1350BOLB   NC232389  26.730  31.610  12.340
 1350BOLB   PO232390  26.740  31.300  12.050
 1350BOLB   GL332391  26.490  30.990  11.970
 1350BOLB   GL432392  26.270  31.310  11.760
 1350BOLB   C1C32393  26.050  30.910  12.000
 1350BOLB   C2C32394  25.760  30.720  12.050
 1350BOLB   C3C32395  25.510  30.480  11.960
 1350BOLB   C4C32396  25.380  30.060  11.960
 1350BOLB   C1D32397  25.840  31.340  11.940
 1350BOLB   C2D32398  25.500  31.080  11.870
 1350BOLB   C3D32399  25.430  30.910  11.570
 1350BOLB   C4D32400  25.630  30.730  11.330
 1351BOLB   NC132401   9.980  15.080   9.350
 1351BOLB   PO132402  10.170  14.670   9.450
 1351BOLB   GL132403  10.560  14.820   9.520
 1351BOLB   GL232404  10.770  14.670   9.760
 1351BOLB   C1A32405  11.040  15.020   9.500
 1351BOLB   C2A32406  11.360  15.110   9.280
 1351BOLB   C3A32407  11.770  14.770   9.200
 1351BOLB   C4A32408  12.120  14.620   9.370
 1351BOLB   C1B32409  11.190  14.460   9.480
 1351BOLB   C2B32410  11.630  14.340   9.560
 1351BOLB   C3B32411  11.940  14.490   9.780
 1351BOLB   C4B32412  11.870  14.690  10.140
 1351BOLB   NC232413  14.280  14.050  10.410
 1351BOLB   PO232414  13.850  13.930  10.260
 1351BOLB   GL332415  13.600  13.950   9.900
 1351BOLB   GL432416  13.470  14.310   9.790
 1351BOLB   C1C32417  13.430  13.850   9.490
 1351BOLB   C2C32418  13.050  13.970   9.400
 1351BOLB   C3C32419  12.710  14.050   9.230
 1351BOLB   C4C32420  12.410  14.350   9.100
 1351BOLB   C1D32421  13.100  14.660   9.870
 1351BOLB   C2D32422  12.730  14.990   9.940
 1351BOLB   C3D32423  12.590  15.450   9.920
 1351BOLB   C4D32424  12.430  15.780  10.250
 1352BOLB   NC132425  23.440  22.430   7.940
 1352BOLB   PO132426  23.800  22.470   7.780
 1352BOLB   GL132427  23.910  22.450   7.310
 1352BOLB   GL232428  24.240  22.470   7.410
 1352BOLB   C1A32429  23.970  22.200   6.910
 1352BOLB   C2A32430  24.230  22.010   6.530
 1352BOLB   C3A32431  24.520  21.810   6.170
 1352BOLB   C4A32432  24.620  21.540   5.800
 1352BOLB   C1B32433  24.460  22.180   7.100
 1352BOLB   C2B32434  24.670  22.040   6.710
 1352BOLB   C3B32435  24.680  21.650   6.620
 1352BOLB   C4B32436  24.690  21.290   6.400
 1352BOLB   NC232437  25.350  20.990   3.770
 1352BOLB   PO232438  25.280  20.560   3.660
 1352BOLB   GL332439  25.120  20.570   4.070
 1352BOLB   GL432440  24.900  20.750   3.980
 1352BOLB   C1C32441  25.100  20.840   4.470
 1352BOLB   C2C32442  25.320  20.960   4.930
 1352BOLB   C3C32443  25.140  21.060   5.320
 1352BOLB   C4C32444  24.950  21.150   5.670
 1352BOLB   C1D32445  24.600  20.720   4.160
 1352BOLB   C2D32446  24.490  20.820   4.530
 1352BOLB   C3D32447  24.360  21.140   4.900
 1352BOLB   C4D32448  24.200  21.200   5.320
 1353BOLB   NC132449  13.670  25.060   7.680
 1353BOLB   PO132450  13.790  25.460   7.770
 1353BOLB   GL132451  13.820  25.710   7.430
 1353BOLB   GL232452  14.050  25.680   7.260
 1353BOLB   C1A32453  13.800  26.090   7.250
 1353BOLB   C2A32454  13.520  26.240   6.890
 1353BOLB   C3A32455  13.350  26.440   6.550
 1353BOLB   C4A32456  13.110  26.750   6.230
 1353BOLB   C1B32457  13.820  25.810   6.850
 1353BOLB   C2B32458  13.640  25.990   6.470
 1353BOLB   C3B32459  13.400  26.180   6.140
 1353BOLB   C4B32460  13.070  26.270   5.970
 1353BOLB   NC232461  12.850  27.670   4.180
 1353BOLB   PO232462  12.870  27.910   4.570
 1353BOLB   GL332463  12.740  27.790   5.010
 1353BOLB   GL432464  12.580  27.970   5.240
 1353BOLB   C1C32465  13.020  27.780   5.430
 1353BOLB   C2C32466  13.250  27.550   5.480
 1353BOLB   C3C32467  13.540  27.340   5.710
 1353BOLB   C4C32468  13.490  27.070   6.090
 1353BOLB   C1D32469  12.490  27.720   5.610
 1353BOLB   C2D32470  12.640  27.500   5.940
 1353BOLB   C3D32471  12.680  26.980   6.020
 1353BOLB   C4D32472  12.600  26.660   6.160
 1354BOLB   NC132473  17.770  26.990   7.240
 1354BOLB   PO132474  17.980  26.680   6.990
 1354BOLB   GL132475  17.860  27.050   6.720
 1354BOLB   GL232476  17.570  27.200   6.900
 1354BOLB   C1A32477  17.950  27.480   6.550
 1354BOLB   C2A32478  18.000  27.950   6.270
 1354BOLB   C3A32479  17.940  28.250   5.930
 1354BOLB   C4A32480  18.110  28.600   5.580
 1354BOLB   C1B32481  17.480  27.360   6.540
 1354BOLB   C2B32482  17.310  27.360   6.190
 1354BOLB   C3B32483  17.290  27.610   5.870
 1354BOLB   C4B32484  17.280  27.680   5.370
 1354BOLB   NC232485  18.930  29.970   3.660
 1354BOLB   PO232486  18.940  29.540   3.630
 1354BOLB   GL332487  19.020  29.400   3.970
 1354BOLB   GL432488  19.200  29.180   4.170
 1354BOLB   C1C32489  18.680  29.340   4.280
 1354BOLB   C2C32490  18.410  29.140   4.570
 1354BOLB   C3C32491  18.130  29.120   4.890
 1354BOLB   C4C32492  17.990  28.760   5.210
 1354BOLB   C1D32493  18.990  28.890   4.200
 1354BOLB   C2D32494  19.040  28.480   4.170
 1354BOLB   C3D32495  19.140  28.110   3.960
 1354BOLB   C4D32496  19.110  27.590   3.920
 1355BOLB   NC132497  19.040  24.470   5.830
 1355BOLB   PO132498  18.990  24.890   6.020
 1355BOLB   GL132499  18.990  25.240   5.720
 1355BOLB   GL232500  19.110  25.500   5.880
 1355BOLB   C1A32501  19.050  25.550   5.410
 1355BOLB   C2A32502  19.440  25.660   5.120
 1355BOLB   C3A32503  19.740  25.970   5.260
 1355BOLB   C4A32504  20.210  26.240   5.160
 1355BOLB   C1B32505  19.330  25.830   5.650
 1355BOLB   C2B32506  19.320  26.240   5.390
 1355BOLB   C3B32507  19.100  26.450   5.120
 1355BOLB   C4B32508  19.060  26.930   4.930
 1355BOLB   NC232509  21.020  27.450   3.170
 1355BOLB   PO232510  21.130  27.040   2.950
 1355BOLB   GL332511  21.130  26.970   3.280
 1355BOLB   GL432512  21.570  26.940   3.240
 1355BOLB   C1C32513  20.830  26.670   3.390
 1355BOLB   C2C32514  20.820  26.580   3.920
 1355BOLB   C3C32515  20.700  26.470   4.340
 1355BOLB   C4C32516  20.570  26.370   4.840
 1355BOLB   C1D32517  21.500  26.780   3.610
 1355BOLB   C2D32518  21.510  26.650   4.080
 1355BOLB   C3D32519  21.580  26.410   4.360
 1355BOLB   C4D32520  21.540  25.950   4.560
 1356BOLB   NC132521   5.280  23.540  15.650
 1356BOLB   PO132522   5.100  23.260  15.460
 1356BOLB   GL132523   5.380  23.150  15.230
 1356BOLB   GL232524   5.490  22.940  14.880
 1356BOLB   C1A32525   5.840  23.070  15.290
 1356BOLB   C2A32526   6.240  22.910  15.510
 1356BOLB   C3A32527   6.510  22.650  15.550
 1356BOLB   C4A32528   6.990  22.570  15.270
 1356BOLB   C1B32529   5.870  22.670  14.840
 1356BOLB   C2B32530   6.130  22.790  14.610
 1356BOLB   C3B32531   6.420  23.170  14.520
 1356BOLB   C4B32532   6.590  23.500  14.280
 1356BOLB   NC232533   9.010  21.780  15.520
 1356BOLB   PO232534   8.790  21.770  15.910
 1356BOLB   GL332535   8.480  21.670  15.790
 1356BOLB   GL432536   8.440  21.330  15.630
 1356BOLB   C1C32537   8.110  21.620  15.880
 1356BOLB   C2C32538   7.720  21.530  15.810
 1356BOLB   C3C32539   7.510  21.890  15.530
 1356BOLB   C4C32540   7.160  22.110  15.290
 1356BOLB   C1D32541   8.060  21.260  15.580
 1356BOLB   C2D32542   7.780  21.290  15.150
 1356BOLB   C3D32543   7.600  20.980  14.840
 1356BOLB   C4D32544   7.480  20.550  14.720
 1357BOLB   NC132545  19.720  13.990  16.040
 1357BOLB   PO132546  19.520  13.590  15.910
 1357BOLB   GL132547  19.960  13.430  15.940
 1357BOLB   GL232548  20.220  13.500  15.940
 1357BOLB   C1A32549  20.080  13.050  16.100
 1357BOLB   C2A32550  20.200  12.600  16.090
 1357BOLB   C3A32551  20.430  12.240  15.930
 1357BOLB   C4A32552  20.560  11.880  15.780
 1357BOLB   C1B32553  20.580  13.180  16.220
 1357BOLB   C2B32554  20.500  12.770  16.600
 1357BOLB   C3B32555  20.070  12.490  16.760
 1357BOLB   C4B32556  19.780  12.220  16.620
 1357BOLB   NC232557  22.120  10.440  16.540
 1357BOLB   PO232558  21.830  10.080  16.260
 1357BOLB   GL332559  21.700  10.390  15.970
 1357BOLB   GL432560  21.380  10.310  15.800
 1357BOLB   C1C32561  21.440  10.670  16.110
 1357BOLB   C2C32562  21.160  10.880  15.950
 1357BOLB   C3C32563  20.910  11.240  15.970
 1357BOLB   C4C32564  20.600  11.480  15.820
 1357BOLB   C1D32565  21.330  10.190  15.370
 1357BOLB   C2D32566  20.900  10.100  15.320
 1357BOLB   C3D32567  20.500   9.810  15.180
 1357BOLB   C4D32568  20.120   9.850  15.420
 1358BOLB   NC132569  20.810  27.630   8.370
 1358BOLB   PO132570  20.800  28.080   8.220
 1358BOLB   GL132571  20.760  28.300   7.890
 1358BOLB   GL232572  21.000  28.280   7.750
 1358BOLB   C1A32573  20.770  28.790   7.610
 1358BOLB   C2A32574  21.020  29.000   7.490
 1358BOLB   C3A32575  21.300  29.330   7.260
 1358BOLB   C4A32576  21.320  29.600   7.050
 1358BOLB   C1B32577  21.150  28.380   7.410
 1358BOLB   C2B32578  21.050  28.410   7.000
 1358BOLB   C3B32579  21.010  28.300   6.590
 1358BOLB   C4B32580  20.880  28.130   6.070
 1358BOLB   NC232581  20.880  32.010   6.370
 1358BOLB   PO232582  21.220  31.840   6.110
 1358BOLB   GL332583  21.210  31.570   6.470
 1358BOLB   GL432584  21.010  31.360   6.520
 1358BOLB   C1C32585  21.350  31.280   6.890
 1358BOLB   C2C32586  21.330  30.780   6.930
 1358BOLB   C3C32587  21.320  30.360   7.000
 1358BOLB   C4C32588  21.210  29.950   7.090
 1358BOLB   C1D32589  20.900  31.000   6.710
 1358BOLB   C2D32590  20.880  30.670   7.020
 1358BOLB   C3D32591  20.770  30.390   7.290
 1358BOLB   C4D32592  21.010  30.210   7.500
 1359BOLB   NC132593   9.980  24.910  11.630
 1359BOLB   PO132594   9.850  24.930  12.020
 1359BOLB   GL132595   9.540  25.180  11.870
 1359BOLB   GL232596   9.490  25.350  12.030
 1359BOLB   C1A32597   9.450  25.400  11.480
 1359BOLB   C2A32598   9.220  25.600  11.180
 1359BOLB   C3A32599   8.740  25.700  11.100
 1359BOLB   C4A32600   8.550  26.160  11.020
 1359BOLB   C1B32601   9.060  25.410  11.840
 1359BOLB   C2B32602   8.730  25.470  11.570
 1359BOLB   C3B32603   8.350  25.580  11.630
 1359BOLB   C4B32604   8.240  25.970  11.890
 1359BOLB   NC232605   6.650  27.800  11.030
 1359BOLB   PO232606   6.990  28.140  10.790
 1359BOLB   GL332607   7.480  27.920  10.990
 1359BOLB   GL432608   7.800  28.060  11.050
 1359BOLB   C1C32609   7.550  27.540  10.970
 1359BOLB   C2C32610   7.800  27.250  10.840
 1359BOLB   C3C32611   8.220  26.950  10.910
 1359BOLB   C4C32612   8.360  26.560  10.840
 1359BOLB   C1D32613   8.020  27.620  11.060
 1359BOLB   C2D32614   8.100  27.300  11.250
 1359BOLB   C3D32615   8.100  26.830  11.460
 1359BOLB   C4D32616   8.160  26.450  11.290
 1360BOLB   NC132617  18.250  24.880   6.750
 1360BOLB   PO132618  18.070  25.120   6.280
 1360BOLB   GL132619  18.080  25.290   5.890
 1360BOLB   GL232620  17.830  25.500   5.930
 1360BOLB   C1A32621  18.070  25.480   5.420
 1360BOLB   C2A32622  18.090  25.610   4.980
 1360BOLB   C3A32623  18.080  25.580   4.560
 1360BOLB   C4A32624  17.940  25.660   4.240
 1360BOLB   C1B32625  17.580  25.610   5.560
 1360BOLB   C2B32626  17.590  25.640   5.090
 1360BOLB   C3B32627  17.640  25.750   4.630
 1360BOLB   C4B32628  17.450  25.930   4.290
 1360BOLB   NC232629  17.480  26.610   1.750
 1360BOLB   PO232630  17.680  26.800   2.070
 1360BOLB   GL332631  17.520  26.700   2.420
 1360BOLB   GL432632  17.410  26.390   2.550
 1360BOLB   C1C32633  17.830  26.450   2.830
 1360BOLB   C2C32634  17.940  26.180   3.150
 1360BOLB   C3C32635  17.890  26.120   3.560
 1360BOLB   C4C32636  18.070  25.860   3.910
 1360BOLB   C1D32637  17.410  26.110   2.950
 1360BOLB   C2D32638  17.510  25.900   3.340
 1360BOLB   C3D32639  17.570  25.700   3.690
 1360BOLB   C4D32640  17.550  25.540   4.030
 1361BOLB   NC132641  19.150  13.950   7.900
 1361BOLB   PO132642  19.480  14.150   7.660
 1361BOLB   GL132643  19.440  13.700   7.540
 1361BOLB   GL232644  19.150  13.740   7.450
 1361BOLB   C1A32645  19.620  13.430   7.230
 1361BOLB   C2A32646  19.450  13.100   6.880
 1361BOLB   C3A32647  19.190  12.800   6.590
 1361BOLB   C4A32648  18.920  12.530   6.390
 1361BOLB   C1B32649  19.110  13.340   7.240
 1361BOLB   C2B32650  19.090  12.910   7.200
 1361BOLB   C3B32651  19.310  12.500   7.310
 1361BOLB   C4B32652  19.090  12.110   7.170
 1361BOLB   NC232653  18.670  11.720   3.990
 1361BOLB   PO232654  18.650  11.530   4.480
 1361BOLB   GL332655  18.650  11.780   4.820
 1361BOLB   GL432656  18.930  11.980   4.920
 1361BOLB   C1C32657  18.540  11.950   5.270
 1361BOLB   C2C32658  18.490  12.290   5.480
 1361BOLB   C3C32659  18.350  12.520   5.770
 1361BOLB   C4C32660  18.490  12.560   6.190
 1361BOLB   C1D32661  18.910  12.410   5.030
 1361BOLB   C2D32662  18.760  12.650   5.410
 1361BOLB   C3D32663  18.770  12.820   5.820
 1361BOLB   C4D32664  18.900  12.950   6.190
 1362BOLB   NC132665  11.290  19.490   7.590
 1362BOLB   PO132666  11.490  19.160   7.290
 1362BOLB   GL132667  11.060  19.090   7.250
 1362BOLB   GL232668  11.080  19.090   7.590
 1362BOLB   C1A32669  10.710  18.890   7.110
 1362BOLB   C2A32670  10.680  18.540   7.050
 1362BOLB   C3A32671  10.560  18.060   6.980
 1362BOLB   C4A32672  10.450  17.590   6.930
 1362BOLB   C1B32673  10.680  19.190   7.530
 1362BOLB   C2B32674  10.250  19.050   7.350
 1362BOLB   C3B32675   9.920  18.730   7.500
 1362BOLB   C4B32676   9.610  18.420   7.600
 1362BOLB   NC232677   9.850  15.100   6.920
 1362BOLB   PO232678   9.810  15.500   7.140
 1362BOLB   GL332679  10.150  15.710   6.990
 1362BOLB   GL432680  10.040  15.920   6.700
 1362BOLB   C1C32681  10.480  15.950   7.010
 1362BOLB   C2C32682  10.540  16.400   7.200
 1362BOLB   C3C32683  10.460  16.770   6.980
 1362BOLB   C4C32684  10.560  17.120   7.150
 1362BOLB   C1D32685  10.370  16.050   6.560
 1362BOLB   C2D32686  10.630  16.350   6.730
 1362BOLB   C3D32687  10.970  16.620   6.880
 1362BOLB   C4D32688  11.010  17.100   6.720
 1363BOLB   NC132689  22.110  24.780   7.570
 1363BOLB   PO132690  22.050  24.920   7.190
 1363BOLB   GL132691  22.300  25.310   6.900
 1363BOLB   GL232692  22.340  25.620   7.010
 1363BOLB   C1A32693  22.470  25.480   6.530
 1363BOLB   C2A32694  22.640  25.890   6.270
 1363BOLB   C3A32695  22.540  25.980   5.820
 1363BOLB   C4A32696  22.480  25.910   5.310
 1363BOLB   C1B32697  22.640  25.890   6.800
 1363BOLB   C2B32698  22.980  26.200   6.780
 1363BOLB   C3B32699  23.240  26.580   6.670
 1363BOLB   C4B32700  23.570  26.890   6.620
 1363BOLB   NC232701  23.370  25.100   2.810
 1363BOLB   PO232702  22.980  25.480   2.800
 1363BOLB   GL332703  22.840  25.470   3.220
 1363BOLB   GL432704  22.440  25.480   3.310
 1363BOLB   C1C32705  22.840  25.520   3.630
 1363BOLB   C2C32706  22.700  25.610   3.990
 1363BOLB   C3C32707  22.680  25.680   4.410
 1363BOLB   C4C32708  22.680  25.840   4.830
 1363BOLB   C1D32709  22.350  25.800   3.690
 1363BOLB   C2D32710  22.350  25.980   4.000
 1363BOLB   C3D32711  22.480  26.160   4.300
 1363BOLB   C4D32712  22.270  26.260   4.710
 1364BOLB   NC132713  14.240  18.040   4.870
 1364BOLB   PO132714  14.080  18.250   5.220
 1364BOLB   GL132715  13.700  18.350   4.970
 1364BOLB   GL232716  13.640  18.240   4.640
 1364BOLB   C1A32717  13.170  18.390   4.830
 1364BOLB   C2A32718  12.670  18.310   4.790
 1364BOLB   C3A32719  12.310  18.340   4.980
 1364BOLB   C4A32720  12.080  17.980   5.140
 1364BOLB   C1B32721  13.390  18.230   4.370
 1364BOLB   C2B32722  13.450  18.440   3.940
 1364BOLB   C3B32723  13.410  18.460   3.430
 1364BOLB   C4B32724  13.110  18.300   3.070
 1364BOLB   NC232725  10.560  16.420   3.590
 1364BOLB   PO232726  10.680  16.830   3.430
 1364BOLB   GL332727  10.780  17.130   3.790
 1364BOLB   GL432728  10.820  17.540   3.680
 1364BOLB   C1C32729  10.610  17.320   4.190
 1364BOLB   C2C32730  10.900  17.490   4.520
 1364BOLB   C3C32731  11.400  17.660   4.600
 1364BOLB   C4C32732  11.730  17.770   4.970
 1364BOLB   C1D32733  11.110  17.320   4.050
 1364BOLB   C2D32734  11.540  17.340   4.230
 1364BOLB   C3D32735  12.000  17.360   4.270
 1364BOLB   C4D32736  12.510  17.410   4.330
 1365BOLB   NC132737  24.140  19.650   9.730
 1365BOLB   PO132738  23.870  19.650   9.380
 1365BOLB   GL132739  24.140  19.490   8.980
 1365BOLB   GL232740  24.040  19.760   8.760
 1365BOLB   C1A32741  24.580  19.280   9.000
 1365BOLB   C2A32742  24.960  19.380   9.030
 1365BOLB   C3A32743  25.340  19.400   8.850
 1365BOLB   C4A32744  25.670  19.300   8.700
 1365BOLB   C1B32745  24.280  19.600   8.450
 1365BOLB   C2B32746  24.690  19.510   8.490
 1365BOLB   C3B32747  24.990  19.200   8.450
 1365BOLB   C4B32748  24.890  18.790   8.160
 1365BOLB   NC232749  27.560  19.080   7.390
 1365BOLB   PO232750  27.860  18.660   7.650
 1365BOLB   GL332751  27.430  18.730   7.790
 1365BOLB   GL432752  27.270  18.950   7.790
 1365BOLB   C1C32753  27.240  18.960   8.270
 1365BOLB   C2C32754  26.790  18.940   8.290
 1365BOLB   C3C32755  26.420  18.850   8.480
 1365BOLB   C4C32756  26.030  19.130   8.450
 1365BOLB   C1D32757  27.140  19.380   7.870
 1365BOLB   C2D32758  26.760  19.360   8.070
 1365BOLB   C3D32759  26.340  19.200   8.090
 1365BOLB   C4D32760  26.190  19.040   7.710
 1366BOLB   NC132761  19.500  16.230   7.040
 1366BOLB   PO132762  19.710  16.630   6.830
 1366BOLB   GL132763  19.820  16.630   6.460
 1366BOLB   GL232764  19.780  16.230   6.470
 1366BOLB   C1A32765  19.800  16.510   6.040
 1366BOLB   C2A32766  19.950  16.300   5.630
 1366BOLB   C3A32767  20.270  16.240   5.360
 1366BOLB   C4A32768  20.630  16.270   5.170
 1366BOLB   C1B32769  19.790  16.000   6.170
 1366BOLB   C2B32770  20.120  15.650   6.120
 1366BOLB   C3B32771  20.270  15.410   5.850
 1366BOLB   C4B32772  20.400  15.040   5.530
 1366BOLB   NC232773  21.590  15.510   2.510
 1366BOLB   PO232774  21.340  15.710   2.880
 1366BOLB   GL332775  21.500  15.740   3.290
 1366BOLB   GL432776  21.490  15.430   3.550
 1366BOLB   C1C32777  21.420  15.810   3.800
 1366BOLB   C2C32778  21.250  16.030   4.060
 1366BOLB   C3C32779  21.100  16.070   4.460
 1366BOLB   C4C32780  20.970  16.110   4.830
 1366BOLB   C1D32781  21.000  15.460   3.570
 1366BOLB   C2D32782  20.590  15.390   3.860
 1366BOLB   C3D32783  20.180  15.390   4.140
 1366BOLB   C4D32784  20.020  15.570   4.580
 1367BOLB   NC132785  23.070  15.950  15.070
 1367BOLB   PO132786  23.070  16.010  15.530
 1367BOLB   GL132787  23.040  15.910  15.940
 1367BOLB   GL232788  23.080  15.520  15.800
 1367BOLB   C1A32789  23.060  15.620  16.300
 1367BOLB   C2A32790  23.250  15.480  16.660
 1367BOLB   C3A32791  23.630  15.470  16.800
 1367BOLB   C4A32792  23.960  15.230  16.850
 1367BOLB   C1B32793  23.150  15.230  16.070
 1367BOLB   C2B32794  23.330  14.860  16.160
 1367BOLB   C3B32795  23.480  14.580  16.400
 1367BOLB   C4B32796  23.620  14.080  16.340
 1367BOLB   NC232797  25.920  14.070  18.320
 1367BOLB   PO232798  25.800  13.960  17.870
 1367BOLB   GL332799  25.380  14.070  17.840
 1367BOLB   GL432800  25.430  14.260  18.160
 1367BOLB   C1C32801  25.040  14.450  17.820
 1367BOLB   C2C32802  24.730  14.750  17.620
 1367BOLB   C3C32803  24.580  14.850  17.310
 1367BOLB   C4C32804  24.340  15.110  17.030
 1367BOLB   C1D32805  25.620  14.640  18.120
 1367BOLB   C2D32806  25.510  15.170  18.120
 1367BOLB   C3D32807  25.170  15.390  17.920
 1367BOLB   C4D32808  24.950  15.770  17.980
 1368BOLB   NC132809  15.950  21.530   5.470
 1368BOLB   PO132810  16.200  21.930   5.220
 1368BOLB   GL132811  16.220  22.110   4.810
 1368BOLB   GL232812  16.000  22.100   4.610
 1368BOLB   C1A32813  16.370  22.320   4.400
 1368BOLB   C2A32814  16.320  22.460   3.980
 1368BOLB   C3A32815  15.970  22.440   3.710
 1368BOLB   C4A32816  15.570  22.360   3.680
 1368BOLB   C1B32817  15.830  22.500   4.460
 1368BOLB   C2B32818  15.770  22.870   4.080
 1368BOLB   C3B32819  15.610  22.890   3.630
 1368BOLB   C4B32820  15.890  22.930   3.250
 1368BOLB   NC232821  14.470  21.650   1.210
 1368BOLB   PO232822  14.190  21.950   1.510
 1368BOLB   GL332823  14.520  21.920   1.850
 1368BOLB   GL432824  14.310  22.170   2.060
 1368BOLB   C1C32825  14.720  21.810   2.280
 1368BOLB   C2C32826  14.890  21.900   2.720
 1368BOLB   C3C32827  15.250  21.940   2.910
 1368BOLB   C4C32828  15.500  22.120   3.300
 1368BOLB   C1D32829  14.310  21.970   2.470
 1368BOLB   C2D32830  14.460  22.000   2.840
 1368BOLB   C3D32831  14.850  22.280   3.110
 1368BOLB   C4D32832  15.090  22.280   3.480
 1369BOLB   NC132833  25.060  27.450  12.920
 1369BOLB   PO132834  25.150  27.790  12.670
 1369BOLB   GL132835  25.400  28.050  12.750
 1369BOLB   GL232836  25.470  28.280  12.940
 1369BOLB   C1A32837  25.520  28.260  12.420
 1369BOLB   C2A32838  25.930  28.560  12.460
 1369BOLB   C3A32839  26.390  28.600  12.260
 1369BOLB   C4A32840  26.790  28.550  12.030
 1369BOLB   C1B32841  25.900  28.310  12.870
 1369BOLB   C2B32842  26.270  28.560  12.810
 1369BOLB   C3B32843  26.730  28.690  12.700
 1369BOLB   C4B32844  27.130  28.820  12.620
 1369BOLB   NC232845  29.320  28.500  11.810
 1369BOLB   PO232846  29.160  28.860  12.000
 1369BOLB   GL332847  28.690  28.810  12.040
 1369BOLB   GL432848  28.700  28.470  12.010
 1369BOLB   C1C32849  28.260  28.770  12.070
 1369BOLB   C2C32850  27.920  28.830  12.380
 1369BOLB   C3C32851  27.570  28.670  12.380
 1369BOLB   C4C32852  27.230  28.470  12.150
 1369BOLB   C1D32853  28.500  28.090  12.070
 1369BOLB   C2D32854  28.160  27.830  12.030
 1369BOLB   C3D32855  27.790  27.600  12.030
 1369BOLB   C4D32856  27.320  27.620  12.020
 1370BOLB   NC132857  10.150  22.390   9.390
 1370BOLB   PO132858   9.860  22.210   9.120
 1370BOLB   GL132859   9.360  22.260   9.090
 1370BOLB   GL232860   9.100  22.050   9.230
 1370BOLB   C1A32861   9.070  22.370   8.840
 1370BOLB   C2A32862   8.590  22.310   8.650
 1370BOLB   C3A32863   8.200  22.630   8.760
 1370BOLB   C4A32864   8.210  23.080   8.480
 1370BOLB   C1B32865   8.710  22.070   9.100
 1370BOLB   C2B32866   8.290  22.210   9.040
 1370BOLB   C3B32867   7.940  22.120   9.150
 1370BOLB   C4B32868   7.520  22.150   9.330
 1370BOLB   NC232869   6.880  24.720   7.190
 1370BOLB   PO232870   6.480  24.630   7.370
 1370BOLB   GL332871   6.800  24.330   7.590
 1370BOLB   GL432872   6.770  23.940   7.710
 1370BOLB   C1C32873   7.330  24.180   7.680
 1370BOLB   C2C32874   7.710  23.900   7.540
 1370BOLB   C3C32875   7.980  23.600   7.880
 1370BOLB   C4C32876   8.280  23.460   8.240
 1370BOLB   C1D32877   6.910  24.100   8.080
 1370BOLB   C2D32878   6.860  24.090   8.490
 1370BOLB   C3D32879   6.880  24.120   8.910
 1370BOLB   C4D32880   6.530  23.930   9.190
 1371BOLB   NC132881  19.630  19.750   5.280
 1371BOLB   PO132882  19.420  19.360   5.000
 1371BOLB   GL132883  19.750  19.360   4.760
 1371BOLB   GL232884  19.850  19.090   4.750
 1371BOLB   C1A32885  19.750  19.540   4.480
 1371BOLB   C2A32886  19.530  19.730   4.120
 1371BOLB   C3A32887  19.380  19.860   3.680
 1371BOLB   C4A32888  19.620  20.080   3.310
 1371BOLB   C1B32889  20.130  19.080   4.430
 1371BOLB   C2B32890  20.560  19.100   4.290
 1371BOLB   C3B32891  20.940  18.940   4.380
 1371BOLB   C4B32892  21.400  19.100   4.400
 1371BOLB   NC232893  19.430  20.110   1.070
 1371BOLB   PO232894  19.310  19.630   0.960
 1371BOLB   GL332895  19.320  19.570   1.480
 1371BOLB   GL432896  19.250  19.940   1.490
 1371BOLB   C1C32897  19.590  19.560   1.890
 1371BOLB   C2C32898  19.580  19.380   2.240
 1371BOLB   C3C32899  19.620  19.560   2.640
 1371BOLB   C4C32900  19.820  19.770   2.980
 1371BOLB   C1D32901  19.160  20.090   1.840
 1371BOLB   C2D32902  19.140  20.280   2.280
 1371BOLB   C3D32903  18.720  20.290   2.560
 1371BOLB   C4D32904  18.650  20.330   2.910
 1372BOLB   NC132905  22.540  28.810  12.610
 1372BOLB   PO132906  22.850  29.250  12.610
 1372BOLB   GL132907  22.900  29.700  12.610
 1372BOLB   GL232908  23.020  29.810  12.250
 1372BOLB   C1A32909  23.090  30.080  12.630
 1372BOLB   C2A32910  23.220  30.430  12.460
 1372BOLB   C3A32911  23.230  30.860  12.410
 1372BOLB   C4A32912  23.290  31.180  12.110
 1372BOLB   C1B32913  23.240  30.140  12.000
 1372BOLB   C2B32914  23.590  30.510  12.190
 1372BOLB   C3B32915  23.990  30.700  12.170
 1372BOLB   C4B32916  24.370  31.000  12.270
 1372BOLB   NC232917  25.450  32.780  12.270
 1372BOLB   PO232918  25.020  32.790  12.120
 1372BOLB   GL332919  24.880  32.300  11.960
 1372BOLB   GL432920  24.900  31.950  12.090
 1372BOLB   C1C32921  24.540  32.130  11.760
 1372BOLB   C2C32922  24.060  32.200  11.780
 1372BOLB   C3C32923  23.760  31.950  11.890
 1372BOLB   C4C32924  23.630  31.440  12.040
 1372BOLB   C1D32925  24.970  31.810  11.700
 1372BOLB   C2D32926  24.910  31.830  11.310
 1372BOLB   C3D32927  25.110  31.790  11.000
 1372BOLB   C4D32928  24.990  31.590  10.640
 1373BOLB   NC132929  13.510  20.000   5.740
 1373BOLB   PO132930  13.150  20.290   5.620
 1373BOLB   GL132931  12.910  20.530   5.320
 1373BOLB   GL232932  12.890  20.840   5.340
 1373BOLB   C1A32933  12.930  20.550   4.910
 1373BOLB   C2A32934  12.570  20.550   4.580
 1373BOLB   C3A32935  12.450  20.130   4.500
 1373BOLB   C4A32936  12.140  19.770   4.440
 1373BOLB   C1B32937  12.620  20.990   4.990
 1373BOLB   C2B32938  12.470  21.050   4.630
 1373BOLB   C3B32939  12.090  20.720   4.380
 1373BOLB   C4B32940  11.980  20.360   4.250
 1373BOLB   NC232941  11.080  18.480   1.880
 1373BOLB   PO232942  11.060  18.620   2.340
 1373BOLB   GL332943  11.260  18.710   2.810
 1373BOLB   GL432944  11.120  18.700   3.140
 1373BOLB   C1C32945  11.660  18.830   3.150
 1373BOLB   C2C32946  11.740  19.030   3.590
 1373BOLB   C3C32947  11.890  19.090   3.930
 1373BOLB   C4C32948  12.160  19.440   4.040
 1373BOLB   C1D32949  11.380  18.510   3.510
 1373BOLB   C2D32950  11.900  18.550   3.570
 1373BOLB   C3D32951  12.330  18.470   3.490
 1373BOLB   C4D32952  12.550  18.120   3.310
 1374BOLB   NC132953  11.970  24.700   9.230
 1374BOLB   PO132954  11.910  24.700   8.870
 1374BOLB   GL132955  11.450  24.720   8.670
 1374BOLB   GL232956  11.380  24.940   8.340
 1374BOLB   C1A32957  11.010  24.630   8.560
 1374BOLB   C2A32958  10.700  24.680   8.280
 1374BOLB   C3A32959  10.380  24.900   8.230
 1374BOLB   C4A32960  10.200  25.250   8.250
 1374BOLB   C1B32961  11.280  25.310   8.080
 1374BOLB   C2B32962  11.340  25.350   7.680
 1374BOLB   C3B32963  11.600  25.100   7.460
 1374BOLB   C4B32964  11.550  24.800   7.330
 1374BOLB   NC232965   8.550  26.710   6.670
 1374BOLB   PO232966   8.600  26.220   6.790
 1374BOLB   GL332967   8.710  25.990   7.120
 1374BOLB   GL432968   8.500  25.790   7.150
 1374BOLB   C1C32969   9.010  25.830   7.220
 1374BOLB   C2C32970   9.290  25.760   7.620
 1374BOLB   C3C32971   9.560  25.530   7.880
 1374BOLB   C4C32972   9.840  25.340   8.030
 1374BOLB   C1D32973   8.410  25.490   7.480
 1374BOLB   C2D32974   8.490  25.240   7.780
 1374BOLB   C3D32975   8.610  25.380   8.140
 1374BOLB   C4D32976   8.940  25.550   8.530
 1375BOLB   NC132977  17.080  24.060   6.230
 1375BOLB   PO132978  17.480  24.120   5.870
 1375BOLB   GL132979  17.390  24.350   5.420
 1375BOLB   GL232980  17.210  24.210   5.260
 1375BOLB   C1A32981  17.190  24.750   5.180
 1375BOLB   C2A32982  17.260  25.130   4.970
 1375BOLB   C3A32983  17.240  25.360   4.670
 1375BOLB   C4A32984  17.000  25.690   4.440
 1375BOLB   C1B32985  17.300  24.410   4.840
 1375BOLB   C2B32986  17.400  24.270   4.440
 1375BOLB   C3B32987  17.270  24.210   4.080
 1375BOLB   C4B32988  17.420  23.940   3.690
 1375BOLB   NC232989  15.810  26.840   2.810
 1375BOLB   PO232990  15.850  26.490   2.470
 1375BOLB   GL332991  15.910  26.340   2.910
 1375BOLB   GL432992  15.980  26.000   3.000
 1375BOLB   C1C32993  16.310  26.380   3.130
 1375BOLB   C2C32994  16.420  26.150   3.430
 1375BOLB   C3C32995  16.690  25.890   3.650
 1375BOLB   C4C32996  16.780  25.960   4.130
 1375BOLB   C1D32997  15.870  26.220   3.430
 1375BOLB   C2D32998  16.010  26.180   3.800
 1375BOLB   C3D32999  16.420  26.230   3.920
 1375BOLB   C4D33000  16.640  26.430   4.150
 1376BOLB   NC133001  22.660  18.500   8.560
 1376BOLB   PO133002  22.700  18.620   8.300
 1376BOLB   GL133003  22.900  18.410   8.010
 1376BOLB   GL233004  22.710  18.100   7.870
 1376BOLB   C1A33005  23.200  18.600   7.650
 1376BOLB   C2A33006  23.400  18.480   7.250
 1376BOLB   C3A33007  23.690  18.230   6.940
 1376BOLB   C4A33008  24.120  18.150   6.810
 1376BOLB   C1B33009  23.090  18.160   7.540
 1376BOLB   C2B33010  23.230  18.050   7.170
 1376BOLB   C3B33011  23.320  17.790   6.960
 1376BOLB   C4B33012  23.480  17.380   6.860
 1376BOLB   NC233013  25.310  17.540   4.860
 1376BOLB   PO233014  25.620  17.850   5.130
 1376BOLB   GL333015  25.410  18.100   5.440
 1376BOLB   GL433016  25.540  17.890   5.720
 1376BOLB   C1C33017  25.000  18.190   5.540
 1376BOLB   C2C33018  24.770  18.090   5.900
 1376BOLB   C3C33019  24.540  18.390   6.090
 1376BOLB   C4C33020  24.350  18.170   6.420
 1376BOLB   C1D33021  25.230  17.950   6.050
 1376BOLB   C2D33022  25.020  17.820   6.350
 1376BOLB   C3D33023  24.720  17.920   6.650
 1376BOLB   C4D33024  24.560  17.900   7.060
 1377BOLB   NC133025  22.810  27.890   9.820
 1377BOLB   PO133026  23.260  28.070   9.850
 1377BOLB   GL133027  23.590  28.320   9.580
 1377BOLB   GL233028  23.540  28.330   9.150
 1377BOLB   C1A33029  23.900  28.640   9.530
 1377BOLB   C2A33030  24.240  28.930   9.620
 1377BOLB   C3A33031  24.700  29.130   9.750
 1377BOLB   C4A33032  24.960  29.500   9.660
 1377BOLB   C1B33033  23.700  28.280   8.770
 1377BOLB   C2B33034  23.590  28.480   8.340
 1377BOLB   C3B33035  23.560  28.820   8.040
 1377BOLB   C4B33036  23.400  28.950   7.720
 1377BOLB   NC233037  26.950  29.910   7.870
 1377BOLB   PO233038  26.530  29.640   7.980
 1377BOLB   GL333039  26.430  29.510   8.390
 1377BOLB   GL433040  26.580  29.460   8.690
 1377BOLB   C1C33041  25.990  29.560   8.640
 1377BOLB   C2C33042  25.800  29.960   8.860
 1377BOLB   C3C33043  25.600  30.030   9.230
 1377BOLB   C4C33044  25.440  29.710   9.430
 1377BOLB   C1D33045  26.340  29.060   8.770
 1377BOLB   C2D33046  26.390  28.720   9.120
 1377BOLB   C3D33047  26.120  28.370   9.360
 1377BOLB   C4D33048  26.330  28.060   9.480
 1378BOLB   NC133049  25.370  19.080  11.750
 1378BOLB   PO133050  25.110  19.010  11.460
 1378BOLB   GL133051  25.420  18.690  11.420
 1378BOLB   GL233052  25.430  18.430  11.220
 1378BOLB   C1A33053  25.880  18.460  11.430
 1378BOLB   C2A33054  26.220  18.510  11.200
 1378BOLB   C3A33055  26.650  18.450  11.040
 1378BOLB   C4A33056  27.040  18.310  11.090
 1378BOLB   C1B33057  25.770  18.190  11.020
 1378BOLB   C2B33058  26.320  18.080  10.910
 1378BOLB   C3B33059  26.520  18.140  10.580
 1378BOLB   C4B33060  26.790  18.320  10.320
 1378BOLB   NC233061  29.630  17.480  10.630
 1378BOLB   PO233062  29.220  17.600  10.890
 1378BOLB   GL333063  28.850  17.740  10.900
 1378BOLB   GL433064  28.910  18.070  10.690
 1378BOLB   C1C33065  28.520  17.750  11.040
 1378BOLB   C2C33066  28.040  17.650  11.000
 1378BOLB   C3C33067  27.750  17.900  11.180
 1378BOLB   C4C33068  27.430  18.170  11.250
 1378BOLB   C1D33069  28.610  18.270  10.960
 1378BOLB   C2D33070  28.540  18.690  11.220
 1378BOLB   C3D33071  28.340  19.060  11.250
 1378BOLB   C4D33072  28.510  19.460  11.270
 1379BOLB   NC133073  25.110  25.990  10.980
 1379BOLB   PO133074  25.080  26.410  10.930
 1379BOLB   GL133075  25.400  26.610  10.680
 1379BOLB   GL233076  25.420  26.930  10.720
 1379BOLB   C1A33077  25.700  26.390  10.310
 1379BOLB   C2A33078  25.950  26.470   9.900
 1379BOLB   C3A33079  26.320  26.610   9.630
 1379BOLB   C4A33080  26.610  26.510   9.360
 1379BOLB   C1B33081  25.810  26.900  10.360
 1379BOLB   C2B33082  26.050  27.030   9.960
 1379BOLB   C3B33083  26.230  27.380   9.940
 1379BOLB   C4B33084  26.500  27.730   9.910
 1379BOLB   NC233085  28.730  27.520   8.430
 1379BOLB   PO233086  28.470  27.290   8.140
 1379BOLB   GL333087  28.090  27.410   8.320
 1379BOLB   GL433088  28.030  27.450   8.730
 1379BOLB   C1C33089  27.750  27.130   8.510
 1379BOLB   C2C33090  27.360  27.030   8.550
 1379BOLB   C3C33091  27.030  26.750   8.600
 1379BOLB   C4C33092  26.830  26.540   8.920
 1379BOLB   C1D33093  27.700  27.380   9.060
 1379BOLB   C2D33094  27.400  27.100   9.080
 1379BOLB   C3D33095  27.070  26.930   9.300
 1379BOLB   C4D33096  26.900  26.790   9.680
 1380BOLB   NC133097  20.410  14.720  10.140
 1380BOLB   PO133098  20.300  14.330   9.990
 1380BOLB   GL133099  20.540  14.440   9.720
 1380BOLB   GL233100  20.430  14.380   9.390
 1380BOLB   C1A33101  20.870  14.150   9.590
 1380BOLB   C2A33102  21.170  14.000   9.290
 1380BOLB   C3A33103  21.420  13.800   8.940
 1380BOLB   C4A33104  21.500  13.550   8.500
 1380BOLB   C1B33105  20.630  13.920   9.250
 1380BOLB   C2B33106  20.840  13.570   9.370
 1380BOLB   C3B33107  20.830  13.190   9.590
 1380BOLB   C4B33108  20.550  12.860   9.860
 1380BOLB   NC233109  22.410  10.830   7.680
 1380BOLB   PO233110  22.440  11.150   7.930
 1380BOLB   GL333111  22.140  11.500   7.850
 1380BOLB   GL433112  22.220  11.770   7.630
 1380BOLB   C1C33113  21.930  11.860   8.000
 1380BOLB   C2C33114  21.810  12.260   8.110
 1380BOLB   C3C33115  21.760  12.690   8.300
 1380BOLB   C4C33116  21.610  13.110   8.390
 1380BOLB   C1D33117  21.850  12.040   7.590
 1380BOLB   C2D33118  21.530  12.320   7.670
 1380BOLB   C3D33119  21.150  12.610   7.690
 1380BOLB   C4D33120  20.770  12.530   7.780
 1381BOLB   NC133121  22.490  20.680   7.420
 1381BOLB   PO133122  22.530  21.010   7.100
 1381BOLB   GL133123  22.950  21.020   6.910
 1381BOLB   GL233124  22.990  21.170   6.480
 1381BOLB   C1A33125  23.410  21.060   6.800
 1381BOLB   C2A33126  23.830  20.840   6.740
 1381BOLB   C3A33127  24.040  20.440   6.470
 1381BOLB   C4A33128  24.340  20.090   6.370
 1381BOLB   C1B33129  23.220  20.920   6.340
 1381BOLB   C2B33130  23.200  20.430   6.170
 1381BOLB   C3B33131  23.430  20.340   5.800
 1381BOLB   C4B33132  23.440  20.330   5.330
 1381BOLB   NC233133  26.950  19.800   5.260
 1381BOLB   PO233134  26.510  19.830   5.220
 1381BOLB   GL333135  26.040  19.710   5.310
 1381BOLB   GL433136  26.050  19.320   5.370
 1381BOLB   C1C33137  25.630  19.710   5.340
 1381BOLB   C2C33138  25.280  19.720   5.650
 1381BOLB   C3C33139  25.010  19.870   6.000
 1381BOLB   C4C33140  24.720  19.840   6.250
 1381BOLB   C1D33141  25.770  19.390   5.750
 1381BOLB   C2D33142  25.480  19.460   6.050
 1381BOLB   C3D33143  25.140  19.560   6.300
 1381BOLB   C4D33144  25.130  20.010   6.510
 1382BOLB   NC133145  24.440  27.870  11.490
 1382BOLB   PO133146  24.390  27.730  12.010
 1382BOLB   GL133147  24.790  28.010  12.010
 1382BOLB   GL233148  25.060  27.970  11.930
 1382BOLB   C1A33149  24.770  28.450  11.860
 1382BOLB   C2A33150  24.670  28.820  11.910
 1382BOLB   C3A33151  25.040  29.210  12.020
 1382BOLB   C4A33152  25.260  29.550  11.890
 1382BOLB   C1B33153  25.310  28.320  11.770
 1382BOLB   C2B33154  25.280  28.850  11.680
 1382BOLB   C3B33155  25.600  29.140  11.750
 1382BOLB   C4B33156  25.810  29.530  11.900
 1382BOLB   NC233157  26.500  31.810  11.290
 1382BOLB   PO233158  26.380  31.370  11.160
 1382BOLB   GL333159  26.320  30.970  11.020
 1382BOLB   GL433160  26.430  30.720  10.900
 1382BOLB   C1C33161  25.930  30.760  10.910
 1382BOLB   C2C33162  25.720  30.440  10.960
 1382BOLB   C3C33163  25.580  30.210  11.340
 1382BOLB   C4C33164  25.300  29.830  11.550
 1382BOLB   C1D33165  26.240  30.270  10.900
 1382BOLB   C2D33166  25.970  29.970  11.050
 1382BOLB   C3D33167  25.780  29.750  11.410
 1382BOLB   C4D33168  25.850  30.030  11.790
 1383BOLB   NC133169  24.430  21.350   9.090
 1383BOLB   PO133170  24.720  21.730   8.980
 1383BOLB   GL133171  24.840  21.820   8.650
 1383BOLB   GL233172  24.590  21.850   8.340
 1383BOLB   C1A33173  25.110  21.620   8.310
 1383BOLB   C2A33174  25.190  21.280   8.130
 1383BOLB   C3A33175  25.150  20.840   7.870
 1383BOLB   C4A33176  25.460  20.460   7.770
 1383BOLB   C1B33177  24.780  21.920   8.010
 1383BOLB   C2B33178  25.140  21.680   7.780
 1383BOLB   C3B33179  25.190  21.490   7.380
 1383BOLB   C4B33180  25.190  21.300   7.030
 1383BOLB   NC233181  27.740  19.900   7.860
 1383BOLB   PO233182  27.660  19.570   7.600
 1383BOLB   GL333183  27.290  19.830   7.660
 1383BOLB   GL433184  27.260  19.910   7.980
 1383BOLB   C1C33185  26.890  19.950   7.680
 1383BOLB   C2C33186  26.610  20.170   7.740
 1383BOLB   C3C33187  26.220  20.010   7.920
 1383BOLB   C4C33188  25.720  20.210   7.980
 1383BOLB   C1D33189  27.240  20.320   7.790
 1383BOLB   C2D33190  27.060  20.530   7.530
 1383BOLB   C3D33191  26.770  20.670   7.450
 1383BOLB   C4D33192  26.420  20.570   7.460
 1384BOLB   NC133193  12.360  25.920   9.270
 1384BOLB   PO133194  12.670  26.020   9.610
 1384BOLB   GL133195  12.320  26.320   9.690
 1384BOLB   GL233196  12.020  26.440   9.640
 1384BOLB   C1A33197  12.300  26.830   9.500
 1384BOLB   C2A33198  12.150  27.130   9.080
 1384BOLB   C3A33199  11.790  27.430   9.070
 1384BOLB   C4A33200  11.500  27.760   9.010
 1384BOLB   C1B33201  11.800  26.830   9.580
 1384BOLB   C2B33202  11.500  26.990   9.270
 1384BOLB   C3B33203  11.070  27.280   9.150
 1384BOLB   C4B33204  10.570  27.100   8.930
 1384BOLB   NC233205  10.850  30.800   8.870
 1384BOLB   PO233206  10.890  30.400   8.680
 1384BOLB   GL333207  10.960  29.950   8.930
 1384BOLB   GL433208  10.990  29.680   8.590
 1384BOLB   C1C33209  11.320  29.620   9.040
 1384BOLB   C2C33210  11.420  29.130   9.030
 1384BOLB   C3C33211  11.330  28.630   8.990
 1384BOLB   C4C33212  11.410  28.230   9.120
 1384BOLB   C1D33213  11.120  29.240   8.600
 1384BOLB   C2D33214  11.420  28.890   8.570
 1384BOLB   C3D33215  11.830  28.730   8.790
 1384BOLB   C4D33216  11.770  28.800   9.260
 1385BOLB   NC133217  20.890  29.830  14.930
 1385BOLB   PO133218  21.220  29.660  14.730
 1385BOLB   GL133219  21.330  30.090  14.800
 1385BOLB   GL233220  21.090  30.390  14.800
 1385BOLB   C1A33221  21.620  30.410  14.860
 1385BOLB   C2A33222  21.580  30.800  15.080
 1385BOLB   C3A33223  21.350  31.220  15.180
 1385BOLB   C4A33224  21.360  31.630  15.160
 1385BOLB   C1B33225  21.040  30.900  14.760
 1385BOLB   C2B33226  21.200  31.360  14.770
 1385BOLB   C3B33227  21.480  31.760  14.610
 1385BOLB   C4B33228  21.670  31.910  14.200
 1385BOLB   NC233229  20.740  34.040  14.500
 1385BOLB   PO233230  21.000  33.830  14.720
 1385BOLB   GL333231  21.010  33.490  15.070
 1385BOLB   GL433232  20.770  33.430  15.220
 1385BOLB   C1C33233  21.020  33.080  15.000
 1385BOLB   C2C33234  21.030  32.690  14.780
 1385BOLB   C3C33235  21.230  32.340  14.940
 1385BOLB   C4C33236  21.450  31.990  15.020
 1385BOLB   C1D33237  20.780  33.010  15.400
 1385BOLB   C2D33238  20.690  32.670  15.290
 1385BOLB   C3D33239  20.710  32.360  14.990
 1385BOLB   C4D33240  20.470  31.990  14.830
 1386BOLB   NC133241  11.300  24.530   9.120
 1386BOLB   PO133242  11.540  24.920   9.120
 1386BOLB   GL133243  11.270  25.140   8.850
 1386BOLB   GL233244  10.940  25.130   8.920
 1386BOLB   C1A33245  11.100  25.560   8.680
 1386BOLB   C2A33246  10.880  25.960   8.470
 1386BOLB   C3A33247  10.830  26.310   8.190
 1386BOLB   C4A33248  10.750  26.570   7.730
 1386BOLB   C1B33249  10.790  25.140   8.520
 1386BOLB   C2B33250  10.740  25.360   8.220
 1386BOLB   C3B33251  10.880  25.710   7.970
 1386BOLB   C4B33252  10.650  25.930   7.810
 1386BOLB   NC233253   9.140  26.410   6.270
 1386BOLB   PO233254   9.030  26.670   6.660
 1386BOLB   GL333255   9.340  26.370   6.760
 1386BOLB   GL433256   9.150  26.140   6.770
 1386BOLB   C1C33257   9.680  26.380   6.940
 1386BOLB   C2C33258   9.990  26.150   6.920
 1386BOLB   C3C33259  10.330  26.180   7.180
 1386BOLB   C4C33260  10.560  26.570   7.350
 1386BOLB   C1D33261   9.470  25.890   6.970
 1386BOLB   C2D33262   9.510  25.420   7.030
 1386BOLB   C3D33263   9.760  25.260   7.310
 1386BOLB   C4D33264  10.080  24.880   7.270
 1387BOLB   NC133265  20.700  27.020   7.650
 1387BOLB   PO133266  20.460  27.000   7.310
 1387BOLB   GL133267  20.770  27.310   7.140
 1387BOLB   GL233268  20.890  27.450   7.350
 1387BOLB   C1A33269  21.040  27.420   6.830
 1387BOLB   C2A33270  21.270  27.470   6.470
 1387BOLB   C3A33271  21.420  27.560   6.030
 1387BOLB   C4A33272  21.620  27.570   5.580
 1387BOLB   C1B33273  21.180  27.800   7.490
 1387BOLB   C2B33274  21.580  28.040   7.450
 1387BOLB   C3B33275  21.540  28.250   7.060
 1387BOLB   C4B33276  21.550  28.610   6.790
 1387BOLB   NC233277  22.850  28.960   4.180
 1387BOLB   PO233278  22.860  28.530   4.110
 1387BOLB   GL333279  22.790  28.190   4.270
 1387BOLB   GL433280  23.080  28.190   4.530
 1387BOLB   C1C33281  22.590  28.200   4.660
 1387BOLB   C2C33282  22.450  28.070   5.060
 1387BOLB   C3C33283  22.160  27.910   5.320
 1387BOLB   C4C33284  21.950  27.770   5.570
 1387BOLB   C1D33285  23.110  28.250   4.990
 1387BOLB   C2D33286  22.930  28.120   5.180
 1387BOLB   C3D33287  23.020  27.890   5.500
 1387BOLB   C4D33288  23.270  27.710   5.750
 1388BOLB   NC133289  13.200  12.610   4.250
 1388BOLB   PO133290  13.530  12.650   3.930
 1388BOLB   GL133291  13.910  12.810   4.160
 1388BOLB   GL233292  14.190  12.670   4.140
 1388BOLB   C1A33293  14.180  12.930   4.580
 1388BOLB   C2A33294  14.200  13.050   5.020
 1388BOLB   C3A33295  14.000  13.210   5.330
 1388BOLB   C4A33296  13.740  13.220   5.790
 1388BOLB   C1B33297  14.410  12.440   4.390
 1388BOLB   C2B33298  14.560  12.530   4.760
 1388BOLB   C3B33299  14.640  12.890   5.070
 1388BOLB   C4B33300  14.960  13.000   5.430
 1388BOLB   NC233301  13.370  10.970   5.540
 1388BOLB   PO233302  12.980  11.070   5.800
 1388BOLB   GL333303  13.370  11.290   5.960
 1388BOLB   GL433304  13.600  11.400   5.730
 1388BOLB   C1C33305  13.500  11.630   6.260
 1388BOLB   C2C33306  13.560  12.140   6.340
 1388BOLB   C3C33307  13.710  12.590   6.150
 1388BOLB   C4C33308  13.730  12.950   6.020
 1388BOLB   C1D33309  13.780  11.880   5.760
 1388BOLB   C2D33310  13.630  12.290   5.730
 1388BOLB   C3D33311  13.230  12.160   5.470
 1388BOLB   C4D33312  13.370  11.720   5.480
 1389BOLB   NC133313  20.970  29.180  15.660
 1389BOLB   PO133314  20.740  29.350  15.930
 1389BOLB   GL133315  20.610  29.640  16.250
 1389BOLB   GL233316  20.560  29.500  16.550
 1389BOLB   C1A33317  20.630  30.080  16.260
 1389BOLB   C2A33318  20.730  30.430  16.440
 1389BOLB   C3A33319  20.590  30.820  16.770
 1389BOLB   C4A33320  20.310  31.290  16.510
 1389BOLB   C1B33321  20.870  29.780  16.650
 1389BOLB   C2B33322  21.050  30.150  16.760
 1389BOLB   C3B33323  21.040  30.410  17.080
 1389BOLB   C4B33324  21.040  30.870  17.150
 1389BOLB   NC233325  20.080  34.050  16.950
 1389BOLB   PO233326  20.240  33.770  16.580
 1389BOLB   GL333327  19.930  33.300  16.510
 1389BOLB   GL433328  19.560  33.220  16.370
 1389BOLB   C1C33329  20.130  33.010  16.280
 1389BOLB   C2C33330  20.220  32.670  16.410
 1389BOLB   C3C33331  20.060  32.280  16.620
 1389BOLB   C4C33332  20.140  31.740  16.620
 1389BOLB   C1D33333  19.590  33.060  16.110
 1389BOLB   C2D33334  19.660  32.830  15.760
 1389BOLB   C3D33335  19.360  32.640  15.520
 1389BOLB   C4D33336  18.960  32.540  15.570
 1390BOLB   NC133337  23.270  23.320   7.770
 1390BOLB   PO133338  23.540  23.220   7.520
 1390BOLB   GL133339  23.860  23.000   7.350
 1390BOLB   GL233340  23.690  22.880   7.120
 1390BOLB   C1A33341  24.270  23.100   7.060
 1390BOLB   C2A33342  24.600  23.110   6.680
 1390BOLB   C3A33343  25.010  23.060   6.640
 1390BOLB   C4A33344  25.340  22.800   6.640
 1390BOLB   C1B33345  23.980  22.710   6.850
 1390BOLB   C2B33346  24.400  22.570   6.660
 1390BOLB   C3B33347  24.470  22.390   6.250
 1390BOLB   C4B33348  24.790  22.490   5.990
 1390BOLB   NC233349  26.760  22.730   4.990
 1390BOLB   PO233350  27.040  22.350   5.030
 1390BOLB   GL333351  26.580  22.320   5.210
 1390BOLB   GL433352  26.410  22.360   4.980
 1390BOLB   C1C33353  26.330  22.080   5.540
 1390BOLB   C2C33354  26.100  22.020   5.910
 1390BOLB   C3C33355  25.800  22.150   6.210
 1390BOLB   C4C33356  25.470  22.450   6.420
 1390BOLB   C1D33357  26.090  22.330   5.190
 1390BOLB   C2D33358  25.800  22.370   5.510
 1390BOLB   C3D33359  25.620  22.070   5.720
 1390BOLB   C4D33360  25.360  21.740   5.660
 1391BOLB   NC133361  21.980  28.520   9.720
 1391BOLB   PO133362  21.810  28.790   9.430
 1391BOLB   GL133363  21.800  29.160   9.390
 1391BOLB   GL233364  21.500  29.210   9.230
 1391BOLB   C1A33365  22.050  29.470   9.440
 1391BOLB   C2A33366  22.190  29.800   9.230
 1391BOLB   C3A33367  22.160  30.190   9.040
 1391BOLB   C4A33368  22.210  30.510   8.930
 1391BOLB   C1B33369  21.640  29.320   8.810
 1391BOLB   C2B33370  22.100  29.470   8.910
 1391BOLB   C3B33371  22.390  29.750   8.770
 1391BOLB   C4B33372  22.540  29.770   8.360
 1391BOLB   NC233373  23.070  32.440   8.650
 1391BOLB   PO233374  23.120  32.450   8.210
 1391BOLB   GL333375  22.990  32.030   8.080
 1391BOLB   GL433376  23.350  31.780   8.020
 1391BOLB   C1C33377  22.890  31.540   8.060
 1391BOLB   C2C33378  22.630  31.160   8.110
 1391BOLB   C3C33379  22.300  30.990   8.380
 1391BOLB   C4C33380  22.210  30.660   8.560
 1391BOLB   C1D33381  23.430  31.500   8.390
 1391BOLB   C2D33382  23.070  31.520   8.690
 1391BOLB   C3D33383  22.820  31.610   8.980
 1391BOLB   C4D33384  22.640  31.700   9.370
 1392BOLB   NC133385  14.250  20.890   5.380
 1392BOLB   PO133386  14.400  21.380   5.380
 1392BOLB   GL133387  14.610  21.640   5.070
 1392BOLB   GL233388  14.630  22.000   5.100
 1392BOLB   C1A33389  14.230  21.810   4.800
 1392BOLB   C2A33390  14.160  21.540   4.360
 1392BOLB   C3A33391  14.320  21.620   3.980
 1392BOLB   C4A33392  14.440  21.930   3.810
 1392BOLB   C1B33393  14.470  22.280   4.690
 1392BOLB   C2B33394  14.010  22.320   4.570
 1392BOLB   C3B33395  13.830  22.510   4.130
 1392BOLB   C4B33396  13.530  22.480   3.690
 1392BOLB   NC233397  14.520  23.370   1.520
 1392BOLB   PO233398  14.320  22.980   1.630
 1392BOLB   GL333399  14.490  22.700   1.930
 1392BOLB   GL433400  14.700  22.490   1.880
 1392BOLB   C1C33401  14.330  22.560   2.380
 1392BOLB   C2C33402  14.220  22.450   2.730
 1392BOLB   C3C33403  14.290  22.480   3.170
 1392BOLB   C4C33404  14.550  22.230   3.450
 1392BOLB   C1D33405  15.060  22.680   2.100
 1392BOLB   C2D33406  15.440  22.760   2.410
 1392BOLB   C3D33407  15.760  22.910   2.640
 1392BOLB   C4D33408  15.870  23.250   2.850
 1393BOLB   NC133409   8.930  14.350  21.670
 1393BOLB   PO133410   9.030  13.960  21.440
 1393BOLB   GL133411   9.170  14.060  20.920
 1393BOLB   GL233412   9.110  13.930  20.620
 1393BOLB   C1A33413   9.550  14.200  20.660
 1393BOLB   C2A33414   9.910  14.130  20.670
 1393BOLB   C3A33415  10.260  14.310  20.580
 1393BOLB   C4A33416  10.280  14.850  20.410
 1393BOLB   C1B33417   9.120  14.380  20.520
 1393BOLB   C2B33418   9.140  14.730  20.440
 1393BOLB   C3B33419   9.090  15.170  20.630
 1393BOLB   C4B33420   9.060  15.510  20.880
 1393BOLB   NC233421   7.630  15.160  20.390
 1393BOLB   PO233422   7.880  15.260  20.120
 1393BOLB   GL333423   8.330  15.280  20.160
 1393BOLB   GL433424   8.270  15.610  20.250
 1393BOLB   C1C33425   8.690  15.300  19.920
 1393BOLB   C2C33426   9.110  15.080  19.960
 1393BOLB   C3C33427   9.550  14.960  20.140
 1393BOLB   C4C33428   9.930  15.090  20.350
 1393BOLB   C1D33429   8.710  15.790  20.040
 1393BOLB   C2D33430   9.120  15.970  19.880
 1393BOLB   C3D33431   9.610  16.130  19.900
 1393BOLB   C4D33432  10.040  16.170  19.930
 1394BOLB   NC133433  12.260  14.130  15.060
 1394BOLB   PO133434  12.760  13.910  15.040
 1394BOLB   GL133435  12.680  14.200  14.630
 1394BOLB   GL233436  12.610  13.890  14.400
 1394BOLB   C1A33437  12.260  14.320  14.510
 1394BOLB   C2A33438  11.890  14.410  14.400
 1394BOLB   C3A33439  11.740  14.470  14.050
 1394BOLB   C4A33440  11.610  14.340  13.720
 1394BOLB   C1B33441  12.430  14.110  14.100
 1394BOLB   C2B33442  12.630  14.290  13.730
 1394BOLB   C3B33443  12.430  14.270  13.320
 1394BOLB   C4B33444  12.520  14.590  13.060
 1394BOLB   NC233445  10.070  14.590  11.800
 1394BOLB   PO233446  10.000  14.510  12.160
 1394BOLB   GL333447  10.350  14.400  12.410
 1394BOLB   GL433448  10.510  14.580  12.730
 1394BOLB   C1C33449  10.680  14.130  12.420
 1394BOLB   C2C33450  11.020  13.990  12.730
 1394BOLB   C3C33451  11.320  13.980  12.940
 1394BOLB   C4C33452  11.480  14.170  13.320
 1394BOLB   C1D33453  10.820  14.440  12.830
 1394BOLB   C2D33454  10.900  14.340  13.250
 1394BOLB   C3D33455  11.060  14.350  13.580
 1394BOLB   C4D33456  10.960  14.270  14.020
 1395BOLB   NC133457  20.610  20.260   5.820
 1395BOLB   PO133458  20.850  20.020   6.150
 1395BOLB   GL133459  21.180  19.940   5.780
 1395BOLB   GL233460  21.230  20.340   5.730
 1395BOLB   C1A33461  21.390  19.930   5.340
 1395BOLB   C2A33462  21.680  19.990   4.970
 1395BOLB   C3A33463  21.760  19.880   4.500
 1395BOLB   C4A33464  21.600  19.610   4.180
 1395BOLB   C1B33465  21.440  20.410   5.430
 1395BOLB   C2B33466  21.760  20.440   5.270
 1395BOLB   C3B33467  22.050  20.400   4.970
 1395BOLB   C4B33468  22.410  20.420   4.770
 1395BOLB   NC233469  22.250  19.500   2.390
 1395BOLB   PO233470  22.680  19.570   2.180
 1395BOLB   GL333471  22.700  19.430   2.670
 1395BOLB   GL433472  22.600  19.720   2.810
 1395BOLB   C1C33473  22.420  19.310   3.030
 1395BOLB   C2C33474  22.220  19.350   3.450
 1395BOLB   C3C33475  21.900  19.080   3.590
 1395BOLB   C4C33476  21.640  19.260   3.930
 1395BOLB   C1D33477  22.650  19.750   3.220
 1395BOLB   C2D33478  22.550  19.800   3.590
 1395BOLB   C3D33479  22.650  19.540   3.890
 1395BOLB   C4D33480  22.440  19.570   4.320
 1396BOLB   NC133481  18.810  27.320   8.250
 1396BOLB   PO133482  18.640  27.680   8.020
 1396BOLB   GL133483  18.390  27.940   7.720
 1396BOLB   GL233484  18.170  28.190   7.740
 1396BOLB   C1A33485  18.770  28.150   7.460
 1396BOLB   C2A33486  18.670  28.480   7.310
 1396BOLB   C3A33487  18.550  28.930   7.120
 1396BOLB   C4A33488  18.260  29.160   6.900
 1396BOLB   C1B33489  18.130  28.420   7.390
 1396BOLB   C2B33490  18.110  28.700   7.040
 1396BOLB   C3B33491  17.870  28.950   6.710
 1396BOLB   C4B33492  17.400  28.760   6.450
 1396BOLB   NC233493  18.450  30.850   5.390
 1396BOLB   PO233494  18.400  31.080   5.690
 1396BOLB   GL333495  18.530  30.820   6.080
 1396BOLB   GL433496  18.700  31.020   6.270
 1396BOLB   C1C33497  18.440  30.410   6.260
 1396BOLB   C2C33498  18.220  30.180   6.150
 1396BOLB   C3C33499  18.060  29.770   6.330
 1396BOLB   C4C33500  18.080  29.520   6.660
 1396BOLB   C1D33501  18.970  30.610   6.450
 1396BOLB   C2D33502  19.040  30.100   6.330
 1396BOLB   C3D33503  19.150  29.730   6.170
 1396BOLB   C4D33504  19.230  29.490   5.770
 1397BOLB   NC133505  20.160  29.570  10.550
 1397BOLB   PO133506  20.400  29.900  10.870
 1397BOLB   GL133507  20.530  30.310  11.070
 1397BOLB   GL233508  20.410  30.320  11.320
 1397BOLB   C1A33509  20.660  30.750  10.970
 1397BOLB   C2A33510  20.600  31.160  10.820
 1397BOLB   C3A33511  20.260  31.390  10.900
 1397BOLB   C4A33512  20.170  31.810  10.990
 1397BOLB   C1B33513  20.290  30.740  11.300
 1397BOLB   C2B33514  20.120  31.110  11.300
 1397BOLB   C3B33515  20.070  31.500  11.380
 1397BOLB   C4B33516  19.820  31.720  11.410
 1397BOLB   NC233517  20.240  34.240  11.070
 1397BOLB   PO233518  20.400  34.220  11.520
 1397BOLB   GL333519  20.470  33.770  11.810
 1397BOLB   GL433520  20.540  33.870  12.060
 1397BOLB   C1C33521  20.110  33.400  11.760
 1397BOLB   C2C33522  20.080  33.020  11.640
 1397BOLB   C3C33523  20.330  32.660  11.320
 1397BOLB   C4C33524  20.130  32.280  11.190
 1397BOLB   C1D33525  20.570  33.360  12.230
 1397BOLB   C2D33526  20.340  33.040  12.040
 1397BOLB   C3D33527  20.210  32.610  12.150
 1397BOLB   C4D33528  19.860  32.240  12.220
 1398BOLB   NC133529  18.740  29.670  14.140
 1398BOLB   PO133530  19.080  29.690  14.470
 1398BOLB   GL133531  18.940  30.110  14.530
 1398BOLB   GL233532  19.140  30.310  14.620
 1398BOLB   C1A33533  18.740  30.540  14.390
 1398BOLB   C2A33534  18.680  30.950  14.320
 1398BOLB   C3A33535  18.640  31.410  14.510
 1398BOLB   C4A33536  18.820  31.850  14.610
 1398BOLB   C1B33537  19.090  30.820  14.610
 1398BOLB   C2B33538  19.120  31.190  14.340
 1398BOLB   C3B33539  19.000  31.460  14.090
 1398BOLB   C4B33540  18.940  31.450  13.630
 1398BOLB   NC233541  19.890  34.400  15.070
 1398BOLB   PO233542  19.650  34.160  15.390
 1398BOLB   GL333543  19.580  33.680  15.140
 1398BOLB   GL433544  19.360  33.540  15.230
 1398BOLB   C1C33545  19.520  33.260  14.860
 1398BOLB   C2C33546  19.330  32.930  14.700
 1398BOLB   C3C33547  19.160  32.590  14.630
 1398BOLB   C4C33548  19.130  32.180  14.680
 1398BOLB   C1D33549  19.220  33.120  15.300
 1398BOLB   C2D33550  19.060  32.750  15.080
 1398BOLB   C3D33551  18.780  32.420  14.940
 1398BOLB   C4D33552  18.580  32.250  14.610
 1399BOLB   NC133553  16.180  13.030  16.810
 1399BOLB   PO133554  16.530  13.260  17.030
 1399BOLB   GL133555  16.470  13.020  17.390
 1399BOLB   GL233556  16.390  12.740  17.380
 1399BOLB   C1A33557  16.790  12.730  17.650
 1399BOLB   C2A33558  16.960  12.390  17.910
 1399BOLB   C3A33559  17.370  12.170  18.040
 1399BOLB   C4A33560  17.750  11.960  18.150
 1399BOLB   C1B33561  16.370  12.440  17.760
 1399BOLB   C2B33562  16.220  12.210  18.100
 1399BOLB   C3B33563  16.550  12.040  18.330
 1399BOLB   C4B33564  16.910  11.890  18.710
 1399BOLB   NC233565  18.860  10.260  19.090
 1399BOLB   PO233566  18.570  10.300  19.230
 1399BOLB   GL333567  18.610  10.740  18.970
 1399BOLB   GL433568  18.820  10.760  19.050
 1399BOLB   C1C33569  18.310  10.990  19.000
 1399BOLB   C2C33570  18.100  11.280  18.740
 1399BOLB   C3C33571  18.300  11.560  18.620
 1399BOLB   C4C33572  18.100  11.850  18.220
 1399BOLB   C1D33573  19.040  11.060  18.930
 1399BOLB   C2D33574  18.720  11.010  18.600
 1399BOLB   C3D33575  18.370  10.880  18.500
 1399BOLB   C4D33576  17.980  10.870  18.490
 1400BOLB   NC133577  16.700  27.270   8.170
 1400BOLB   PO133578  17.060  27.460   8.290
 1400BOLB   GL133579  16.910  27.750   7.970
 1400BOLB   GL233580  16.840  28.100   8.020
 1400BOLB   C1A33581  16.760  28.020   7.540
 1400BOLB   C2A33582  16.460  28.340   7.410
 1400BOLB   C3A33583  16.240  28.680   7.160
 1400BOLB   C4A33584  15.750  28.690   7.020
 1400BOLB   C1B33585  16.760  28.450   7.800
 1400BOLB   C2B33586  16.780  28.750   7.470
 1400BOLB   C3B33587  16.940  29.200   7.590
 1400BOLB   C4B33588  16.830  29.650   7.580
 1400BOLB   NC233589  14.270  29.860   5.840
 1400BOLB   PO233590  14.130  29.810   5.510
 1400BOLB   GL333591  14.380  29.330   5.700
 1400BOLB   GL433592  14.640  29.540   5.820
 1400BOLB   C1C33593  14.480  29.030   5.910
 1400BOLB   C2C33594  14.710  28.870   6.240
 1400BOLB   C3C33595  15.070  28.740   6.530
 1400BOLB   C4C33596  15.260  28.800   6.840
 1400BOLB   C1D33597  15.020  29.270   5.990
 1400BOLB   C2D33598  15.370  29.110   6.280
 1400BOLB   C3D33599  15.590  28.780   6.480
 1400BOLB   C4D33600  15.610  28.360   6.700
 1401BOLB   NC133601  14.590  22.000   6.010
 1401BOLB   PO133602  14.550  22.350   5.880
 1401BOLB   GL133603  14.490  22.660   5.450
 1401BOLB   GL233604  14.330  22.280   5.320
 1401BOLB   C1A33605  14.410  22.710   4.950
 1401BOLB   C2A33606  14.280  22.740   4.520
 1401BOLB   C3A33607  14.370  22.510   4.160
 1401BOLB   C4A33608  14.280  22.420   3.870
 1401BOLB   C1B33609  14.030  22.440   5.090
 1401BOLB   C2B33610  13.840  22.770   4.770
 1401BOLB   C3B33611  13.770  22.960   4.410
 1401BOLB   C4B33612  13.680  22.900   3.880
 1401BOLB   NC233613  12.950  22.370   1.330
 1401BOLB   PO233614  13.160  22.140   1.750
 1401BOLB   GL333615  13.540  22.370   2.090
 1401BOLB   GL433616  13.450  22.570   2.350
 1401BOLB   C1C33617  13.790  22.160   2.350
 1401BOLB   C2C33618  13.930  22.030   2.800
 1401BOLB   C3C33619  14.080  22.030   3.200
 1401BOLB   C4C33620  14.020  22.240   3.620
 1401BOLB   C1D33621  13.730  22.480   2.720
 1401BOLB   C2D33622  13.750  22.430   3.210
 1401BOLB   C3D33623  14.030  22.680   3.560
 1401BOLB   C4D33624  14.110  22.920   4.000
 1402BOLB   NC133625  19.800  13.440  11.940
 1402BOLB   PO133626  20.090  13.400  12.290
 1402BOLB   GL133627  20.310  13.040  12.440
 1402BOLB   GL233628  20.070  12.900  12.610
 1402BOLB   C1A33629  20.670  12.690  12.450
 1402BOLB   C2A33630  21.060  12.640  12.500
 1402BOLB   C3A33631  21.360  12.460  12.200
 1402BOLB   C4A33632  21.730  12.410  11.890
 1402BOLB   C1B33633  20.280  12.510  12.700
 1402BOLB   C2B33634  20.310  12.400  13.060
 1402BOLB   C3B33635  20.490  12.020  13.290
 1402BOLB   C4B33636  20.770  11.930  13.670
 1402BOLB   NC233637  22.600   9.800  11.960
 1402BOLB   PO233638  22.930   9.970  11.850
 1402BOLB   GL333639  22.760  10.320  12.090
 1402BOLB   GL433640  22.490  10.340  12.140
 1402BOLB   C1C33641  22.520  10.760  11.860
 1402BOLB   C2C33642  22.340  11.160  11.890
 1402BOLB   C3C33643  22.140  11.560  12.030
 1402BOLB   C4C33644  21.970  12.020  11.830
 1402BOLB   C1D33645  22.300  10.610  12.330
 1402BOLB   C2D33646  22.320  11.010  12.460
 1402BOLB   C3D33647  22.190  11.410  12.510
 1402BOLB   C4D33648  22.010  11.550  12.920
 1403BOLB   NC133649  16.990  25.990   6.570
 1403BOLB   PO133650  17.470  26.080   6.460
 1403BOLB   GL133651  17.630  26.150   6.090
 1403BOLB   GL233652  17.830  26.330   6.150
 1403BOLB   C1A33653  17.810  26.130   5.740
 1403BOLB   C2A33654  17.880  26.030   5.360
 1403BOLB   C3A33655  17.810  26.130   4.940
 1403BOLB   C4A33656  17.630  26.310   4.540
 1403BOLB   C1B33657  17.900  26.730   6.030
 1403BOLB   C2B33658  17.920  27.090   6.260
 1403BOLB   C3B33659  17.870  27.470   6.080
 1403BOLB   C4B33660  18.200  27.710   5.880
 1403BOLB   NC233661  17.870  27.070   2.540
 1403BOLB   PO233662  17.430  27.200   2.400
 1403BOLB   GL333663  17.370  26.980   2.820
 1403BOLB   GL433664  17.250  26.670   2.930
 1403BOLB   C1C33665  17.260  27.090   3.210
 1403BOLB   C2C33666  17.180  26.930   3.650
 1403BOLB   C3C33667  17.450  26.870   4.100
 1403BOLB   C4C33668  17.730  26.690   4.310
 1403BOLB   C1D33669  17.580  26.560   3.280
 1403BOLB   C2D33670  17.620  26.550   3.760
 1403BOLB   C3D33671  17.790  26.220   4.060
 1403BOLB   C4D33672  18.070  26.150   4.430
 1404BOLB   NC133673  14.380  26.580   9.080
 1404BOLB   PO133674  14.330  26.370   8.650
 1404BOLB   GL133675  14.270  26.690   8.320
 1404BOLB   GL233676  14.020  26.710   8.060
 1404BOLB   C1A33677  14.330  27.070   8.090
 1404BOLB   C2A33678  13.960  27.330   7.770
 1404BOLB   C3A33679  13.750  27.580   7.510
 1404BOLB   C4A33680  13.400  27.890   7.400
 1404BOLB   C1B33681  13.680  26.890   7.770
 1404BOLB   C2B33682  13.560  27.090   7.480
 1404BOLB   C3B33683  13.490  27.170   7.140
 1404BOLB   C4B33684  13.490  27.530   6.960
 1404BOLB   NC233685  13.660  30.090   5.430
 1404BOLB   PO233686  13.730  29.880   5.850
 1404BOLB   GL333687  13.830  29.600   6.220
 1404BOLB   GL433688  13.930  29.460   5.930
 1404BOLB   C1C33689  13.910  29.390   6.610
 1404BOLB   C2C33690  13.690  29.000   6.710
 1404BOLB   C3C33691  13.610  28.560   6.920
 1404BOLB   C4C33692  13.470  28.110   7.020
 1404BOLB   C1D33693  13.960  29.010   5.930
 1404BOLB   C2D33694  14.100  28.670   6.020
 1404BOLB   C3D33695  14.440  28.440   6.120
 1404BOLB   C4D33696  14.680  28.430   6.520
 1405BOLB   NC133697  13.320  13.050  11.830
 1405BOLB   PO133698  13.570  12.770  11.640
 1405BOLB   GL133699  13.230  12.620  11.350
 1405BOLB   GL233700  13.040  12.700  11.530
 1405BOLB   C1A33701  12.920  12.610  11.070
 1405BOLB   C2A33702  12.660  12.590  10.810
 1405BOLB   C3A33703  12.330  12.810  10.470
 1405BOLB   C4A33704  11.980  13.160  10.450
 1405BOLB   C1B33705  12.760  12.970  11.530
 1405BOLB   C2B33706  12.400  13.160  11.610
 1405BOLB   C3B33707  12.110  13.420  11.380
 1405BOLB   C4B33708  11.950  13.720  11.040
 1405BOLB   NC233709  10.790  11.990   9.230
 1405BOLB   PO233710  10.650  12.110   9.600
 1405BOLB   GL333711  11.010  12.320   9.510
 1405BOLB   GL433712  11.280  12.140   9.520
 1405BOLB   C1C33713  11.340  12.520   9.270
 1405BOLB   C2C33714  11.610  12.890   9.340
 1405BOLB   C3C33715  11.600  13.210   9.650
 1405BOLB   C4C33716  11.770  13.370  10.060
 1405BOLB   C1D33717  11.750  12.180   9.490
 1405BOLB   C2D33718  11.990  12.570   9.540
 1405BOLB   C3D33719  12.070  13.080   9.420
 1405BOLB   C4D33720  12.520  13.200   9.300
 1406BOLB   NC133721  15.630  26.340   8.270
 1406BOLB   PO133722  15.740  26.320   7.820
 1406BOLB   GL133723  15.530  26.430   7.520
 1406BOLB   GL233724  15.590  26.740   7.480
 1406BOLB   C1A33725  15.290  26.510   7.090
 1406BOLB   C2A33726  15.370  26.700   6.680
 1406BOLB   C3A33727  15.500  26.870   6.350
 1406BOLB   C4A33728  15.560  27.250   6.110
 1406BOLB   C1B33729  15.210  26.980   7.300
 1406BOLB   C2B33730  14.950  27.070   6.940
 1406BOLB   C3B33731  14.780  26.790   6.610
 1406BOLB   C4B33732  14.580  26.750   6.320
 1406BOLB   NC233733  14.520  29.010   4.680
 1406BOLB   PO233734  14.850  28.780   4.400
 1406BOLB   GL333735  15.050  28.740   4.860
 1406BOLB   GL433736  15.320  28.620   4.670
 1406BOLB   C1C33737  14.990  28.400   5.330
 1406BOLB   C2C33738  14.820  27.990   5.400
 1406BOLB   C3C33739  14.820  27.620   5.700
 1406BOLB   C4C33740  15.260  27.450   5.870
 1406BOLB   C1D33741  15.470  28.490   5.010
 1406BOLB   C2D33742  15.500  28.630   5.400
 1406BOLB   C3D33743  15.330  28.380   5.690
 1406BOLB   C4D33744  15.230  27.920   5.780
 1407BOLB   NC133745  25.280  21.390  11.410
 1407BOLB   PO133746  25.700  21.400  11.630
 1407BOLB   GL133747  26.080  21.310  11.540
 1407BOLB   GL233748  26.040  21.560  11.340
 1407BOLB   C1A33749  26.500  21.510  11.370
 1407BOLB   C2A33750  26.850  21.470  11.210
 1407BOLB   C3A33751  27.270  21.260  11.330
 1407BOLB   C4A33752  27.760  21.240  11.240
 1407BOLB   C1B33753  26.140  21.190  11.060
 1407BOLB   C2B33754  26.370  21.030  10.670
 1407BOLB   C3B33755  26.720  21.140  10.560
 1407BOLB   C4B33756  27.050  20.970  10.440
 1407BOLB   NC233757  30.170  22.190  11.160
 1407BOLB   PO233758  29.940  21.850  11.180
 1407BOLB   GL333759  29.690  21.580  10.890
 1407BOLB   GL433760  29.610  21.780  10.550
 1407BOLB   C1C33761  29.330  21.350  11.010
 1407BOLB   C2C33762  28.920  21.280  10.910
 1407BOLB   C3C33763  28.560  21.410  10.970
 1407BOLB   C4C33764  28.070  21.350  10.970
 1407BOLB   C1D33765  29.210  21.670  10.620
 1407BOLB   C2D33766  28.840  21.860  10.770
 1407BOLB   C3D33767  28.650  22.220  10.840
 1407BOLB   C4D33768  28.260  22.330  10.730
 1408BOLB   NC133769  17.020  18.610   4.490
 1408BOLB   PO133770  16.680  18.830   4.360
 1408BOLB   GL133771  16.550  19.010   4.100
 1408BOLB   GL233772  16.440  18.920   3.880
 1408BOLB   C1A33773  16.820  19.330   3.800
 1408BOLB   C2A33774  16.870  19.540   3.380
 1408BOLB   C3A33775  16.940  19.550   3.000
 1408BOLB   C4A33776  17.110  19.680   2.680
 1408BOLB   C1B33777  16.640  18.820   3.570
 1408BOLB   C2B33778  16.480  18.590   3.280
 1408BOLB   C3B33779  16.140  18.520   2.930
 1408BOLB   C4B33780  15.710  18.300   2.920
 1408BOLB   NC233781  17.550  20.480   0.180
 1408BOLB   PO233782  17.160  20.200   0.490
 1408BOLB   GL333783  17.140  20.130   0.920
 1408BOLB   GL433784  17.400  20.150   1.070
 1408BOLB   C1C33785  16.910  20.130   1.290
 1408BOLB   C2C33786  16.900  20.050   1.730
 1408BOLB   C3C33787  16.870  20.160   2.200
 1408BOLB   C4C33788  17.130  20.020   2.440
 1408BOLB   C1D33789  17.770  20.190   1.260
 1408BOLB   C2D33790  18.020  20.230   1.590
 1408BOLB   C3D33791  18.300  19.980   1.810
 1408BOLB   C4D33792  18.420  19.640   2.040
 1409BOLB   NC133793  15.510  12.180  15.130
 1409BOLB   PO133794  15.180  11.940  15.170
 1409BOLB   GL133795  15.230  11.540  15.220
 1409BOLB   GL233796  15.300  11.300  14.840
 1409BOLB   C1A33797  15.060  11.150  15.410
 1409BOLB   C2A33798  14.820  10.860  15.750
 1409BOLB   C3A33799  14.370  10.720  15.860
 1409BOLB   C4A33800  13.900  10.640  15.970
 1409BOLB   C1B33801  15.420  10.940  14.760
 1409BOLB   C2B33802  15.250  10.790  15.040
 1409BOLB   C3B33803  14.860  10.590  15.230
 1409BOLB   C4B33804  14.730  10.340  15.610
 1409BOLB   NC233805  14.020   8.450  16.290
 1409BOLB   PO233806  14.240   8.550  16.650
 1409BOLB   GL333807  14.040   8.950  16.760
 1409BOLB   GL433808  13.670   8.970  16.930
 1409BOLB   C1C33809  13.850   9.340  16.710
 1409BOLB   C2C33810  13.700   9.620  16.480
 1409BOLB   C3C33811  13.620   9.950  16.230
 1409BOLB   C4C33812  13.520  10.330  16.010
 1409BOLB   C1D33813  13.330   9.170  16.590
 1409BOLB   C2D33814  13.020   9.280  16.300
 1409BOLB   C3D33815  13.100   9.270  15.860
 1409BOLB   C4D33816  13.420   9.040  15.640
 1410BOLB   NC133817  13.490  27.890  14.670
 1410BOLB   PO133818  13.930  28.000  14.870
 1410BOLB   GL133819  13.630  28.340  14.800
 1410BOLB   GL233820  13.760  28.660  14.760
 1410BOLB   C1A33821  13.200  28.490  14.720
 1410BOLB   C2A33822  12.980  28.830  14.660
 1410BOLB   C3A33823  12.840  29.210  14.570
 1410BOLB   C4A33824  12.560  29.390  14.210
 1410BOLB   C1B33825  13.900  28.660  14.410
 1410BOLB   C2B33826  13.840  29.120  14.170
 1410BOLB   C3B33827  13.700  29.500  14.280
 1410BOLB   C4B33828  13.690  29.970  14.340
 1410BOLB   NC233829  11.160  31.190  14.240
 1410BOLB   PO233830  11.270  31.190  13.870
 1410BOLB   GL333831  11.490  30.830  14.030
 1410BOLB   GL433832  11.290  30.560  13.890
 1410BOLB   C1C33833  11.820  30.650  13.840
 1410BOLB   C2C33834  12.030  30.110  13.660
 1410BOLB   C3C33835  12.210  29.820  13.750
 1410BOLB   C4C33836  12.260  29.700  14.090
 1410BOLB   C1D33837  11.640  30.250  14.010
 1410BOLB   C2D33838  12.080  30.220  14.130
 1410BOLB   C3D33839  12.480  30.120  14.100
 1410BOLB   C4D33840  12.740  29.840  14.150
 1411BOLB   NC133841  22.600  23.070   7.230
 1411BOLB   PO133842  22.830  23.250   6.940
 1411BOLB   GL133843  23.240  23.240   6.790
 1411BOLB   GL233844  23.450  23.320   6.840
 1411BOLB   C1A33845  23.440  23.330   6.350
 1411BOLB   C2A33846  23.700  23.120   6.090
 1411BOLB   C3A33847  24.010  23.010   5.800
 1411BOLB   C4A33848  24.290  23.060   5.510
 1411BOLB   C1B33849  23.810  23.140   6.630
 1411BOLB   C2B33850  24.170  23.230   6.420
 1411BOLB   C3B33851  24.280  23.670   6.260
 1411BOLB   C4B33852  24.530  24.070   6.260
 1411BOLB   NC233853  26.040  23.370   3.680
 1411BOLB   PO233854  25.950  23.530   4.170
 1411BOLB   GL333855  25.560  23.400   4.390
 1411BOLB   GL433856  25.360  23.310   4.220
 1411BOLB   C1C33857  25.540  23.240   4.750
 1411BOLB   C2C33858  25.360  23.220   5.110
 1411BOLB   C3C33859  25.020  23.140   5.360
 1411BOLB   C4C33860  24.610  23.060   5.270
 1411BOLB   C1D33861  25.080  23.240   4.450
 1411BOLB   C2D33862  25.080  22.960   4.780
 1411BOLB   C3D33863  24.940  22.660   5.070
 1411BOLB   C4D33864  24.520  22.620   4.950
 1412BOLB   NC133865  24.420  18.040  11.830
 1412BOLB   PO133866  24.820  18.180  11.780
 1412BOLB   GL133867  25.140  17.880  11.920
 1412BOLB   GL233868  25.310  17.930  12.180
 1412BOLB   C1A33869  25.510  17.660  11.860
 1412BOLB   C2A33870  26.020  17.720  12.100
 1412BOLB   C3A33871  26.360  17.550  12.320
 1412BOLB   C4A33872  26.780  17.600  12.360
 1412BOLB   C1B33873  25.700  18.070  12.400
 1412BOLB   C2B33874  26.090  17.960  12.520
 1412BOLB   C3B33875  26.390  17.890  12.730
 1412BOLB   C4B33876  26.770  18.070  12.730
 1412BOLB   NC233877  29.060  17.140  12.100
 1412BOLB   PO233878  29.150  17.520  11.800
 1412BOLB   GL333879  28.750  17.770  11.750
 1412BOLB   GL433880  28.630  17.760  11.520
 1412BOLB   C1C33881  28.330  17.820  11.940
 1412BOLB   C2C33882  28.000  17.940  12.160
 1412BOLB   C3C33883  27.570  18.060  12.300
 1412BOLB   C4C33884  27.190  17.860  12.400
 1412BOLB   C1D33885  28.880  18.130  11.420
 1412BOLB   C2D33886  28.850  18.520  11.610
 1412BOLB   C3D33887  28.370  18.780  11.710
 1412BOLB   C4D33888  27.950  18.870  11.780
 1413BOLB   NC133889  12.720  24.500   7.930
 1413BOLB   PO133890  12.650  24.870   8.200
 1413BOLB   GL133891  12.620  25.140   7.910
 1413BOLB   GL233892  12.310  25.340   7.890
 1413BOLB   C1A33893  12.700  25.360   7.580
 1413BOLB   C2A33894  12.500  25.310   7.180
 1413BOLB   C3A33895  12.440  25.440   6.820
 1413BOLB   C4A33896  12.280  25.450   6.500
 1413BOLB   C1B33897  12.260  25.770   7.740
 1413BOLB   C2B33898  12.170  26.050   7.350
 1413BOLB   C3B33899  12.460  26.340   7.090
 1413BOLB   C4B33900  12.970  26.420   6.990
 1413BOLB   NC233901  10.420  26.150   5.080
 1413BOLB   PO233902  10.870  26.250   4.870
 1413BOLB   GL333903  10.970  26.180   5.230
 1413BOLB   GL433904  10.780  25.920   5.350
 1413BOLB   C1C33905  11.390  26.080   5.400
 1413BOLB   C2C33906  11.820  26.040   5.520
 1413BOLB   C3C33907  12.070  25.660   5.760
 1413BOLB   C4C33908  12.170  25.500   6.150
 1413BOLB   C1D33909  11.200  25.600   5.290
 1413BOLB   C2D33910  11.430  25.150   5.350
 1413BOLB   C3D33911  11.620  24.790   5.530
 1413BOLB   C4D33912  11.650  24.600   5.840
 1414BOLB   NC133913  10.810  22.630   8.210
 1414BOLB   PO133914  10.880  22.160   8.140
 1414BOLB   GL133915  10.540  22.410   7.850
 1414BOLB   GL233916  10.170  22.380   7.970
 1414BOLB   C1A33917  10.440  22.490   7.440
 1414BOLB   C2A33918  10.430  22.860   7.160
 1414BOLB   C3A33919  10.160  22.920   6.910
 1414BOLB   C4A33920   9.740  22.680   6.750
 1414BOLB   C1B33921   9.920  22.490   7.680
 1414BOLB   C2B33922   9.890  22.730   7.330
 1414BOLB   C3B33923   9.700  23.070   7.080
 1414BOLB   C4B33924  10.050  23.410   6.880
 1414BOLB   NC233925   7.250  22.700   6.020
 1414BOLB   PO233926   7.730  22.760   6.060
 1414BOLB   GL333927   8.090  22.460   5.900
 1414BOLB   GL433928   8.000  22.190   5.670
 1414BOLB   C1C33929   8.500  22.270   5.760
 1414BOLB   C2C33930   8.930  22.230   5.930
 1414BOLB   C3C33931   9.100  22.180   6.290
 1414BOLB   C4C33932   9.280  22.460   6.680
 1414BOLB   C1D33933   8.120  21.970   5.980
 1414BOLB   C2D33934   8.580  21.880   6.150
 1414BOLB   C3D33935   8.930  21.760   6.410
 1414BOLB   C4D33936   9.200  21.480   6.500
 1415BOLB   NC133937  19.790  28.770   8.870
 1415BOLB   PO133938  20.250  28.820   8.960
 1415BOLB   GL133939  20.120  29.200   8.830
 1415BOLB   GL233940  19.840  29.240   8.610
 1415BOLB   C1A33941  20.230  29.540   8.620
 1415BOLB   C2A33942  20.010  29.990   8.590
 1415BOLB   C3A33943  20.040  30.290   8.930
 1415BOLB   C4A33944  20.430  30.560   8.820
 1415BOLB   C1B33945  19.630  29.590   8.450
 1415BOLB   C2B33946  19.660  30.090   8.290
 1415BOLB   C3B33947  19.740  30.480   8.160
 1415BOLB   C4B33948  19.950  30.830   8.100
 1415BOLB   NC233949  20.760  33.350   8.080
 1415BOLB   PO233950  20.930  32.990   7.910
 1415BOLB   GL333951  20.980  32.480   8.000
 1415BOLB   GL433952  20.950  32.300   8.280
 1415BOLB   C1C33953  20.820  31.970   7.880
 1415BOLB   C2C33954  20.730  31.520   7.970
 1415BOLB   C3C33955  20.830  31.090   8.220
 1415BOLB   C4C33956  20.770  30.720   8.540
 1415BOLB   C1D33957  20.900  31.870   8.390
 1415BOLB   C2D33958  20.760  31.620   8.620
 1415BOLB   C3D33959  20.320  31.470   8.720
 1415BOLB   C4D33960  20.120  31.200   9.020
 1416BOLB   NC133961  11.360  11.540   8.570
 1416BOLB   PO133962  11.230  11.220   8.970
 1416BOLB   GL133963  11.560  11.510   9.100
 1416BOLB   GL233964  11.630  11.870   9.100
 1416BOLB   C1A33965  11.740  11.520   9.530
 1416BOLB   C2A33966  12.160  11.480   9.720
 1416BOLB   C3A33967  12.490  11.680   9.990
 1416BOLB   C4A33968  12.940  11.840   9.920
 1416BOLB   C1B33969  12.080  11.800   9.330
 1416BOLB   C2B33970  12.570  11.800   9.410
 1416BOLB   C3B33971  13.010  11.640   9.180
 1416BOLB   C4B33972  13.440  11.580   8.920
 1416BOLB   NC233973  12.040  11.400   8.020
 1416BOLB   PO233974  11.690  11.690   8.120
 1416BOLB   GL333975  11.870  11.620   8.470
 1416BOLB   GL433976  11.830  11.320   8.610
 1416BOLB   C1C33977  11.930  12.010   8.710
 1416BOLB   C2C33978  12.230  12.220   9.110
 1416BOLB   C3C33979  12.710  12.280   9.350
 1416BOLB   C4C33980  13.060  12.100   9.580
 1416BOLB   C1D33981  12.070  11.410   8.940
 1416BOLB   C2D33982  12.570  11.390   8.980
 1416BOLB   C3D33983  12.650  11.070   8.670
 1416BOLB   C4D33984  13.030  11.050   8.410
 1417BOLB   NC133985  18.980  21.260   5.230
 1417BOLB   PO133986  19.290  20.980   5.010
 1417BOLB   GL133987  19.510  20.930   4.700
 1417BOLB   GL233988  19.180  20.780   4.590
 1417BOLB   C1A33989  19.500  20.970   4.240
 1417BOLB   C2A33990  19.180  20.750   3.850
 1417BOLB   C3A33991  19.040  20.800   3.490
 1417BOLB   C4A33992  18.920  20.850   3.060
 1417BOLB   C1B33993  18.770  20.860   4.320
 1417BOLB   C2B33994  18.620  20.880   3.890
 1417BOLB   C3B33995  18.480  20.970   3.560
 1417BOLB   C4B33996  18.370  21.230   3.260
 1417BOLB   NC233997  19.010  21.340   0.790
 1417BOLB   PO233998  19.220  21.770   0.770
 1417BOLB   GL333999  19.020  21.800   1.160
 1417BOLB   GL434000  19.200  21.860   1.450
 1417BOLB   C1C34001  18.700  21.680   1.580
 1417BOLB   C2C34002  18.680  21.400   1.990
 1417BOLB   C3C34003  18.570  21.240   2.380
 1417BOLB   C4C34004  18.630  21.060   2.770
 1417BOLB   C1D34005  19.170  21.840   1.780
 1417BOLB   C2D34006  18.850  21.850   2.060
 1417BOLB   C3D34007  18.640  21.730   2.330
 1417BOLB   C4D34008  18.260  21.900   2.480
 1418BOLB   NC134009  19.600  13.070  12.790
 1418BOLB   PO134010  19.350  13.260  12.330
 1418BOLB   GL134011  19.670  13.010  12.240
 1418BOLB   GL234012  19.640  12.790  11.860
 1418BOLB   C1A34013  19.840  12.590  12.280
 1418BOLB   C2A34014  19.910  12.190  12.330
 1418BOLB   C3A34015  19.980  12.130  11.970
 1418BOLB   C4A34016  20.270  11.860  11.760
 1418BOLB   C1B34017  19.960  12.660  11.680
 1418BOLB   C2B34018  20.420  12.520  11.650
 1418BOLB   C3B34019  20.710  12.210  11.640
 1418BOLB   C4B34020  20.990  11.860  11.580
 1418BOLB   NC234021  21.220   9.360  11.850
 1418BOLB   PO234022  21.450   9.670  11.650
 1418BOLB   GL334023  21.000   9.910  11.700
 1418BOLB   GL434024  21.250  10.230  11.710
 1418BOLB   C1C34025  20.680  10.200  11.860
 1418BOLB   C2C34026  20.510  10.630  11.710
 1418BOLB   C3C34027  20.510  11.020  11.730
 1418BOLB   C4C34028  20.600  11.500  11.610
 1418BOLB   C1D34029  21.040  10.530  11.470
 1418BOLB   C2D34030  20.940  10.890  11.290
 1418BOLB   C3D34031  20.860  11.070  11.010
 1418BOLB   C4D34032  21.110  11.360  10.920
 1419BOLB   NC134033  23.680  19.360   8.910
 1419BOLB   PO134034  23.280  19.330   8.810
 1419BOLB   GL134035  23.550  19.100   8.490
 1419BOLB   GL234036  23.570  19.150   8.210
 1419BOLB   C1A34037  24.040  19.050   8.390
 1419BOLB   C2A34038  24.280  18.700   8.230
 1419BOLB   C3A34039  24.570  18.410   8.100
 1419BOLB   C4A34040  24.780  18.020   8.220
 1419BOLB   C1B34041  23.800  18.790   8.010
 1419BOLB   C2B34042  24.110  18.460   7.790
 1419BOLB   C3B34043  24.430  18.540   7.520
 1419BOLB   C4B34044  24.750  18.360   7.360
 1419BOLB   NC234045  27.510  17.340   7.120
 1419BOLB   PO234046  27.130  17.340   7.360
 1419BOLB   GL334047  26.790  17.330   7.650
 1419BOLB   GL434048  26.700  17.170   7.990
 1419BOLB   C1C34049  26.310  17.400   7.570
 1419BOLB   C2C34050  26.070  17.720   7.640
 1419BOLB   C3C34051  25.620  17.660   7.720
 1419BOLB   C4C34052  25.280  17.890   8.020
 1419BOLB   C1D34053  26.250  17.160   8.090
 1419BOLB   C2D34054  25.960  17.340   7.930
 1419BOLB   C3D34055  25.820  17.210   7.530
 1419BOLB   C4D34056  25.660  17.480   7.150
 1420BOLB   NC134057   8.110  17.390  10.400
 1420BOLB   PO134058   8.370  17.220  10.150
 1420BOLB   GL134059   8.500  17.520   9.960
 1420BOLB   GL234060   8.490  17.780  10.200
 1420BOLB   C1A34061   8.830  17.560   9.780
 1420BOLB   C2A34062   8.930  17.850   9.440
 1420BOLB   C3A34063   8.770  18.130   9.220
 1420BOLB   C4A34064   8.750  18.370   8.890
 1420BOLB   C1B34065   8.800  18.190  10.300
 1420BOLB   C2B34066   9.160  18.470  10.110
 1420BOLB   C3B34067   9.550  18.410   9.970
 1420BOLB   C4B34068  10.010  18.440   9.760
 1420BOLB   NC234069   7.040  18.450   8.030
 1420BOLB   PO234070   7.100  18.430   8.430
 1420BOLB   GL334071   7.540  18.630   8.230
 1420BOLB   GL434072   7.570  18.820   8.500
 1420BOLB   C1C34073   7.890  18.370   8.070
 1420BOLB   C2C34074   8.310  18.500   7.970
 1420BOLB   C3C34075   8.630  18.550   8.180
 1420BOLB   C4C34076   8.770  18.610   8.620
 1420BOLB   C1D34077   8.060  18.960   8.600
 1420BOLB   C2D34078   8.370  19.270   8.790
 1420BOLB   C3D34079   8.630  19.570   8.850
 1420BOLB   C4D34080   8.540  20.060   8.910
 1421BOLB   NC134081  22.580  16.100  16.010
 1421BOLB   PO134082  22.380  15.710  16.190
 1421BOLB   GL134083  22.470  15.370  16.570
 1421BOLB   GL234084  22.780  15.500  16.820
 1421BOLB   C1A34085  22.880  15.090  16.500
 1421BOLB   C2A34086  23.170  14.960  16.720
 1421BOLB   C3A34087  23.640  14.850  16.810
 1421BOLB   C4A34088  24.000  14.740  16.980
 1421BOLB   C1B34089  22.890  15.050  17.080
 1421BOLB   C2B34090  23.140  14.980  17.400
 1421BOLB   C3B34091  23.330  14.840  17.690
 1421BOLB   C4B34092  23.570  14.710  18.020
 1421BOLB   NC234093  25.950  13.270  17.100
 1421BOLB   PO234094  26.190  13.620  17.260
 1421BOLB   GL334095  25.940  13.940  17.270
 1421BOLB   GL434096  26.010  14.260  17.370
 1421BOLB   C1C34097  25.500  13.980  17.350
 1421BOLB   C2C34098  25.130  14.240  17.360
 1421BOLB   C3C34099  24.840  14.460  17.150
 1421BOLB   C4C34100  24.380  14.610  16.960
 1421BOLB   C1D34101  26.030  14.580  17.100
 1421BOLB   C2D34102  25.750  14.680  16.780
 1421BOLB   C3D34103  25.370  14.690  16.610
 1421BOLB   C4D34104  25.080  14.800  16.420
 1422BOLB   NC134105  20.390  26.060   7.340
 1422BOLB   PO134106  20.170  26.410   7.270
 1422BOLB   GL134107  20.310  26.710   6.930
 1422BOLB   GL234108  20.500  26.680   6.630
 1422BOLB   C1A34109  20.200  27.030   6.620
 1422BOLB   C2A34110  20.100  27.240   6.300
 1422BOLB   C3A34111  20.210  27.470   5.890
 1422BOLB   C4A34112  19.920  27.880   5.710
 1422BOLB   C1B34113  20.470  26.870   6.270
 1422BOLB   C2B34114  20.550  27.110   5.910
 1422BOLB   C3B34115  20.940  27.230   5.870
 1422BOLB   C4B34116  21.140  27.480   5.600
 1422BOLB   NC234117  20.690  29.550   4.460
 1422BOLB   PO234118  20.360  29.730   4.160
 1422BOLB   GL334119  20.230  29.490   4.540
 1422BOLB   GL434120  20.110  29.660   4.840
 1422BOLB   C1C34121  20.160  29.160   4.870
 1422BOLB   C2C34122  19.970  28.910   5.130
 1422BOLB   C3C34123  19.920  28.530   5.030
 1422BOLB   C4C34124  19.760  28.190   5.340
 1422BOLB   C1D34125  20.060  29.510   5.240
 1422BOLB   C2D34126  19.880  29.380   5.720
 1422BOLB   C3D34127  20.030  29.140   6.020
 1422BOLB   C4D34128  20.000  29.240   6.430
 1423BOLB   NC134129  20.360  15.350  17.310
 1423BOLB   PO134130  20.370  15.390  17.660
 1423BOLB   GL134131  20.590  15.000  17.720
 1423BOLB   GL234132  20.510  14.900  18.060
 1423BOLB   C1A34133  20.790  14.550  17.750
 1423BOLB   C2A34134  20.840  14.170  18.010
 1423BOLB   C3A34135  20.800  13.810  18.100
 1423BOLB   C4A34136  20.930  13.430  18.330
 1423BOLB   C1B34137  20.880  14.700  18.230
 1423BOLB   C2B34138  21.150  14.320  18.380
 1423BOLB   C3B34139  21.110  13.870  18.500
 1423BOLB   C4B34140  21.440  13.460  18.480
 1423BOLB   NC234141  22.570  11.280  19.150
 1423BOLB   PO234142  22.240  11.620  19.100
 1423BOLB   GL334143  21.930  11.940  19.140
 1423BOLB   GL434144  21.710  11.890  18.830
 1423BOLB   C1C34145  21.490  12.160  19.170
 1423BOLB   C2C34146  21.220  12.500  18.900
 1423BOLB   C3C34147  21.180  12.620  18.590
 1423BOLB   C4C34148  21.150  13.070  18.390
 1423BOLB   C1D34149  21.270  11.960  18.760
 1423BOLB   C2D34150  20.990  12.090  18.520
 1423BOLB   C3D34151  20.770  12.380  18.260
 1423BOLB   C4D34152  20.980  12.700  18.030
 1424BOLB   NC134153  21.240  22.480   5.830
 1424BOLB   PO134154  21.370  22.930   5.810
 1424BOLB   GL134155  21.700  22.690   5.640
 1424BOLB   GL234156  21.550  22.720   5.350
 1424BOLB   C1A34157  22.030  22.440   5.430
 1424BOLB   C2A34158  22.260  22.630   5.170
 1424BOLB   C3A34159  22.470  22.750   4.910
 1424BOLB   C4A34160  22.990  22.850   4.830
 1424BOLB   C1B34161  21.520  22.700   4.920
 1424BOLB   C2B34162  21.480  22.490   4.570
 1424BOLB   C3B34163  21.820  22.300   4.320
 1424BOLB   C4B34164  22.230  22.360   3.990
 1424BOLB   NC234165  24.620  22.040   3.250
 1424BOLB   PO234166  24.950  22.390   3.420
 1424BOLB   GL334167  24.700  22.230   3.820
 1424BOLB   GL434168  24.520  21.930   3.730
 1424BOLB   C1C34169  24.340  22.500   3.970
 1424BOLB   C2C34170  24.100  22.660   4.070
 1424BOLB   C3C34171  23.620  22.650   4.220
 1424BOLB   C4C34172  23.290  22.760   4.510
 1424BOLB   C1D34173  24.320  22.030   4.100
 1424BOLB   C2D34174  24.050  22.200   4.440
 1424BOLB   C3D34175  23.870  21.900   4.760
 1424BOLB   C4D34176  23.780  21.920   5.170
 1425BOLB   NC134177  21.590  29.440  13.970
 1425BOLB   PO134178  21.960  29.830  14.120
 1425BOLB   GL134179  22.220  30.100  14.220
 1425BOLB   GL234180  22.450  30.250  13.930
 1425BOLB   C1A34181  22.200  30.420  14.490
 1425BOLB   C2A34182  22.270  30.800  14.650
 1425BOLB   C3A34183  22.200  31.180  14.490
 1425BOLB   C4A34184  22.050  31.570  14.390
 1425BOLB   C1B34185  22.700  30.440  14.350
 1425BOLB   C2B34186  23.010  30.500  14.630
 1425BOLB   C3B34187  23.260  30.710  14.710
 1425BOLB   C4B34188  23.500  31.010  15.020
 1425BOLB   NC234189  21.770  33.640  16.070
 1425BOLB   PO234190  21.400  33.780  15.820
 1425BOLB   GL334191  21.340  33.550  15.440
 1425BOLB   GL434192  21.200  33.250  15.600
 1425BOLB   C1C34193  21.520  33.220  15.110
 1425BOLB   C2C34194  21.590  32.800  15.010
 1425BOLB   C3C34195  21.720  32.380  14.910
 1425BOLB   C4C34196  21.890  31.960  14.690
 1425BOLB   C1D34197  21.240  32.860  15.430
 1425BOLB   C2D34198  21.150  32.470  15.390
 1425BOLB   C3D34199  20.780  32.170  15.440
 1425BOLB   C4D34200  20.630  31.810  15.740
 1426BOLB   NC134201  14.670  27.250   9.670
 1426BOLB   PO134202  14.770  27.400   9.240
 1426BOLB   GL134203  14.780  27.840   9.170
 1426BOLB   GL234204  14.890  27.880   8.750
 1426BOLB   C1A34205  14.530  28.190   9.010
 1426BOLB   C2A34206  14.230  28.380   8.840
 1426BOLB   C3A34207  13.890  28.530   8.710
 1426BOLB   C4A34208  13.510  28.740   8.640
 1426BOLB   C1B34209  14.750  28.280   8.550
 1426BOLB   C2B34210  14.530  28.650   8.520
 1426BOLB   C3B34211  14.300  28.940   8.680
 1426BOLB   C4B34212  14.280  29.370   8.710
 1426BOLB   NC234213  12.930  30.440   6.940
 1426BOLB   PO234214  12.580  30.470   7.300
 1426BOLB   GL334215  12.810  30.170   7.430
 1426BOLB   GL434216  13.140  30.240   7.360
 1426BOLB   C1C34217  12.830  29.870   7.740
 1426BOLB   C2C34218  12.950  29.480   7.870
 1426BOLB   C3C34219  13.220  29.150   7.940
 1426BOLB   C4C34220  13.440  28.930   8.290
 1426BOLB   C1D34221  13.290  29.950   7.670
 1426BOLB   C2D34222  13.460  29.660   8.030
 1426BOLB   C3D34223  13.690  29.420   8.230
 1426BOLB   C4D34224  13.860  29.110   8.470
 1427BOLB   NC134225  21.750  15.270  11.290
 1427BOLB   PO134226  22.000  15.230  11.680
 1427BOLB   GL134227  22.460  14.960  11.750
 1427BOLB   GL234228  22.510  14.740  11.970
 1427BOLB   C1A34229  22.840  14.770  11.550
 1427BOLB   C2A34230  23.130  14.460  11.420
 1427BOLB   C3A34231  23.250  14.150  11.330
 1427BOLB   C4A34232  23.320  13.730  11.250
 1427BOLB   C1B34233  22.710  14.400  11.850
 1427BOLB   C2B34234  22.890  13.960  11.720
 1427BOLB   C3B34235  23.190  13.630  11.750
 1427BOLB   C4B34236  23.350  13.330  12.000
 1427BOLB   NC234237  24.840  12.000   9.870
 1427BOLB   PO234238  24.590  12.150  10.230
 1427BOLB   GL334239  24.250  12.260  10.060
 1427BOLB   GL434240  24.220  12.560  10.170
 1427BOLB   C1C34241  23.830  12.330  10.270
 1427BOLB   C2C34242  23.490  12.720  10.400
 1427BOLB   C3C34243  23.270  13.020  10.620
 1427BOLB   C4C34244  23.240  13.440  10.790
 1427BOLB   C1D34245  24.070  12.700  10.550
 1427BOLB   C2D34246  23.700  12.780  10.900
 1427BOLB   C3D34247  23.310  12.580  11.010
 1427BOLB   C4D34248  22.890  12.560  10.910
 1428BOLB   NC134249  15.710  18.060   5.460
 1428BOLB   PO134250  15.620  17.820   5.130
 1428BOLB   GL134251  15.390  17.950   4.720
 1428BOLB   GL234252  15.090  18.150   4.740
 1428BOLB   C1A34253  15.460  17.920   4.270
 1428BOLB   C2A34254  15.570  17.980   3.890
 1428BOLB   C3A34255  15.770  17.710   3.540
 1428BOLB   C4A34256  15.830  17.290   3.380
 1428BOLB   C1B34257  14.970  18.090   4.350
 1428BOLB   C2B34258  15.070  18.070   3.890
 1428BOLB   C3B34259  15.260  18.100   3.510
 1428BOLB   C4B34260  15.590  18.200   3.450
 1428BOLB   NC234261  16.080  16.220   1.020
 1428BOLB   PO234262  15.750  16.400   1.100
 1428BOLB   GL334263  15.670  16.530   1.520
 1428BOLB   GL434264  15.920  16.760   1.620
 1428BOLB   C1C34265  15.420  16.640   1.810
 1428BOLB   C2C34266  15.410  16.710   2.310
 1428BOLB   C3C34267  15.320  16.930   2.690
 1428BOLB   C4C34268  15.600  16.990   3.190
 1428BOLB   C1D34269  16.060  17.040   1.890
 1428BOLB   C2D34270  16.210  17.110   2.240
 1428BOLB   C3D34271  16.160  17.180   2.730
 1428BOLB   C4D34272  16.130  16.990   3.080
 1429BOLB   NC134273  13.500  16.610   7.430
 1429BOLB   PO134274  13.290  16.890   7.700
 1429BOLB   GL134275  13.090  16.760   7.990
 1429BOLB   GL234276  13.020  16.940   8.280
 1429BOLB   C1A34277  12.660  16.600   8.040
 1429BOLB   C2A34278  12.410  16.620   8.390
 1429BOLB   C3A34279  12.090  16.540   8.730
 1429BOLB   C4A34280  12.190  16.360   9.150
 1429BOLB   C1B34281  13.050  16.840   8.690
 1429BOLB   C2B34282  12.610  16.700   8.920
 1429BOLB   C3B34283  12.460  16.580   9.460
 1429BOLB   C4B34284  12.260  16.700   9.830
 1429BOLB   NC234285  10.520  16.300  11.260
 1429BOLB   PO234286  10.910  16.100  11.480
 1429BOLB   GL334287  11.360  16.040  11.260
 1429BOLB   GL434288  11.480  16.300  11.320
 1429BOLB   C1C34289  11.760  15.980  10.900
 1429BOLB   C2C34290  11.890  15.950  10.460
 1429BOLB   C3C34291  11.950  16.050   9.960
 1429BOLB   C4C34292  12.090  16.250   9.620
 1429BOLB   C1D34293  11.840  15.940  11.380
 1429BOLB   C2D34294  11.890  15.570  11.220
 1429BOLB   C3D34295  11.800  15.150  11.020
 1429BOLB   C4D34296  11.850  14.710  10.950
 1430BOLB   NC134297  21.060  17.090   7.660
 1430BOLB   PO134298  21.430  17.090   7.470
 1430BOLB   GL134299  21.400  16.840   7.120
 1430BOLB   GL234300  21.190  16.690   7.020
 1430BOLB   C1A34301  21.630  16.730   6.850
 1430BOLB   C2A34302  21.880  16.660   6.630
 1430BOLB   C3A34303  22.040  16.500   6.280
 1430BOLB   C4A34304  22.370  16.290   5.990
 1430BOLB   C1B34305  21.150  16.560   6.730
 1430BOLB   C2B34306  21.170  16.420   6.240
 1430BOLB   C3B34307  21.650  16.390   6.000
 1430BOLB   C4B34308  21.970  16.510   5.730
 1430BOLB   NC234309  25.310  15.660   5.930
 1430BOLB   PO234310  24.860  15.710   5.820
 1430BOLB   GL334311  24.520  15.850   5.480
 1430BOLB   GL434312  24.480  15.640   5.240
 1430BOLB   C1C34313  24.150  15.980   5.680
 1430BOLB   C2C34314  23.700  16.120   5.810
 1430BOLB   C3C34315  23.370  16.350   6.040
 1430BOLB   C4C34316  22.900  16.320   5.940
 1430BOLB   C1D34317  24.070  15.800   5.150
 1430BOLB   C2D34318  23.760  16.140   5.310
 1430BOLB   C3D34319  23.390  16.270   5.230
 1430BOLB   C4D34320  22.960  16.280   5.400
 1431BOLB   NC134321  11.370  17.330  18.570
 1431BOLB   PO134322  11.060  16.930  18.690
 1431BOLB   GL134323  11.030  16.810  19.080
 1431BOLB   GL234324  10.970  17.130  19.250
 1431BOLB   C1A34325  10.870  16.690  19.440
 1431BOLB   C2A34326  10.810  16.500  19.860
 1431BOLB   C3A34327  11.050  16.500  20.260
 1431BOLB   C4A34328  11.040  16.110  20.560
 1431BOLB   C1B34329  10.730  17.220  19.630
 1431BOLB   C2B34330  10.530  16.910  19.960
 1431BOLB   C3B34331  10.320  16.510  20.080
 1431BOLB   C4B34332  10.590  16.160  20.160
 1431BOLB   NC234333   8.980  16.910  21.810
 1431BOLB   PO234334   9.300  16.970  22.120
 1431BOLB   GL334335   9.510  16.900  21.830
 1431BOLB   GL434336   9.820  16.930  21.830
 1431BOLB   C1C34337   9.680  16.570  21.490
 1431BOLB   C2C34338  10.030  16.380  21.240
 1431BOLB   C3C34339  10.490  16.300  21.060
 1431BOLB   C4C34340  10.890  16.190  20.930
 1431BOLB   C1D34341  10.020  16.950  21.410
 1431BOLB   C2D34342   9.980  17.140  21.010
 1431BOLB   C3D34343  10.290  17.300  20.890
 1431BOLB   C4D34344  10.720  17.240  20.870
 1432BOLB   NC134345  14.130  11.920  13.680
 1432BOLB   PO134346  14.570  11.710  13.870
 1432BOLB   GL134347  14.330  11.350  13.800
 1432BOLB   GL234348  14.120  11.350  13.510
 1432BOLB   C1A34349  14.280  10.920  13.820
 1432BOLB   C2A34350  14.150  10.490  13.780
 1432BOLB   C3A34351  14.000  10.130  13.640
 1432BOLB   C4A34352  14.080   9.790  13.480
 1432BOLB   C1B34353  14.200  10.980  13.300
 1432BOLB   C2B34354  14.150  10.560  13.280
 1432BOLB   C3B34355  13.870  10.260  13.120
 1432BOLB   C4B34356  14.010   9.850  12.960
 1432BOLB   NC234357  14.720   7.770  14.970
 1432BOLB   PO234358  14.310   7.810  14.860
 1432BOLB   GL334359  14.360   8.110  14.490
 1432BOLB   GL434360  14.170   8.330  14.490
 1432BOLB   C1C34361  14.410   8.460  14.090
 1432BOLB   C2C34362  14.260   8.820  14.050
 1432BOLB   C3C34363  14.100   9.040  13.850
 1432BOLB   C4C34364  14.080   9.370  13.600
 1432BOLB   C1D34365  14.360   8.750  14.550
 1432BOLB   C2D34366  14.430   9.180  14.370
 1432BOLB   C3D34367  14.510   9.630  14.480
 1432BOLB   C4D34368  14.530  10.140  14.560
 1433BOLB   NC134369  13.900  18.790   5.050
 1433BOLB   PO134370  13.780  19.170   5.020
 1433BOLB   GL134371  13.390  19.070   4.800
 1433BOLB   GL234372  13.510  18.720   4.690
 1433BOLB   C1A34373  13.070  19.250   4.530
 1433BOLB   C2A34374  13.040  19.230   4.090
 1433BOLB   C3A34375  13.040  18.930   3.900
 1433BOLB   C4A34376  12.800  18.550   3.890
 1433BOLB   C1B34377  13.740  18.650   4.320
 1433BOLB   C2B34378  13.840  18.780   3.980
 1433BOLB   C3B34379  13.980  18.560   3.600
 1433BOLB   C4B34380  14.020  18.400   3.180
 1433BOLB   NC234381  10.640  17.710   2.160
 1433BOLB   PO234382  10.840  17.830   2.560
 1433BOLB   GL334383  11.020  17.570   2.960
 1433BOLB   GL434384  10.810  17.840   3.210
 1433BOLB   C1C34385  11.460  17.690   3.160
 1433BOLB   C2C34386  11.840  17.750   3.400
 1433BOLB   C3C34387  12.180  17.930   3.590
 1433BOLB   C4C34388  12.490  18.170   3.890
 1433BOLB   C1D34389  11.240  17.870   3.570
 1433BOLB   C2D34390  11.660  18.110   3.770
 1433BOLB   C3D34391  12.010  18.410   4.050
 1433BOLB   C4D34392  12.360  18.740   3.910
 1434BOLB   NC134393  20.570  22.260   5.730
 1434BOLB   PO134394  20.770  22.620   5.800
 1434BOLB   GL134395  21.010  22.770   5.410
 1434BOLB   GL234396  20.770  22.890   5.270
 1434BOLB   C1A34397  21.330  23.140   5.210
 1434BOLB   C2A34398  21.520  23.330   4.950
 1434BOLB   C3A34399  21.690  23.520   4.660
 1434BOLB   C4A34400  21.810  23.340   4.250
 1434BOLB   C1B34401  21.040  22.900   4.890
 1434BOLB   C2B34402  21.340  23.040   4.560
 1434BOLB   C3B34403  21.750  22.910   4.500
 1434BOLB   C4B34404  22.070  22.750   4.260
 1434BOLB   NC234405  21.390  24.040   1.950
 1434BOLB   PO234406  21.410  23.600   1.880
 1434BOLB   GL334407  21.640  23.230   2.250
 1434BOLB   GL434408  21.790  22.960   2.080
 1434BOLB   C1C34409  21.910  23.410   2.600
 1434BOLB   C2C34410  21.770  23.410   3.010
 1434BOLB   C3C34411  21.830  23.390   3.500
 1434BOLB   C4C34412  21.890  23.330   3.870
 1434BOLB   C1D34413  21.760  22.920   2.610
 1434BOLB   C2D34414  21.640  22.810   2.970
 1434BOLB   C3D34415  21.860  22.540   3.220
 1434BOLB   C4D34416  22.240  22.240   3.450
 1435BOLB   NC134417  19.760  19.200   5.290
 1435BOLB   PO134418  20.020  19.500   5.190
 1435BOLB   GL134419  20.240  19.280   5.010
 1435BOLB   GL234420  20.510  19.230   5.240
 1435BOLB   C1A34421  20.360  19.580   4.590
 1435BOLB   C2A34422  20.180  19.580   4.230
 1435BOLB   C3A34423  20.170  19.720   3.840
 1435BOLB   C4A34424  20.080  19.880   3.430
 1435BOLB   C1B34425  20.690  19.200   4.760
 1435BOLB   C2B34426  21.130  19.320   4.760
 1435BOLB   C3B34427  21.550  19.520   4.750
 1435BOLB   C4B34428  21.910  19.420   4.540
 1435BOLB   NC234429  21.360  20.350   1.770
 1435BOLB   PO234430  20.970  20.420   1.380
 1435BOLB   GL334431  20.870  20.510   1.780
 1435BOLB   GL434432  20.540  20.710   1.860
 1435BOLB   C1C34433  20.600  20.250   2.170
 1435BOLB   C2C34434  20.510  20.190   2.590
 1435BOLB   C3C34435  20.360  20.280   2.840
 1435BOLB   C4C34436  20.120  20.190   3.100
 1435BOLB   C1D34437  20.090  20.630   1.790
 1435BOLB   C2D34438  19.770  20.670   2.020
 1435BOLB   C3D34439  19.550  20.570   2.400
 1435BOLB   C4D34440  19.170  20.590   2.680
 1436BOLB   NC134441  18.060  12.530  12.900
 1436BOLB   PO134442  17.640  12.470  12.740
 1436BOLB   GL134443  17.810  12.020  12.960
 1436BOLB   GL234444  18.100  11.960  13.020
 1436BOLB   C1A34445  17.990  11.490  13.110
 1436BOLB   C2A34446  18.060  11.020  13.230
 1436BOLB   C3A34447  18.220  10.630  13.380
 1436BOLB   C4A34448  18.390  10.240  13.400
 1436BOLB   C1B34449  18.280  11.730  12.730
 1436BOLB   C2B34450  18.680  11.660  12.470
 1436BOLB   C3B34451  18.960  11.380  12.440
 1436BOLB   C4B34452  18.970  11.000  12.170
 1436BOLB   NC234453  19.170   8.140  13.910
 1436BOLB   PO234454  19.510   8.320  13.740
 1436BOLB   GL334455  19.240   8.630  13.820
 1436BOLB   GL434456  19.200   8.930  13.630
 1436BOLB   C1C34457  18.810   8.760  14.080
 1436BOLB   C2C34458  18.690   9.230  14.050
 1436BOLB   C3C34459  18.610   9.580  13.870
 1436BOLB   C4C34460  18.550   9.990  13.640
 1436BOLB   C1D34461  18.940   9.270  13.560
 1436BOLB   C2D34462  18.520   9.350  13.340
 1436BOLB   C3D34463  18.140   9.410  13.120
 1436BOLB   C4D34464  17.870   9.690  12.890
 1437BOLB   NC134465  15.750  17.000   5.230
 1437BOLB   PO134466  15.800  16.900   4.810
 1437BOLB   GL134467  15.930  16.680   4.480
 1437BOLB   GL234468  15.740  16.410   4.600
 1437BOLB   C1A34469  15.830  16.650   3.990
 1437BOLB   C2A34470  15.580  16.730   3.680
 1437BOLB   C3A34471  15.400  17.150   3.600
 1437BOLB   C4A34472  15.260  17.420   3.310
 1437BOLB   C1B34473  15.770  16.130   4.270
 1437BOLB   C2B34474  15.620  15.780   4.210
 1437BOLB   C3B34475  15.480  15.310   4.240
 1437BOLB   C4B34476  15.640  14.970   3.970
 1437BOLB   NC234477  14.270  16.940   1.330
 1437BOLB   PO234478  14.110  17.280   1.170
 1437BOLB   GL334479  14.350  17.420   1.520
 1437BOLB   GL434480  14.620  17.130   1.580
 1437BOLB   C1C34481  14.470  17.520   1.950
 1437BOLB   C2C34482  14.540  17.410   2.380
 1437BOLB   C3C34483  14.620  17.400   2.810
 1437BOLB   C4C34484  14.750  17.470   3.180
 1437BOLB   C1D34485  14.450  16.990   2.140
 1437BOLB   C2D34486  14.300  17.090   2.610
 1437BOLB   C3D34487  14.090  16.900   3.020
 1437BOLB   C4D34488  13.860  16.790   3.350
 1438BOLB   NC134489  19.130  14.050  17.210
 1438BOLB   PO134490  19.350  13.880  16.800
 1438BOLB   GL134491  19.310  13.450  16.920
 1438BOLB   GL234492  19.480  13.300  16.760
 1438BOLB   C1A34493  19.250  13.070  17.140
 1438BOLB   C2A34494  19.360  12.750  17.200
 1438BOLB   C3A34495  19.710  12.440  17.100
 1438BOLB   C4A34496  20.030  12.310  17.320
 1438BOLB   C1B34497  19.410  12.820  16.620
 1438BOLB   C2B34498  19.290  12.440  16.710
 1438BOLB   C3B34499  19.390  12.050  16.940
 1438BOLB   C4B34500  19.650  11.940  17.270
 1438BOLB   NC234501  20.060  10.400  19.390
 1438BOLB   PO234502  19.700  10.420  19.120
 1438BOLB   GL334503  19.850  10.720  18.840
 1438BOLB   GL434504  19.730  10.550  18.540
 1438BOLB   C1C34505  19.950  11.160  18.530
 1438BOLB   C2C34506  19.990  11.330  18.160
 1438BOLB   C3C34507  20.030  11.620  17.890
 1438BOLB   C4C34508  20.090  12.030  17.650
 1438BOLB   C1D34509  19.650  10.940  18.230
 1438BOLB   C2D34510  19.560  11.380  18.070
 1438BOLB   C3D34511  19.600  11.880  18.040
 1438BOLB   C4D34512  19.580  12.260  18.310
 1439BOLB   NC134513  19.480  17.480   6.530
 1439BOLB   PO134514  19.650  17.110   6.350
 1439BOLB   GL134515  19.830  17.080   5.870
 1439BOLB   GL234516  20.150  17.330   5.770
 1439BOLB   C1A34517  19.870  16.810   5.570
 1439BOLB   C2A34518  19.970  16.630   5.140
 1439BOLB   C3A34519  19.990  16.320   4.850
 1439BOLB   C4A34520  20.420  16.190   4.620
 1439BOLB   C1B34521  20.530  17.320   5.440
 1439BOLB   C2B34522  20.670  17.310   5.070
 1439BOLB   C3B34523  20.780  17.020   4.760
 1439BOLB   C4B34524  20.790  16.530   4.670
 1439BOLB   NC234525  21.200  16.440   2.410
 1439BOLB   PO234526  21.690  16.600   2.620
 1439BOLB   GL334527  21.790  16.680   3.070
 1439BOLB   GL434528  21.990  16.930   3.130
 1439BOLB   C1C34529  21.530  16.750   3.440
 1439BOLB   C2C34530  21.090  16.690   3.640
 1439BOLB   C3C34531  20.830  16.410   3.920
 1439BOLB   C4C34532  20.620  16.260   4.270
 1439BOLB   C1D34533  21.480  17.020   3.020
 1439BOLB   C2D34534  21.170  17.080   3.360
 1439BOLB   C3D34535  20.960  17.300   3.630
 1439BOLB   C4D34536  20.920  17.720   3.600
 1440BOLB   NC134537  21.690  20.780   6.150
 1440BOLB   PO134538  21.940  20.440   6.030
 1440BOLB   GL134539  22.230  20.170   5.910
 1440BOLB   GL234540  22.470  19.880   6.070
 1440BOLB   C1A34541  22.570  19.970   5.630
 1440BOLB   C2A34542  22.820  19.580   5.610
 1440BOLB   C3A34543  23.100  19.260   5.550
 1440BOLB   C4A34544  23.560  19.210   5.500
 1440BOLB   C1B34545  22.760  19.540   6.190
 1440BOLB   C2B34546  23.080  19.420   6.050
 1440BOLB   C3B34547  23.470  19.240   5.990
 1440BOLB   C4B34548  23.910  19.350   6.050
 1440BOLB   NC234549  24.330  20.000   3.060
 1440BOLB   PO234550  24.690  19.980   3.420
 1440BOLB   GL334551  24.400  19.920   3.700
 1440BOLB   GL434552  24.390  20.090   3.910
 1440BOLB   C1C34553  24.050  19.660   3.860
 1440BOLB   C2C34554  23.980  19.520   4.270
 1440BOLB   C3C34555  23.730  19.420   4.710
 1440BOLB   C4C34556  23.580  19.360   5.140
 1440BOLB   C1D34557  24.130  20.080   4.300
 1440BOLB   C2D34558  23.720  20.010   4.570
 1440BOLB   C3D34559  23.330  19.710   4.850
 1440BOLB   C4D34560  23.060  19.490   5.110
 1441BOLB   NC134561  24.330  23.480   9.010
 1441BOLB   PO134562  24.250  23.570   8.500
 1441BOLB   GL134563  24.660  23.630   8.290
 1441BOLB   GL234564  24.710  24.010   8.070
 1441BOLB   C1A34565  25.070  23.700   8.050
 1441BOLB   C2A34566  25.410  23.550   7.900
 1441BOLB   C3A34567  25.510  23.490   7.510
 1441BOLB   C4A34568  25.750  23.630   7.070
 1441BOLB   C1B34569  24.840  24.190   7.660
 1441BOLB   C2B34570  25.240  24.230   7.460
 1441BOLB   C3B34571  25.550  24.550   7.360
 1441BOLB   C4B34572  25.740  24.880   7.520
 1441BOLB   NC234573  27.000  24.750   5.220
 1441BOLB   PO234574  27.300  24.510   5.470
 1441BOLB   GL334575  26.750  24.340   5.460
 1441BOLB   GL434576  26.600  24.080   5.270
 1441BOLB   C1C34577  26.470  24.230   5.730
 1441BOLB   C2C34578  26.140  24.120   5.860
 1441BOLB   C3C34579  25.990  23.970   6.200
 1441BOLB   C4C34580  25.950  23.760   6.600
 1441BOLB   C1D34581  26.180  24.230   5.200
 1441BOLB   C2D34582  25.820  24.130   4.930
 1441BOLB   C3D34583  25.500  23.950   4.670
 1441BOLB   C4D34584  25.140  23.720   4.720
 1442BOLB   NC134585  20.170  28.800  10.080
 1442BOLB   PO134586  19.960  29.220  10.190
 1442BOLB   GL134587  20.000  29.680  10.090
 1442BOLB   GL234588  19.620  29.870   9.920
 1442BOLB   C1A34589  20.050  30.030  10.110
 1442BOLB   C2A34590  19.940  30.560  10.130
 1442BOLB   C3A34591  19.950  30.970   9.960
 1442BOLB   C4A34592  19.700  31.400   9.880
 1442BOLB   C1B34593  19.800  30.250   9.760
 1442BOLB   C2B34594  20.000  30.610   9.530
 1442BOLB   C3B34595  20.140  30.920   9.490
 1442BOLB   C4B34596  20.010  31.410   9.500
 1442BOLB   NC234597  20.030  32.630   7.790
 1442BOLB   PO234598  19.840  33.040   8.130
 1442BOLB   GL334599  19.950  32.830   8.490
 1442BOLB   GL434600  19.720  32.830   8.630
 1442BOLB   C1C34601  20.130  32.600   8.860
 1442BOLB   C2C34602  20.230  32.300   9.170
 1442BOLB   C3C34603  20.080  31.890   9.390
 1442BOLB   C4C34604  19.690  31.790   9.620
 1442BOLB   C1D34605  19.570  32.460   8.840
 1442BOLB   C2D34606  19.560  32.030   8.600
 1442BOLB   C3D34607  19.840  31.640   8.580
 1442BOLB   C4D34608  19.920  31.240   8.560
 1443BOLB   NC134609  25.710  20.070  12.360
 1443BOLB   PO134610  25.920  20.420  12.450
 1443BOLB   GL134611  26.240  20.270  12.300
 1443BOLB   GL234612  26.250  19.920  12.140
 1443BOLB   C1A34613  26.640  20.440  12.190
 1443BOLB   C2A34614  26.900  20.300  11.860
 1443BOLB   C3A34615  27.040  20.020  11.560
 1443BOLB   C4A34616  27.370  19.790  11.530
 1443BOLB   C1B34617  26.660  19.760  12.060
 1443BOLB   C2B34618  26.860  19.520  12.310
 1443BOLB   C3B34619  27.140  19.080  12.390
 1443BOLB   C4B34620  27.540  19.130  12.600
 1443BOLB   NC234621  29.630  19.480  11.310
 1443BOLB   PO234622  29.290  19.070  11.240
 1443BOLB   GL334623  29.010  19.030  11.530
 1443BOLB   GL434624  29.150  19.150  11.750
 1443BOLB   C1C34625  28.540  19.230  11.700
 1443BOLB   C2C34626  28.120  19.290  12.020
 1443BOLB   C3C34627  27.730  19.330  12.110
 1443BOLB   C4C34628  27.430  19.360  11.760
 1443BOLB   C1D34629  28.890  19.490  11.900
 1443BOLB   C2D34630  28.550  19.490  12.290
 1443BOLB   C3D34631  28.480  19.760  12.520
 1443BOLB   C4D34632  28.380  20.170  12.610
 1444BOLB   NC134633  17.510  27.010   8.010
 1444BOLB   PO134634  17.730  27.250   7.690
 1444BOLB   GL134635  17.920  27.460   7.350
 1444BOLB   GL234636  18.090  27.350   7.060
 1444BOLB   C1A34637  17.990  27.910   7.250
 1444BOLB   C2A34638  17.890  28.230   6.960
 1444BOLB   C3A34639  18.000  28.480   6.590
 1444BOLB   C4A34640  18.120  28.600   6.300
 1444BOLB   C1B34641  18.240  27.740   6.800
 1444BOLB   C2B34642  18.510  28.010   6.600
 1444BOLB   C3B34643  18.510  28.250   6.290
 1444BOLB   C4B34644  18.520  28.470   5.910
 1444BOLB   NC234645  18.440  31.070   4.570
 1444BOLB   PO234646  18.200  30.760   4.880
 1444BOLB   GL334647  18.190  30.310   4.980
 1444BOLB   GL434648  18.290  30.360   5.320
 1444BOLB   C1C34649  18.210  29.920   5.020
 1444BOLB   C2C34650  18.260  29.550   5.440
 1444BOLB   C3C34651  18.320  29.080   5.730
 1444BOLB   C4C34652  18.290  28.920   6.050
 1444BOLB   C1D34653  18.370  30.050   5.590
 1444BOLB   C2D34654  18.640  29.870   5.970
 1444BOLB   C3D34655  18.530  29.800   6.460
 1444BOLB   C4D34656  18.420  29.780   6.930
 1445BOLB   NC134657  11.200  19.790   8.700
 1445BOLB   PO134658  11.270  19.440   8.500
 1445BOLB   GL134659  10.830  19.250   8.510
 1445BOLB   GL234660  10.470  19.350   8.810
 1445BOLB   C1A34661  10.290  18.950   8.470
 1445BOLB   C2A34662   9.880  18.890   8.710
 1445BOLB   C3A34663   9.740  19.090   9.160
 1445BOLB   C4A34664   9.320  19.080   9.370
 1445BOLB   C1B34665  10.010  19.330   8.790
 1445BOLB   C2B34666   9.750  19.270   8.370
 1445BOLB   C3B34667   9.430  19.110   8.070
 1445BOLB   C4B34668   9.350  18.840   7.720
 1445BOLB   NC234669   6.450  18.900   9.600
 1445BOLB   PO234670   6.560  18.620   9.260
 1445BOLB   GL334671   7.030  18.720   9.090
 1445BOLB   GL434672   7.220  18.710   8.910
 1445BOLB   C1C34673   7.360  18.960   9.390
 1445BOLB   C2C34674   7.820  19.080   9.400
 1445BOLB   C3C34675   8.270  19.160   9.300
 1445BOLB   C4C34676   8.770  19.170   9.390
 1445BOLB   C1D34677   7.430  19.110   8.890
 1445BOLB   C2D34678   7.870  19.300   8.970
 1445BOLB   C3D34679   8.210  19.640   9.190
 1445BOLB   C4D34680   8.260  19.890   9.550
 1446BOLB   NC134681  18.380  14.140   7.780
 1446BOLB   PO134682  18.710  13.910   7.620
 1446BOLB   GL134683  18.670  13.610   7.590
 1446BOLB   GL234684  18.610  13.530   7.310
 1446BOLB   C1A34685  18.900  13.190   7.660
 1446BOLB   C2A34686  19.090  12.740   7.700
 1446BOLB   C3A34687  19.190  12.260   7.810
 1446BOLB   C4A34688  19.590  12.050   7.790
 1446BOLB   C1B34689  18.590  13.070   7.090
 1446BOLB   C2B34690  18.660  12.850   6.780
 1446BOLB   C3B34691  18.500  12.980   6.470
 1446BOLB   C4B34692  18.230  13.280   6.250
 1446BOLB   NC234693  20.670  10.080   7.830
 1446BOLB   PO234694  20.660  10.300   7.550
 1446BOLB   GL334695  20.690  10.710   7.710
 1446BOLB   GL434696  21.000  10.770   7.840
 1446BOLB   C1C34697  20.550  11.030   7.700
 1446BOLB   C2C34698  20.290  11.310   7.880
 1446BOLB   C3C34699  20.300  11.650   7.890
 1446BOLB   C4C34700  20.050  12.050   7.850
 1446BOLB   C1D34701  20.790  11.060   8.100
 1446BOLB   C2D34702  20.490  11.450   8.300
 1446BOLB   C3D34703  20.410  11.870   8.330
 1446BOLB   C4D34704  20.240  12.250   8.700
 1447BOLB   NC134705  15.580  19.450   5.310
 1447BOLB   PO134706  15.820  19.240   4.940
 1447BOLB   GL134707  15.840  19.220   4.540
 1447BOLB   GL234708  15.990  19.040   4.140
 1447BOLB   C1A34709  15.570  19.460   4.360
 1447BOLB   C2A34710  15.300  19.460   3.990
 1447BOLB   C3A34711  15.020  19.470   3.660
 1447BOLB   C4A34712  15.040  19.510   3.320
 1447BOLB   C1B34713  15.740  19.060   3.830
 1447BOLB   C2B34714  15.490  19.240   3.480
 1447BOLB   C3B34715  15.160  19.030   3.170
 1447BOLB   C4B34716  14.780  18.690   3.000
 1447BOLB   NC234717  13.630  19.510   0.600
 1447BOLB   PO234718  13.850  19.500   0.990
 1447BOLB   GL334719  14.110  19.350   1.260
 1447BOLB   GL434720  14.390  19.120   1.280
 1447BOLB   C1C34721  14.200  19.380   1.640
 1447BOLB   C2C34722  14.460  19.360   2.060
 1447BOLB   C3C34723  14.720  19.410   2.410
 1447BOLB   C4C34724  14.960  19.430   2.850
 1447BOLB   C1D34725  14.660  19.170   1.550
 1447BOLB   C2D34726  14.640  18.940   1.810
 1447BOLB   C3D34727  14.970  18.880   2.200
 1447BOLB   C4D34728  15.020  18.850   2.630
 1448BOLB   NC134729  24.220  24.630   8.390
 1448BOLB   PO134730  23.960  24.480   7.990
 1448BOLB   GL134731  24.130  24.480   7.560
 1448BOLB   GL234732  24.150  24.740   7.450
 1448BOLB   C1A34733  24.170  24.190   7.150
 1448BOLB   C2A34734  24.390  24.140   6.820
 1448BOLB   C3A34735  24.510  24.440   6.590
 1448BOLB   C4A34736  24.590  24.660   6.190
 1448BOLB   C1B34737  24.360  24.670   7.080
 1448BOLB   C2B34738  24.110  24.610   6.750
 1448BOLB   C3B34739  24.160  24.800   6.380
 1448BOLB   C4B34740  23.990  24.890   5.860
 1448BOLB   NC234741  26.060  24.720   4.040
 1448BOLB   PO234742  25.710  24.460   4.010
 1448BOLB   GL334743  25.400  24.410   4.290
 1448BOLB   GL434744  25.380  24.560   4.560
 1448BOLB   C1C34745  25.020  24.220   4.510
 1448BOLB   C2C34746  24.870  24.130   4.930
 1448BOLB   C3C34747  24.790  24.330   5.340
 1448BOLB   C4C34748  24.770  24.460   5.790
 1448BOLB   C1D34749  25.030  24.630   4.760
 1448BOLB   C2D34750  24.730  24.780   4.930
 1448BOLB   C3D34751  24.440  24.680   5.210
 1448BOLB   C4D34752  24.380  24.690   5.650
 1449BOLB   NC134753  20.190  21.460   6.040
 1449BOLB   PO134754  20.280  21.710   5.750
 1449BOLB   GL134755  20.370  21.800   5.340
 1449BOLB   GL234756  20.670  21.900   5.360
 1449BOLB   C1A34757  20.390  22.060   4.880
 1449BOLB   C2A34758  20.230  21.640   4.770
 1449BOLB   C3A34759  20.240  21.520   4.360
 1449BOLB   C4A34760  20.020  21.690   3.930
 1449BOLB   C1B34761  20.790  21.850   5.040
 1449BOLB   C2B34762  21.170  21.680   4.740
 1449BOLB   C3B34763  21.250  21.390   4.480
 1449BOLB   C4B34764  21.630  21.160   4.330
 1449BOLB   NC234765  20.660  20.810   1.350
 1449BOLB   PO234766  20.720  21.170   1.480
 1449BOLB   GL334767  20.650  21.190   1.920
 1449BOLB   GL434768  20.430  21.510   1.830
 1449BOLB   C1C34769  20.460  21.170   2.360
 1449BOLB   C2C34770  20.460  21.190   2.880
 1449BOLB   C3C34771  20.300  21.370   3.240
 1449BOLB   C4C34772  19.960  21.600   3.500
 1449BOLB   C1D34773  20.080  21.550   2.100
 1449BOLB   C2D34774  19.850  21.880   2.310
 1449BOLB   C3D34775  19.610  22.070   2.630
 1449BOLB   C4D34776  19.240  22.190   2.830
 1450BOLB   NC134777  19.680  27.130  18.930
 1450BOLB   PO134778  20.130  27.270  18.840
 1450BOLB   GL134779  20.160  27.340  19.200
 1450BOLB   GL234780  19.910  27.520  19.250
 1450BOLB   C1A34781  20.460  27.590  19.550
 1450BOLB   C2A34782  20.360  27.720  19.990
 1450BOLB   C3A34783  20.420  28.020  20.390
 1450BOLB   C4A34784  20.410  27.900  20.800
 1450BOLB   C1B34785  19.970  27.670  19.670
 1450BOLB   C2B34786  19.920  27.990  20.070
 1450BOLB   C3B34787  19.900  28.160  20.530
 1450BOLB   C4B34788  20.050  28.140  21.050
 1450BOLB   NC234789  21.180  28.140  22.880
 1450BOLB   PO234790  21.400  28.530  22.610
 1450BOLB   GL334791  21.340  28.270  22.220
 1450BOLB   GL434792  21.090  28.520  22.070
 1450BOLB   C1C34793  21.350  27.840  21.920
 1450BOLB   C2C34794  21.140  27.720  21.550
 1450BOLB   C3C34795  21.020  28.020  21.320
 1450BOLB   C4C34796  20.810  27.900  20.950
 1450BOLB   C1D34797  21.210  28.310  21.710
 1450BOLB   C2D34798  21.380  28.420  21.290
 1450BOLB   C3D34799  21.260  28.430  20.820
 1450BOLB   C4D34800  21.230  28.230  20.430
 1451BOLB   NC134801  24.710  24.560   9.530
 1451BOLB   PO134802  24.760  24.170   9.220
 1451BOLB   GL134803  24.920  24.110   8.900
 1451BOLB   GL234804  25.260  24.110   8.990
 1451BOLB   C1A34805  25.240  23.790   8.600
 1451BOLB   C2A34806  25.550  23.780   8.280
 1451BOLB   C3A34807  25.960  23.910   8.040
 1451BOLB   C4A34808  26.130  24.160   7.810
 1451BOLB   C1B34809  25.540  24.240   8.610
 1451BOLB   C2B34810  25.790  24.480   8.310
 1451BOLB   C3B34811  26.160  24.380   8.290
 1451BOLB   C4B34812  26.400  24.070   8.250
 1451BOLB   NC234813  28.720  23.770   7.510
 1451BOLB   PO234814  28.380  24.010   7.570
 1451BOLB   GL334815  28.080  24.250   7.740
 1451BOLB   GL434816  28.240  24.450   7.850
 1451BOLB   C1C34817  27.710  24.230   7.970
 1451BOLB   C2C34818  27.260  24.130   7.940
 1451BOLB   C3C34819  26.880  24.330   7.910
 1451BOLB   C4C34820  26.550  24.390   7.890
 1451BOLB   C1D34821  27.970  24.560   8.170
 1451BOLB   C2D34822  27.520  24.560   8.350
 1451BOLB   C3D34823  27.160  24.440   8.300
 1451BOLB   C4D34824  26.790  24.400   8.390
 1452BOLB   NC134825  11.960  26.190  13.000
 1452BOLB   PO134826  11.660  26.370  13.120
 1452BOLB   GL134827  11.410  26.700  13.180
 1452BOLB   GL234828  11.220  26.780  12.990
 1452BOLB   C1A34829  11.000  26.950  13.370
 1452BOLB   C2A34830  10.800  27.160  13.720
 1452BOLB   C3A34831  10.340  27.350  13.710
 1452BOLB   C4A34832   9.830  27.420  13.890
 1452BOLB   C1B34833  11.280  27.220  13.110
 1452BOLB   C2B34834  11.020  27.580  13.000
 1452BOLB   C3B34835  10.910  27.960  13.080
 1452BOLB   C4B34836  10.720  28.050  13.440
 1452BOLB   NC234837   8.160  29.140  13.550
 1452BOLB   PO234838   8.640  29.090  13.650
 1452BOLB   GL334839   8.830  28.780  13.490
 1452BOLB   GL434840   9.050  28.580  13.710
 1452BOLB   C1C34841   9.050  28.430  13.270
 1452BOLB   C2C34842   9.310  28.100  13.150
 1452BOLB   C3C34843   9.540  27.820  13.220
 1452BOLB   C4C34844   9.670  27.550  13.530
 1452BOLB   C1D34845   9.520  28.610  13.610
 1452BOLB   C2D34846   9.890  28.380  13.450
 1452BOLB   C3D34847  10.320  28.390  13.250
 1452BOLB   C4D34848  10.750  28.530  13.410
 1453BOLB   NC134849  17.750   7.930  13.280
 1453BOLB   PO134850  17.990   7.780  12.900
 1453BOLB   GL134851  17.970   8.340  12.920
 1453BOLB   GL234852  17.670   8.660  13.030
 1453BOLB   C1A34853  18.140   8.790  12.780
 1453BOLB   C2A34854  18.440   9.100  12.770
 1453BOLB   C3A34855  18.360   9.540  12.510
 1453BOLB   C4A34856  18.200   9.890  12.530
 1453BOLB   C1B34857  17.890   9.010  13.210
 1453BOLB   C2B34858  17.640   9.400  13.300
 1453BOLB   C3B34859  17.570   9.790  13.230
 1453BOLB   C4B34860  17.360  10.230  13.320
 1453BOLB   NC234861  19.300   8.590  12.450
 1453BOLB   PO234862  18.960   8.300  12.510
 1453BOLB   GL334863  18.830   8.680  12.330
 1453BOLB   GL434864  18.760   8.770  12.020
 1453BOLB   C1C34865  18.910   9.090  12.510
 1453BOLB   C2C34866  18.930   9.540  12.520
 1453BOLB   C3C34867  18.750   9.900  12.580
 1453BOLB   C4C34868  18.440  10.170  12.530
 1453BOLB   C1D34869  18.720   9.220  12.040
 1453BOLB   C2D34870  18.290   9.230  11.950
 1453BOLB   C3D34871  18.090   9.570  12.090
 1453BOLB   C4D34872  18.100   9.970  11.730
 1454BOLB   NC134873  22.440  19.590   7.330
 1454BOLB   PO134874  22.310  19.620   6.990
 1454BOLB   GL134875  22.290  19.180   6.950
 1454BOLB   GL234876  22.140  18.910   6.750
 1454BOLB   C1A34877  22.620  18.860   6.920
 1454BOLB   C2A34878  22.910  18.680   6.640
 1454BOLB   C3A34879  23.330  18.520   6.580
 1454BOLB   C4A34880  23.710  18.350   6.410
 1454BOLB   C1B34881  22.390  18.700   6.510
 1454BOLB   C2B34882  22.550  18.380   6.250
 1454BOLB   C3B34883  22.980  18.250   6.200
 1454BOLB   C4B34884  23.180  18.080   5.850
 1454BOLB   NC234885  25.060  17.500   4.150
 1454BOLB   PO234886  25.030  17.920   4.310
 1454BOLB   GL334887  24.840  17.960   4.630
 1454BOLB   GL434888  24.540  18.220   4.640
 1454BOLB   C1C34889  24.650  17.900   5.010
 1454BOLB   C2C34890  24.490  17.730   5.470
 1454BOLB   C3C34891  24.290  17.990   5.780
 1454BOLB   C4C34892  24.030  18.310   6.050
 1454BOLB   C1D34893  24.110  18.300   4.770
 1454BOLB   C2D34894  23.790  18.360   5.070
 1454BOLB   C3D34895  23.360  18.490   5.120
 1454BOLB   C4D34896  23.040  18.420   4.930
 1455BOLB   NC134897  24.820  21.000   9.670
 1455BOLB   PO134898  24.910  20.900  10.100
 1455BOLB   GL134899  25.300  20.990   9.750
 1455BOLB   GL234900  25.220  20.770   9.540
 1455BOLB   C1A34901  25.670  21.060   9.550
 1455BOLB   C2A34902  25.920  20.770   9.250
 1455BOLB   C3A34903  26.140  20.810   8.870
 1455BOLB   C4A34904  26.510  20.890   8.630
 1455BOLB   C1B34905  25.410  20.520   9.190
 1455BOLB   C2B34906  25.770  20.410   8.920
 1455BOLB   C3B34907  26.310  20.400   8.870
 1455BOLB   C4B34908  26.680  20.490   9.070
 1455BOLB   NC234909  27.620  20.390   6.730
 1455BOLB   PO234910  27.940  20.350   7.060
 1455BOLB   GL334911  27.820  20.790   7.070
 1455BOLB   GL434912  27.690  20.880   6.740
 1455BOLB   C1C34913  27.410  21.010   7.140
 1455BOLB   C2C34914  27.080  21.050   7.420
 1455BOLB   C3C34915  26.720  21.020   7.770
 1455BOLB   C4C34916  26.670  21.090   8.300
 1455BOLB   C1D34917  27.410  21.350   6.640
 1455BOLB   C2D34918  27.100  21.650   6.610
 1455BOLB   C3D34919  26.870  21.850   6.810
 1455BOLB   C4D34920  26.810  21.730   7.270
 1456BOLB   NC134921  25.590  21.600  15.150
 1456BOLB   PO134922  25.660  21.320  15.520
 1456BOLB   GL134923  26.100  21.290  15.680
 1456BOLB   GL234924  26.370  21.500  15.580
 1456BOLB   C1A34925  26.370  21.270  16.100
 1456BOLB   C2A34926  26.740  21.180  16.310
 1456BOLB   C3A34927  27.200  21.080  16.390
 1456BOLB   C4A34928  27.580  21.160  16.230
 1456BOLB   C1B34929  26.800  21.440  15.870
 1456BOLB   C2B34930  27.250  21.480  15.720
 1456BOLB   C3B34931  27.560  21.090  15.730
 1456BOLB   C4B34932  27.940  21.130  15.650
 1456BOLB   NC234933  29.760  20.600  16.680
 1456BOLB   PO234934  29.740  20.940  16.810
 1456BOLB   GL334935  29.410  21.050  16.850
 1456BOLB   GL434936  29.350  21.120  16.480
 1456BOLB   C1C34937  29.010  21.020  16.790
 1456BOLB   C2C34938  28.640  21.260  16.600
 1456BOLB   C3C34939  28.330  21.440  16.380
 1456BOLB   C4C34940  27.970  21.270  16.360
 1456BOLB   C1D34941  29.070  21.340  16.300
 1456BOLB   C2D34942  28.770  21.610  16.140
 1456BOLB   C3D34943  28.670  22.010  16.220
 1456BOLB   C4D34944  28.420  22.300  16.360
 1457BOLB   NC134945  15.340  22.720   5.820
 1457BOLB   PO134946  15.470  22.340   5.790
 1457BOLB   GL134947  15.110  22.570   5.390
 1457BOLB   GL234948  14.910  22.390   5.300
 1457BOLB   C1A34949  14.970  23.030   5.220
 1457BOLB   C2A34950  14.760  23.140   4.840
 1457BOLB   C3A34951  14.460  23.400   4.600
 1457BOLB   C4A34952  14.060  23.780   4.690
 1457BOLB   C1B34953  14.890  22.610   4.840
 1457BOLB   C2B34954  14.790  22.690   4.480
 1457BOLB   C3B34955  14.690  22.810   4.030
 1457BOLB   C4B34956  14.630  22.680   3.640
 1457BOLB   NC234957  13.310  24.460   2.510
 1457BOLB   PO234958  13.570  24.700   2.260
 1457BOLB   GL334959  13.780  24.530   2.670
 1457BOLB   GL434960  13.750  24.240   2.760
 1457BOLB   C1C34961  13.890  24.570   3.140
 1457BOLB   C2C34962  13.950  24.540   3.670
 1457BOLB   C3C34963  14.020  24.360   4.110
 1457BOLB   C4C34964  14.090  24.200   4.550
 1457BOLB   C1D34965  13.870  24.080   3.210
 1457BOLB   C2D34966  14.060  24.050   3.590
 1457BOLB   C3D34967  14.220  23.710   3.710
 1457BOLB   C4D34968  14.370  23.370   3.970
 1458BOLB   NC134969  17.900  29.040   8.980
 1458BOLB   PO134970  18.100  29.190   9.270
 1458BOLB   GL134971  18.100  29.530   8.990
 1458BOLB   GL234972  18.240  29.550   8.830
 1458BOLB   C1A34973  17.820  29.660   8.630
 1458BOLB   C2A34974  17.480  30.020   8.630
 1458BOLB   C3A34975  17.320  30.320   8.890
 1458BOLB   C4A34976  17.080  30.620   8.830
 1458BOLB   C1B34977  18.210  30.000   8.530
 1458BOLB   C2B34978  18.460  30.270   8.300
 1458BOLB   C3B34979  18.820  30.370   8.230
 1458BOLB   C4B34980  19.140  30.330   8.440
 1458BOLB   NC234981  16.920  32.470   7.250
 1458BOLB   PO234982  16.660  32.240   7.530
 1458BOLB   GL334983  16.700  31.880   7.630
 1458BOLB   GL434984  16.470  31.710   7.510
 1458BOLB   C1C34985  17.050  31.760   7.910
 1458BOLB   C2C34986  17.170  31.640   8.290
 1458BOLB   C3C34987  17.450  31.400   8.530
 1458BOLB   C4C34988  17.300  30.940   8.700
 1458BOLB   C1D34989  16.660  31.380   7.630
 1458BOLB   C2D34990  16.850  30.940   7.740
 1458BOLB   C3D34991  16.860  30.570   7.890
 1458BOLB   C4D34992  17.020  30.140   7.850
 1459BOLB   NC134993  15.760  24.800   7.530
 1459BOLB   PO134994  15.440  25.070   7.220
 1459BOLB   GL134995  15.440  25.570   7.030
 1459BOLB   GL234996  15.270  25.510   6.870
 1459BOLB   C1A34997  15.540  25.940   6.860
 1459BOLB   C2A34998  15.410  26.180   6.470
 1459BOLB   C3A34999  15.280  26.140   6.000
 1459BOLB   C4A35000  15.120  26.320   5.590
 1459BOLB   C1B35001  15.080  25.830   6.540
 1459BOLB   C2B35002  14.680  26.120   6.280
 1459BOLB   C3B35003  14.420  26.290   6.070
 1459BOLB   C4B35004  14.670  26.570   5.830
 1459BOLB   NC235005  13.800  27.390   4.010
 1459BOLB   PO235006  14.040  27.220   3.690
 1459BOLB   GL335007  14.320  26.870   3.770
 1459BOLB   GL435008  14.190  26.640   3.580
 1459BOLB   C1C35009  14.390  26.720   4.040
 1459BOLB   C2C35010  14.710  26.740   4.380
 1459BOLB   C3C35011  14.900  26.500   4.810
 1459BOLB   C4C35012  15.140  26.480   5.200
 1459BOLB   C1D35013  14.410  26.290   3.790
 1459BOLB   C2D35014  14.560  25.910   3.970
 1459BOLB   C3D35015  14.870  25.830   4.180
 1459BOLB   C4D35016  15.190  25.850   3.880
 1460BOLB   NC135017  24.040  26.570   9.030
 1460BOLB   PO135018  24.250  26.350   9.500
 1460BOLB   GL135019  24.440  26.650   9.320
 1460BOLB   GL235020  24.770  26.680   9.440
 1460BOLB   C1A35021  24.540  27.020   8.930
 1460BOLB   C2A35022  24.260  27.330   8.660
 1460BOLB   C3A35023  24.310  27.390   8.180
 1460BOLB   C4A35024  24.320  27.680   7.860
 1460BOLB   C1B35025  24.950  27.040   9.190
 1460BOLB   C2B35026  25.070  27.250   8.820
 1460BOLB   C3B35027  25.160  27.520   8.460
 1460BOLB   C4B35028  25.310  27.870   8.310
 1460BOLB   NC235029  24.530  28.490   5.350
 1460BOLB   PO235030  24.620  28.930   5.680
 1460BOLB   GL335031  24.450  28.560   5.940
 1460BOLB   GL435032  24.250  28.560   5.820
 1460BOLB   C1C35033  24.280  28.180   6.190
 1460BOLB   C2C35034  24.150  27.900   6.470
 1460BOLB   C3C35035  24.300  27.920   6.940
 1460BOLB   C4C35036  24.310  27.910   7.350
 1460BOLB   C1D35037  23.950  28.240   5.840
 1460BOLB   C2D35038  23.560  28.020   6.060
 1460BOLB   C3D35039  23.350  27.800   6.270
 1460BOLB   C4D35040  23.020  27.500   6.120
 1461BOLB   NC135041  14.780  28.300  11.000
 1461BOLB   PO135042  14.950  28.710  10.900
 1461BOLB   GL135043  14.670  29.040  10.960
 1461BOLB   GL235044  14.690  29.340  10.750
 1461BOLB   C1A35045  14.440  29.160  11.220
 1461BOLB   C2A35046  14.190  29.570  11.180
 1461BOLB   C3A35047  13.940  29.810  10.900
 1461BOLB   C4A35048  13.890  30.170  10.550
 1461BOLB   C1B35049  14.410  29.630  10.750
 1461BOLB   C2B35050  14.370  30.000  10.680
 1461BOLB   C3B35051  14.350  30.410  10.720
 1461BOLB   C4B35052  14.670  30.730  10.710
 1461BOLB   NC235053  13.690  32.810  11.130
 1461BOLB   PO235054  13.500  32.470  11.290
 1461BOLB   GL335055  13.780  32.070  11.220
 1461BOLB   GL435056  14.070  32.060  11.050
 1461BOLB   C1C35057  13.870  31.610  11.170
 1461BOLB   C2C35058  14.010  31.240  10.940
 1461BOLB   C3C35059  14.080  30.890  10.730
 1461BOLB   C4C35060  13.920  30.570  10.410
 1461BOLB   C1D35061  14.370  31.630  10.980
 1461BOLB   C2D35062  14.780  31.590  11.210
 1461BOLB   C3D35063  15.220  31.570  11.500
 1461BOLB   C4D35064  15.520  31.800  11.440
 1462BOLB   NC135065  17.120  19.800   5.010
 1462BOLB   PO135066  17.050  19.640   4.600
 1462BOLB   GL135067  16.920  19.710   4.090
 1462BOLB   GL235068  17.260  19.890   4.030
 1462BOLB   C1A35069  16.830  19.940   3.800
 1462BOLB   C2A35070  16.860  20.020   3.380
 1462BOLB   C3A35071  16.940  20.330   2.910
 1462BOLB   C4A35072  16.890  20.530   2.540
 1462BOLB   C1B35073  17.270  19.900   3.620
 1462BOLB   C2B35074  17.360  19.790   3.270
 1462BOLB   C3B35075  17.540  19.530   2.980
 1462BOLB   C4B35076  17.700  19.130   2.640
 1462BOLB   NC235077  17.420  21.110   0.460
 1462BOLB   PO235078  17.280  21.530   0.620
 1462BOLB   GL335079  17.060  21.680   1.050
 1462BOLB   GL435080  16.840  21.990   0.950
 1462BOLB   C1C35081  17.000  21.560   1.440
 1462BOLB   C2C35082  16.800  21.210   1.660
 1462BOLB   C3C35083  16.930  21.070   2.100
 1462BOLB   C4C35084  16.750  20.950   2.470
 1462BOLB   C1D35085  16.540  21.860   1.260
 1462BOLB   C2D35086  16.380  21.440   1.490
 1462BOLB   C3D35087  16.260  21.130   1.280
 1462BOLB   C4D35088  16.150  20.600   1.310
 1463BOLB   NC135089  19.020  14.950   1.640
 1463BOLB   PO135090  19.050  14.940   2.060
 1463BOLB   GL135091  18.860  15.310   2.150
 1463BOLB   GL235092  19.150  15.410   2.390
 1463BOLB   C1A35093  18.600  15.360   2.480
 1463BOLB   C2A35094  18.450  15.550   2.800
 1463BOLB   C3A35095  18.300  15.230   3.210
 1463BOLB   C4A35096  18.270  15.370   3.600
 1463BOLB   C1B35097  19.290  15.890   2.650
 1463BOLB   C2B35098  19.550  16.250   2.760
 1463BOLB   C3B35099  19.700  16.620   3.090
 1463BOLB   C4B35100  19.680  16.870   3.480
 1463BOLB   NC235101  17.890  16.420   5.380
 1463BOLB   PO235102  17.430  16.520   5.310
 1463BOLB   GL335103  17.630  16.500   4.950
 1463BOLB   GL435104  17.410  16.770   4.760
 1463BOLB   C1C35105  17.800  16.250   4.710
 1463BOLB   C2C35106  17.970  15.850   4.480
 1463BOLB   C3C35107  18.020  15.440   4.300
 1463BOLB   C4C35108  17.980  15.360   3.890
 1463BOLB   C1D35109  17.690  16.700   4.490
 1463BOLB   C2D35110  17.990  16.490   4.230
 1463BOLB   C3D35111  18.050  16.110   4.070
 1463BOLB   C4D35112  18.360  16.010   3.760
 1464BOLB   NC135113  21.910  22.030   6.390
 1464BOLB   PO135114  21.580  21.740   6.340
 1464BOLB   GL135115  21.770  21.750   5.950
 1464BOLB   GL235116  21.560  22.010   5.840
 1464BOLB   C1A35117  21.640  21.620   5.540
 1464BOLB   C2A35118  21.870  21.730   5.150
 1464BOLB   C3A35119  22.050  21.920   4.830
 1464BOLB   C4A35120  22.240  21.840   4.400
 1464BOLB   C1B35121  21.700  22.080   5.500
 1464BOLB   C2B35122  21.700  22.270   5.050
 1464BOLB   C3B35123  22.060  22.520   4.760
 1464BOLB   C4B35124  22.420  22.460   4.460
 1464BOLB   NC235125  23.760  21.340   2.030
 1464BOLB   PO235126  23.620  21.540   2.370
 1464BOLB   GL335127  23.320  21.530   2.660
 1464BOLB   GL435128  23.340  21.170   2.620
 1464BOLB   C1C35129  23.150  21.700   3.090
 1464BOLB   C2C35130  22.840  21.690   3.340
 1464BOLB   C3C35131  22.370  21.760   3.430
 1464BOLB   C4C35132  22.190  21.880   3.840
 1464BOLB   C1D35133  23.230  21.170   3.030
 1464BOLB   C2D35134  23.060  21.080   3.470
 1464BOLB   C3D35135  22.660  21.260   3.500
 1464BOLB   C4D35136  22.510  21.440   3.040
 1465BOLB   NC135137  23.080  19.080   9.150
 1465BOLB   PO135138  23.490  18.920   9.000
 1465BOLB   GL135139  23.700  18.650   8.810
 1465BOLB   GL235140  23.700  18.600   8.480
 1465BOLB   C1A35141  24.100  18.400   8.820
 1465BOLB   C2A35142  24.530  18.450   8.680
 1465BOLB   C3A35143  24.990  18.450   8.640
 1465BOLB   C4A35144  25.540  18.490   8.730
 1465BOLB   C1B35145  23.950  18.360   8.260
 1465BOLB   C2B35146  24.090  17.980   8.010
 1465BOLB   C3B35147  24.470  17.730   8.050
 1465BOLB   C4B35148  24.620  17.270   8.240
 1465BOLB   NC235149  27.800  18.200   7.220
 1465BOLB   PO235150  27.520  18.560   7.300
 1465BOLB   GL335151  27.120  18.580   7.420
 1465BOLB   GL435152  26.930  18.400   7.700
 1465BOLB   C1C35153  26.840  18.860   7.590
 1465BOLB   C2C35154  26.540  18.660   7.840
 1465BOLB   C3C35155  26.080  18.650   8.060
 1465BOLB   C4C35156  25.860  18.620   8.490
 1465BOLB   C1D35157  26.750  18.080   8.030
 1465BOLB   C2D35158  26.310  18.230   8.250
 1465BOLB   C3D35159  26.060  18.180   8.530
 1465BOLB   C4D35160  25.830  18.060   8.900
 1466BOLB   NC135161  25.160  22.650   9.730
 1466BOLB   PO135162  25.200  22.210   9.580
 1466BOLB   GL135163  25.210  22.040   9.140
 1466BOLB   GL235164  25.560  22.180   9.110
 1466BOLB   C1A35165  25.430  21.800   8.750
 1466BOLB   C2A35166  25.720  21.730   8.440
 1466BOLB   C3A35167  26.010  21.870   8.100
 1466BOLB   C4A35168  26.540  21.960   8.170
 1466BOLB   C1B35169  25.900  21.980   8.910
 1466BOLB   C2B35170  26.200  22.170   8.580
 1466BOLB   C3B35171  26.350  22.420   8.290
 1466BOLB   C4B35172  26.560  22.750   8.310
 1466BOLB   NC235173  28.490  22.260   7.250
 1466BOLB   PO235174  28.570  22.550   7.570
 1466BOLB   GL335175  28.220  22.630   7.620
 1466BOLB   GL435176  28.100  22.510   7.360
 1466BOLB   C1C35177  27.760  22.470   7.780
 1466BOLB   C2C35178  27.520  22.600   8.020
 1466BOLB   C3C35179  27.070  22.590   8.020
 1466BOLB   C4C35180  26.820  22.250   8.140
 1466BOLB   C1D35181  27.820  22.690   7.320
 1466BOLB   C2D35182  27.460  22.870   7.550
 1466BOLB   C3D35183  27.070  23.090   7.530
 1466BOLB   C4D35184  26.750  23.380   7.630
 1467BOLB   NC135185  22.930  20.340   8.390
 1467BOLB   PO135186  23.330  20.190   8.280
 1467BOLB   GL135187  23.840  20.280   8.200
 1467BOLB   GL235188  23.940  20.280   7.850
 1467BOLB   C1A35189  24.110  19.980   8.210
 1467BOLB   C2A35190  24.400  19.900   7.910
 1467BOLB   C3A35191  24.450  19.410   7.770
 1467BOLB   C4A35192  24.810  19.170   7.620
 1467BOLB   C1B35193  24.000  20.100   7.370
 1467BOLB   C2B35194  24.270  19.750   7.200
 1467BOLB   C3B35195  24.430  19.370   7.100
 1467BOLB   C4B35196  24.400  19.060   6.780
 1467BOLB   NC235197  26.570  18.080   6.350
 1467BOLB   PO235198  26.230  17.660   6.390
 1467BOLB   GL335199  26.080  18.020   6.580
 1467BOLB   GL435200  26.190  18.290   6.650
 1467BOLB   C1C35201  25.740  18.410   6.760
 1467BOLB   C2C35202  25.570  18.440   7.180
 1467BOLB   C3C35203  25.220  18.550   7.400
 1467BOLB   C4C35204  24.940  18.680   7.710
 1467BOLB   C1D35205  26.150  18.270   7.040
 1467BOLB   C2D35206  25.930  18.170   7.380
 1467BOLB   C3D35207  25.470  18.170   7.640
 1467BOLB   C4D35208  25.020  18.130   7.710
 1468BOLB   NC135209  20.430  17.240   7.150
 1468BOLB   PO135210  20.910  17.070   7.190
 1468BOLB   GL135211  20.880  16.980   6.780
 1468BOLB   GL235212  21.230  17.030   6.680
 1468BOLB   C1A35213  20.760  16.710   6.440
 1468BOLB   C2A35214  20.720  16.470   6.110
 1468BOLB   C3A35215  21.020  16.360   5.700
 1468BOLB   C4A35216  21.100  16.180   5.350
 1468BOLB   C1B35217  21.620  17.090   6.580
 1468BOLB   C2B35218  22.070  17.110   6.580
 1468BOLB   C3B35219  22.470  16.920   6.470
 1468BOLB   C4B35220  22.650  16.530   6.370
 1468BOLB   NC235221  22.920  15.740   3.560
 1468BOLB   PO235222  22.550  15.820   3.500
 1468BOLB   GL335223  22.220  15.760   3.790
 1468BOLB   GL435224  22.120  15.420   3.650
 1468BOLB   C1C35225  21.850  15.670   4.050
 1468BOLB   C2C35226  21.500  15.670   4.430
 1468BOLB   C3C35227  21.310  15.690   4.840
 1468BOLB   C4C35228  21.280  15.870   5.200
 1468BOLB   C1D35229  22.160  15.300   4.160
 1468BOLB   C2D35230  21.860  15.350   4.530
 1468BOLB   C3D35231  21.570  15.180   4.760
 1468BOLB   C4D35232  21.250  15.350   5.140
 1469BOLB   NC135233  22.540  25.470   7.420
 1469BOLB   PO135234  22.960  25.730   7.450
 1469BOLB   GL135235  23.260  25.820   7.250
 1469BOLB   GL235236  23.210  26.140   7.230
 1469BOLB   C1A35237  23.570  25.990   6.880
 1469BOLB   C2A35238  23.540  26.240   6.490
 1469BOLB   C3A35239  23.490  26.090   6.090
 1469BOLB   C4A35240  23.790  26.140   5.760
 1469BOLB   C1B35241  23.230  26.520   7.170
 1469BOLB   C2B35242  23.630  26.670   7.090
 1469BOLB   C3B35243  23.760  27.120   7.040
 1469BOLB   C4B35244  24.030  27.360   6.790
 1469BOLB   NC235245  25.120  26.320   3.370
 1469BOLB   PO235246  25.060  26.020   3.810
 1469BOLB   GL335247  24.760  26.080   4.090
 1469BOLB   GL435248  24.730  25.830   4.280
 1469BOLB   C1C35249  24.690  26.290   4.440
 1469BOLB   C2C35250  24.600  26.250   4.800
 1469BOLB   C3C35251  24.270  26.140   5.100
 1469BOLB   C4C35252  24.070  26.080   5.460
 1469BOLB   C1D35253  24.420  25.530   4.160
 1469BOLB   C2D35254  24.160  25.200   4.270
 1469BOLB   C3D35255  23.860  24.920   4.470
 1469BOLB   C4D35256  23.980  24.690   4.870
 1470BOLB   NC135257  17.940  24.230   5.720
 1470BOLB   PO135258  18.230  23.940   5.590
 1470BOLB   GL135259  18.070  23.830   5.140
 1470BOLB   GL235260  18.180  24.170   5.030
 1470BOLB   C1A35261  17.810  23.710   4.770
 1470BOLB   C2A35262  17.600  23.800   4.430
 1470BOLB   C3A35263  17.660  23.700   3.980
 1470BOLB   C4A35264  17.910  23.690   3.730
 1470BOLB   C1B35265  18.470  24.610   4.920
 1470BOLB   C2B35266  18.680  24.970   4.700
 1470BOLB   C3B35267  18.860  25.240   4.310
 1470BOLB   C4B35268  19.150  25.410   4.120
 1470BOLB   NC235269  17.910  24.950   1.620
 1470BOLB   PO235270  18.120  24.630   1.570
 1470BOLB   GL335271  17.940  24.530   1.960
 1470BOLB   GL435272  17.680  24.810   2.090
 1470BOLB   C1C35273  18.140  24.510   2.310
 1470BOLB   C2C35274  18.010  24.370   2.790
 1470BOLB   C3C35275  18.160  24.320   3.170
 1470BOLB   C4C35276  18.040  24.060   3.560
 1470BOLB   C1D35277  17.450  24.700   2.390
 1470BOLB   C2D35278  17.470  24.460   2.750
 1470BOLB   C3D35279  17.600  24.200   3.160
 1470BOLB   C4D35280  17.790  23.810   3.200
 1471BOLB   NC135281  24.920  24.370  10.340
 1471BOLB   PO135282  25.100  24.570  10.000
 1471BOLB   GL135283  25.450  24.970  10.020
 1471BOLB   GL235284  25.620  25.150  10.320
 1471BOLB   C1A35285  25.960  25.020  10.030
 1471BOLB   C2A35286  26.370  25.140   9.930
 1471BOLB   C3A35287  26.840  25.040   9.950
 1471BOLB   C4A35288  27.120  25.430  10.100
 1471BOLB   C1B35289  25.980  25.470  10.320
 1471BOLB   C2B35290  26.250  25.680  10.080
 1471BOLB   C3B35291  26.550  25.720   9.850
 1471BOLB   C4B35292  26.900  25.670   9.690
 1471BOLB   NC235293  28.920  26.690   9.220
 1471BOLB   PO235294  28.680  26.960   9.110
 1471BOLB   GL335295  28.330  26.810   9.210
 1471BOLB   GL435296  28.220  27.160   9.110
 1471BOLB   C1C35297  28.070  26.580   9.370
 1471BOLB   C2C35298  27.930  26.320   9.640
 1471BOLB   C3C35299  27.600  26.090   9.770
 1471BOLB   C4C35300  27.360  25.780   9.950
 1471BOLB   C1D35301  27.880  26.850   8.930
 1471BOLB   C2D35302  27.510  26.670   8.840
 1471BOLB   C3D35303  27.280  26.330   8.780
 1471BOLB   C4D35304  26.960  26.090   9.040
 1472BOLB   NC135305  21.060  29.490  12.270
 1472BOLB   PO135306  21.320  29.700  11.910
 1472BOLB   GL135307  21.480  30.100  12.030
 1472BOLB   GL235308  21.760  30.170  12.280
 1472BOLB   C1A35309  21.820  30.270  11.740
 1472BOLB   C2A35310  21.970  30.630  11.660
 1472BOLB   C3A35311  22.160  30.940  11.300
 1472BOLB   C4A35312  22.230  31.350  11.150
 1472BOLB   C1B35313  21.660  30.590  12.110
 1472BOLB   C2B35314  21.820  31.010  11.980
 1472BOLB   C3B35315  21.950  31.260  11.620
 1472BOLB   C4B35316  22.090  31.580  11.530
 1472BOLB   NC235317  22.430  33.870  10.190
 1472BOLB   PO235318  22.340  33.390  10.230
 1472BOLB   GL335319  22.360  33.010  10.300
 1472BOLB   GL435320  22.230  33.050  10.660
 1472BOLB   C1C35321  22.680  32.670  10.530
 1472BOLB   C2C35322  22.880  32.390  10.700
 1472BOLB   C3C35323  22.710  31.970  10.880
 1472BOLB   C4C35324  22.420  31.680  11.120
 1472BOLB   C1D35325  21.950  32.640  10.400
 1472BOLB   C2D35326  21.910  32.160  10.280
 1472BOLB   C3D35327  21.920  31.740  10.390
 1472BOLB   C4D35328  22.060  31.350  10.270
 1473BOLB   NC135329   9.220  27.690   6.370
 1473BOLB   PO135330   9.510  27.570   6.820
 1473BOLB   GL135331   9.800  27.540   7.170
 1473BOLB   GL235332   9.900  27.850   7.300
 1473BOLB   C1A35333  10.020  27.400   7.600
 1473BOLB   C2A35334   9.990  27.080   7.880
 1473BOLB   C3A35335   9.870  26.870   8.270
 1473BOLB   C4A35336   9.750  26.560   8.580
 1473BOLB   C1B35337  10.170  27.930   7.690
 1473BOLB   C2B35338  10.510  28.080   8.060
 1473BOLB   C3B35339  10.890  28.030   8.190
 1473BOLB   C4B35340  11.360  28.000   8.260
 1473BOLB   NC235341   8.270  27.760   9.010
 1473BOLB   PO235342   8.020  27.630   8.650
 1473BOLB   GL335343   8.100  27.170   8.900
 1473BOLB   GL435344   8.370  27.330   9.190
 1473BOLB   C1C35345   8.340  26.930   8.870
 1473BOLB   C2C35346   8.650  26.660   8.850
 1473BOLB   C3C35347   8.910  26.340   8.890
 1473BOLB   C4C35348   9.380  26.420   8.790
 1473BOLB   C1D35349   8.490  27.270   9.640
 1473BOLB   C2D35350   8.850  27.310   9.910
 1473BOLB   C3D35351   9.340  27.360   9.880
 1473BOLB   C4D35352   9.570  27.080   9.920
 1474BOLB   NC135353  16.720  13.250   8.770
 1474BOLB   PO135354  16.400  13.100   8.560
 1474BOLB   GL135355  16.420  12.910   8.170
 1474BOLB   GL235356  16.170  12.590   8.190
 1474BOLB   C1A35357  16.640  12.640   7.900
 1474BOLB   C2A35358  16.700  12.230   7.640
 1474BOLB   C3A35359  16.850  12.140   7.280
 1474BOLB   C4A35360  17.250  12.280   7.020
 1474BOLB   C1B35361  16.300  12.160   8.090
 1474BOLB   C2B35362  16.250  11.750   7.810
 1474BOLB   C3B35363  16.450  11.380   7.590
 1474BOLB   C4B35364  16.680  10.990   7.540
 1474BOLB   NC235365  18.150  10.650   5.600
 1474BOLB   PO235366  18.320  11.060   5.350
 1474BOLB   GL335367  18.140  11.160   5.720
 1474BOLB   GL435368  17.870  11.100   5.690
 1474BOLB   C1C35369  18.130  11.510   5.990
 1474BOLB   C2C35370  17.880  11.760   6.270
 1474BOLB   C3C35371  17.710  12.110   6.340
 1474BOLB   C4C35372  17.540  12.140   6.750
 1474BOLB   C1D35373  17.760  11.210   6.170
 1474BOLB   C2D35374  17.390  11.220   6.440
 1474BOLB   C3D35375  17.200  11.360   6.710
 1474BOLB   C4D35376  16.950  11.740   6.910
 1475BOLB   NC135377  14.850  23.360   6.090
 1475BOLB   PO135378  14.410  23.330   6.170
 1475BOLB   GL135379  14.140  23.280   5.800
 1475BOLB   GL235380  13.910  23.180   5.580
 1475BOLB   C1A35381  14.010  23.640   5.490
 1475BOLB   C2A35382  13.840  23.460   5.150
 1475BOLB   C3A35383  13.660  23.370   4.700
 1475BOLB   C4A35384  13.520  23.370   4.280
 1475BOLB   C1B35385  13.540  23.150   5.340
 1475BOLB   C2B35386  13.370  22.850   5.010
 1475BOLB   C3B35387  13.050  22.800   4.840
 1475BOLB   C4B35388  12.660  22.880   4.770
 1475BOLB   NC235389  11.730  24.210   2.780
 1475BOLB   PO235390  12.080  24.270   2.570
 1475BOLB   GL335391  12.370  24.050   2.900
 1475BOLB   GL435392  12.730  23.910   2.900
 1475BOLB   C1C35393  12.450  24.010   3.310
 1475BOLB   C2C35394  12.660  23.920   3.620
 1475BOLB   C3C35395  13.080  23.840   3.810
 1475BOLB   C4C35396  13.280  23.690   4.190
 1475BOLB   C1D35397  12.970  23.710   3.310
 1475BOLB   C2D35398  12.870  23.380   3.670
 1475BOLB   C3D35399  12.790  23.540   4.070
 1475BOLB   C4D35400  12.710  23.610   4.540
 1476BOLB   NC135401  23.740  27.850   9.740
 1476BOLB   PO135402  23.640  27.840   9.340
 1476BOLB   GL135403  23.990  28.010   9.370
 1476BOLB   GL235404  24.020  28.300   9.200
 1476BOLB   C1A35405  24.220  27.930   8.950
 1476BOLB   C2A35406  24.430  27.920   8.610
 1476BOLB   C3A35407  24.680  27.850   8.290
 1476BOLB   C4A35408  24.790  27.950   7.920
 1476BOLB   C1B35409  24.290  28.450   8.890
 1476BOLB   C2B35410  24.700  28.670   8.820
 1476BOLB   C3B35411  25.030  28.650   8.650
 1476BOLB   C4B35412  25.590  28.580   8.580
 1476BOLB   NC235413  26.210  28.260   6.160
 1476BOLB   PO235414  25.850  28.430   6.040
 1476BOLB   GL335415  25.780  28.420   6.460
 1476BOLB   GL435416  25.610  28.130   6.390
 1476BOLB   C1C35417  25.640  28.500   6.930
 1476BOLB   C2C35418  25.300  28.590   7.220
 1476BOLB   C3C35419  25.050  28.640   7.520
 1476BOLB   C4C35420  24.750  28.440   7.740
 1476BOLB   C1D35421  25.630  27.990   6.820
 1476BOLB   C2D35422  25.520  28.140   7.200
 1476BOLB   C3D35423  25.060  28.170   7.320
 1476BOLB   C4D35424  24.790  28.080   7.430
 1477BOLB   NC135425  21.780  25.150   6.860
 1477BOLB   PO135426  21.340  25.380   6.710
 1477BOLB   GL135427  21.480  25.730   6.510
 1477BOLB   GL235428  21.560  26.200   6.590
 1477BOLB   C1A35429  21.500  25.840   6.140
 1477BOLB   C2A35430  21.510  25.990   5.780
 1477BOLB   C3A35431  21.680  26.440   5.630
 1477BOLB   C4A35432  21.790  26.830   5.500
 1477BOLB   C1B35433  21.820  26.180   6.230
 1477BOLB   C2B35434  22.130  26.220   5.880
 1477BOLB   C3B35435  22.230  26.470   5.540
 1477BOLB   C4B35436  22.120  26.660   5.170
 1477BOLB   NC235437  23.560  27.350   3.590
 1477BOLB   PO235438  23.310  27.700   3.720
 1477BOLB   GL335439  23.020  27.660   4.030
 1477BOLB   GL435440  23.110  27.630   4.310
 1477BOLB   C1C35441  22.800  27.260   4.240
 1477BOLB   C2C35442  22.480  27.140   4.590
 1477BOLB   C3C35443  22.120  27.040   4.840
 1477BOLB   C4C35444  21.750  27.030   5.180
 1477BOLB   C1D35445  23.460  27.630   4.550
 1477BOLB   C2D35446  23.740  27.530   4.910
 1477BOLB   C3D35447  24.030  27.160   5.110
 1477BOLB   C4D35448  24.170  26.960   5.490
 1478BOLB   NC135449  21.200  28.810   9.440
 1478BOLB   PO135450  20.960  29.180   9.320
 1478BOLB   GL135451  20.830  29.650   9.210
 1478BOLB   GL235452  20.510  29.670   9.340
 1478BOLB   C1A35453  20.850  30.140   9.030
 1478BOLB   C2A35454  21.040  30.580   9.000
 1478BOLB   C3A35455  21.300  30.650   8.660
 1478BOLB   C4A35456  21.510  30.510   8.360
 1478BOLB   C1B35457  20.370  29.850   8.970
 1478BOLB   C2B35458  20.500  30.040   8.610
 1478BOLB   C3B35459  20.950  30.280   8.510
 1478BOLB   C4B35460  21.110  30.120   8.030
 1478BOLB   NC235461  22.010  31.940   6.340
 1478BOLB   PO235462  22.110  31.880   6.800
 1478BOLB   GL335463  21.890  31.740   7.050
 1478BOLB   GL435464  21.550  31.880   7.150
 1478BOLB   C1C35465  21.940  31.470   7.380
 1478BOLB   C2C35466  21.890  31.180   7.730
 1478BOLB   C3C35467  21.620  30.890   7.760
 1478BOLB   C4C35468  21.530  30.460   7.880
 1478BOLB   C1D35469  21.480  31.580   7.400
 1478BOLB   C2D35470  21.330  31.230   7.410
 1478BOLB   C3D35471  21.100  30.920   7.380
 1478BOLB   C4D35472  20.890  30.650   7.740
 1479BOLB   NC135473  19.640  20.650   5.220
 1479BOLB   PO135474  19.710  20.260   5.320
 1479BOLB   GL135475  19.980  20.120   5.030
 1479BOLB   GL235476  19.790  19.920   4.850
 1479BOLB   C1A35477  20.290  20.070   4.590
 1479BOLB   C2A35478  20.360  20.130   4.180
 1479BOLB   C3A35479  20.130  20.260   3.920
 1479BOLB   C4A35480  20.040  20.450   3.510
 1479BOLB   C1B35481  19.850  20.110   4.360
 1479BOLB   C2B35482  19.700  20.100   3.900
 1479BOLB   C3B35483  19.580  20.460   3.740
 1479BOLB   C4B35484  19.590  20.710   3.450
 1479BOLB   NC235485  21.900  21.020   1.850
 1479BOLB   PO235486  21.540  20.770   1.710
 1479BOLB   GL335487  21.350  20.790   2.090
 1479BOLB   GL435488  21.390  20.670   2.370
 1479BOLB   C1C35489  20.940  20.650   2.300
 1479BOLB   C2C35490  20.420  20.630   2.430
 1479BOLB   C3C35491  20.190  20.770   2.770
 1479BOLB   C4C35492  20.010  20.680   3.120
 1479BOLB   C1D35493  21.470  20.700   2.800
 1479BOLB   C2D35494  21.340  20.640   3.230
 1479BOLB   C3D35495  21.330  20.760   3.600
 1479BOLB   C4D35496  21.430  20.900   3.930
 1480BOLB   NC135497  14.370  28.090  14.570
 1480BOLB   PO135498  13.990  28.040  14.340
 1480BOLB   GL135499  13.510  28.290  14.340
 1480BOLB   GL235500  13.330  28.190  14.010
 1480BOLB   C1A35501  13.420  28.820  14.400
 1480BOLB   C2A35502  13.380  29.230  14.620
 1480BOLB   C3A35503  13.260  29.640  14.730
 1480BOLB   C4A35504  13.340  30.010  14.960
 1480BOLB   C1B35505  13.010  28.490  14.210
 1480BOLB   C2B35506  13.020  29.030  14.110
 1480BOLB   C3B35507  12.870  29.290  13.770
 1480BOLB   C4B35508  12.460  29.410  13.750
 1480BOLB   NC235509  11.840  31.520  16.300
 1480BOLB   PO235510  11.870  31.710  15.850
 1480BOLB   GL335511  11.990  31.320  15.500
 1480BOLB   GL435512  11.760  31.060  15.380
 1480BOLB   C1C35513  12.250  30.970  15.420
 1480BOLB   C2C35514  12.580  30.690  15.400
 1480BOLB   C3C35515  12.900  30.440  15.380
 1480BOLB   C4C35516  13.250  30.290  15.210
 1480BOLB   C1D35517  11.790  30.600  15.490
 1480BOLB   C2D35518  11.860  30.130  15.450
 1480BOLB   C3D35519  12.080  29.720  15.460
 1480BOLB   C4D35520  12.080  29.440  15.460
 1481BOLB   NC135521  15.730  22.040   5.040
 1481BOLB   PO135522  15.380  22.140   5.040
 1481BOLB   GL135523  15.110  22.180   4.860
 1481BOLB   GL235524  15.000  21.810   4.730
 1481BOLB   C1A35525  14.890  22.240   4.450
 1481BOLB   C2A35526  14.960  22.410   4.000
 1481BOLB   C3A35527  15.100  22.770   3.700
 1481BOLB   C4A35528  14.810  23.190   3.690
 1481BOLB   C1B35529  14.710  21.790   4.360
 1481BOLB   C2B35530  14.260  22.010   4.270
 1481BOLB   C3B35531  13.930  21.990   4.050
 1481BOLB   C4B35532  13.580  22.010   3.790
 1481BOLB   NC235533  14.270  25.530   2.910
 1481BOLB   PO235534  14.530  25.430   2.620
 1481BOLB   GL335535  14.330  25.060   2.830
 1481BOLB   GL435536  14.380  25.070   3.140
 1481BOLB   C1C35537  14.360  24.610   2.950
 1481BOLB   C2C35538  14.470  24.190   3.010
 1481BOLB   C3C35539  14.740  23.810   3.060
 1481BOLB   C4C35540  14.560  23.500   3.370
 1481BOLB   C1D35541  14.480  24.840   3.440
 1481BOLB   C2D35542  14.430  24.430   3.720
 1481BOLB   C3D35543  14.440  24.090   3.950
 1481BOLB   C4D35544  14.360  23.770   4.270
 1482BOLB   NC135545  14.850  18.860   5.120
 1482BOLB   PO135546  15.090  18.560   5.110
 1482BOLB   GL135547  15.140  18.720   4.730
 1482BOLB   GL235548  15.450  19.000   4.690
 1482BOLB   C1A35549  14.980  18.630   4.270
 1482BOLB   C2A35550  14.820  18.600   3.930
 1482BOLB   C3A35551  14.630  18.220   3.750
 1482BOLB   C4A35552  14.440  18.210   3.270
 1482BOLB   C1B35553  15.400  18.960   4.270
 1482BOLB   C2B35554  15.180  19.010   3.910
 1482BOLB   C3B35555  14.870  18.920   3.560
 1482BOLB   C4B35556  14.930  18.490   3.430
 1482BOLB   NC235557  12.710  18.380   1.280
 1482BOLB   PO235558  13.080  18.480   1.360
 1482BOLB   GL335559  13.350  18.490   1.710
 1482BOLB   GL435560  13.250  18.200   1.920
 1482BOLB   C1C35561  13.670  18.700   1.780
 1482BOLB   C2C35562  14.020  18.550   2.040
 1482BOLB   C3C35563  14.120  18.490   2.490
 1482BOLB   C4C35564  14.370  18.370   2.830
 1482BOLB   C1D35565  13.470  18.480   2.170
 1482BOLB   C2D35566  13.680  18.760   2.410
 1482BOLB   C3D35567  13.550  18.940   2.780
 1482BOLB   C4D35568  13.670  18.790   3.250
 1483BOLB   NC135569  14.490  25.810   7.390
 1483BOLB   PO135570  14.950  25.650   7.250
 1483BOLB   GL135571  14.930  25.980   6.970
 1483BOLB   GL235572  14.840  26.130   7.150
 1483BOLB   C1A35573  15.000  26.340   6.670
 1483BOLB   C2A35574  15.010  26.520   6.240
 1483BOLB   C3A35575  15.320  26.600   5.890
 1483BOLB   C4A35576  15.540  26.860   5.730
 1483BOLB   C1B35577  14.510  26.330   6.900
 1483BOLB   C2B35578  14.170  26.300   6.830
 1483BOLB   C3B35579  13.940  26.470   6.520
 1483BOLB   C4B35580  14.090  26.660   6.130
 1483BOLB   NC235581  14.280  28.170   4.370
 1483BOLB   PO235582  14.390  28.580   4.520
 1483BOLB   GL335583  14.760  28.330   4.620
 1483BOLB   GL435584  14.840  28.030   4.440
 1483BOLB   C1C35585  15.040  28.120   4.870
 1483BOLB   C2C35586  15.250  27.970   5.190
 1483BOLB   C3C35587  15.250  27.580   5.340
 1483BOLB   C4C35588  15.400  27.220   5.470
 1483BOLB   C1D35589  15.180  27.810   4.550
 1483BOLB   C2D35590  15.210  27.510   4.870
 1483BOLB   C3D35591  15.320  27.110   4.930
 1483BOLB   C4D35592  15.310  26.800   4.680
 1484BOLB   NC135593  18.960  19.320   5.080
 1484BOLB   PO135594  19.100  18.900   5.220
 1484BOLB   GL135595  19.270  18.900   4.860
 1484BOLB   GL235596  19.040  19.000   4.730
 1484BOLB   C1A35597  19.450  19.080   4.470
 1484BOLB   C2A35598  19.830  19.250   4.110
 1484BOLB   C3A35599  19.840  19.370   3.680
 1484BOLB   C4A35600  19.970  19.330   3.200
 1484BOLB   C1B35601  19.010  18.950   4.190
 1484BOLB   C2B35602  18.890  19.020   3.750
 1484BOLB   C3B35603  18.960  18.890   3.370
 1484BOLB   C4B35604  19.190  18.750   2.980
 1484BOLB   NC235605  19.720  19.590   0.720
 1484BOLB   PO235606  19.640  19.230   1.040
 1484BOLB   GL335607  19.580  19.070   1.490
 1484BOLB   GL435608  19.350  18.970   1.470
 1484BOLB   C1C35609  19.870  19.160   1.860
 1484BOLB   C2C35610  20.060  19.230   2.080
 1484BOLB   C3C35611  20.250  19.350   2.380
 1484BOLB   C4C35612  20.220  19.300   2.850
 1484BOLB   C1D35613  19.220  19.130   1.970
 1484BOLB   C2D35614  18.910  19.310   2.240
 1484BOLB   C3D35615  18.550  19.210   2.270
 1484BOLB   C4D35616  18.120  19.050   2.330
 1485BOLB   NC135617  20.330  29.150   9.300
 1485BOLB   PO135618  20.200  29.260   9.750
 1485BOLB   GL135619  20.410  29.790   9.870
 1485BOLB   GL235620  20.690  29.890   9.900
 1485BOLB   C1A35621  20.400  30.300   9.840
 1485BOLB   C2A35622  20.590  30.690   9.840
 1485BOLB   C3A35623  20.420  31.140   9.960
 1485BOLB   C4A35624  20.160  31.440  10.050
 1485BOLB   C1B35625  20.950  30.280   9.980
 1485BOLB   C2B35626  21.130  30.650  10.130
 1485BOLB   C3B35627  21.250  31.000  10.080
 1485BOLB   C4B35628  21.420  31.180   9.770
 1485BOLB   NC235629  21.510  33.480   9.150
 1485BOLB   PO235630  21.080  33.470   9.100
 1485BOLB   GL335631  20.960  33.210   9.420
 1485BOLB   GL435632  21.180  33.260   9.630
 1485BOLB   C1C35633  20.800  32.880   9.580
 1485BOLB   C2C35634  20.460  32.560   9.610
 1485BOLB   C3C35635  20.080  32.290   9.660
 1485BOLB   C4C35636  20.010  31.940  10.010
 1485BOLB   C1D35637  21.290  32.830   9.600
 1485BOLB   C2D35638  21.110  32.520   9.640
 1485BOLB   C3D35639  20.800  32.310   9.890
 1485BOLB   C4D35640  20.430  32.240  10.000
 1486BOLB   NC135641  15.840  23.480   5.640
 1486BOLB   PO135642  15.730  23.060   5.600
 1486BOLB   GL135643  15.480  23.150   5.210
 1486BOLB   GL235644  15.300  23.390   5.420
 1486BOLB   C1A35645  15.250  23.430   4.890
 1486BOLB   C2A35646  14.930  23.730   4.580
 1486BOLB   C3A35647  15.110  23.830   4.260
 1486BOLB   C4A35648  15.600  23.790   3.910
 1486BOLB   C1B35649  15.470  23.740   5.220
 1486BOLB   C2B35650  15.350  23.930   4.800
 1486BOLB   C3B35651  15.220  24.270   4.550
 1486BOLB   C4B35652  14.830  24.570   4.620
 1486BOLB   NC235653  15.770  24.870   1.500
 1486BOLB   PO235654  16.170  24.580   1.590
 1486BOLB   GL335655  16.030  24.370   1.950
 1486BOLB   GL435656  15.690  24.150   2.070
 1486BOLB   C1C35657  16.230  24.180   2.400
 1486BOLB   C2C35658  16.230  24.320   2.850
 1486BOLB   C3C35659  16.080  24.120   3.290
 1486BOLB   C4C35660  15.950  23.800   3.550
 1486BOLB   C1D35661  15.740  24.110   2.520
 1486BOLB   C2D35662  15.980  23.860   2.790
 1486BOLB   C3D35663  16.250  23.650   3.150
 1486BOLB   C4D35664  16.170  23.330   3.300
 1487BOLB   NC135665  16.610  23.170   5.580
 1487BOLB   PO135666  16.250  23.240   5.610
 1487BOLB   GL135667  16.420  23.450   5.220
 1487BOLB   GL235668  16.080  23.610   5.100
 1487BOLB   C1A35669  16.660  23.530   4.750
 1487BOLB   C2A35670  16.460  23.620   4.400
 1487BOLB   C3A35671  16.290  23.640   4.040
 1487BOLB   C4A35672  16.440  23.780   3.600
 1487BOLB   C1B35673  15.900  23.920   4.830
 1487BOLB   C2B35674  16.070  23.910   4.450
 1487BOLB   C3B35675  16.120  24.210   4.110
 1487BOLB   C4B35676  15.910  24.480   3.910
 1487BOLB   NC235677  15.690  25.940   2.520
 1487BOLB   PO235678  16.050  25.760   2.550
 1487BOLB   GL335679  16.300  25.460   2.720
 1487BOLB   GL435680  16.580  25.800   2.800
 1487BOLB   C1C35681  16.440  25.050   2.860
 1487BOLB   C2C35682  16.550  24.720   3.010
 1487BOLB   C3C35683  16.570  24.370   3.190
 1487BOLB   C4C35684  16.650  24.010   3.290
 1487BOLB   C1D35685  16.470  25.650   3.220
 1487BOLB   C2D35686  16.160  25.740   3.500
 1487BOLB   C3D35687  15.990  25.400   3.730
 1487BOLB   C4D35688  16.240  24.980   3.840
 1488BOLB   NC135689  24.880  23.160   9.120
 1488BOLB   PO135690  24.880  23.020   9.610
 1488BOLB   GL135691  25.290  22.940   9.350
 1488BOLB   GL235692  25.540  22.660   9.410
 1488BOLB   C1A35693  25.540  23.080   9.110
 1488BOLB   C2A35694  25.760  23.260   8.900
 1488BOLB   C3A35695  26.210  23.600   8.800
 1488BOLB   C4A35696  26.700  23.730   8.610
 1488BOLB   C1B35697  25.860  22.610   9.130
 1488BOLB   C2B35698  26.140  22.850   8.790
 1488BOLB   C3B35699  26.300  23.160   8.440
 1488BOLB   C4B35700  26.420  23.220   8.050
 1488BOLB   NC235701  29.310  24.390   7.940
 1488BOLB   PO235702  29.080  23.920   7.890
 1488BOLB   GL335703  28.730  23.950   8.310
 1488BOLB   GL435704  28.740  23.960   8.630
 1488BOLB   C1C35705  28.250  23.870   8.140
 1488BOLB   C2C35706  27.860  23.850   8.350
 1488BOLB   C3C35707  27.450  24.010   8.500
 1488BOLB   C4C35708  27.080  23.820   8.400
 1488BOLB   C1D35709  28.540  24.290   8.880
 1488BOLB   C2D35710  28.280  24.420   9.100
 1488BOLB   C3D35711  28.110  24.740   9.400
 1488BOLB   C4D35712  28.080  24.730   9.780
 1489BOLB   NC135713  24.490  23.930   8.810
 1489BOLB   PO135714  24.360  24.360   8.880
 1489BOLB   GL135715  24.700  24.420   8.590
 1489BOLB   GL235716  24.710  24.720   8.480
 1489BOLB   C1A35717  25.090  24.180   8.350
 1489BOLB   C2A35718  25.280  24.160   7.970
 1489BOLB   C3A35719  25.640  24.270   7.780
 1489BOLB   C4A35720  25.980  24.610   7.870
 1489BOLB   C1B35721  24.870  24.500   8.070
 1489BOLB   C2B35722  25.090  24.690   7.640
 1489BOLB   C3B35723  25.230  24.950   7.240
 1489BOLB   C4B35724  25.210  25.060   6.800
 1489BOLB   NC235725  28.380  25.650   6.890
 1489BOLB   PO235726  28.000  25.510   7.100
 1489BOLB   GL335727  27.800  25.270   7.280
 1489BOLB   GL435728  27.700  25.330   7.680
 1489BOLB   C1C35729  27.450  24.870   7.320
 1489BOLB   C2C35730  27.070  24.930   7.180
 1489BOLB   C3C35731  26.620  24.820   7.390
 1489BOLB   C4C35732  26.240  24.780   7.600
 1489BOLB   C1D35733  27.420  25.190   7.890
 1489BOLB   C2D35734  26.980  25.410   8.130
 1489BOLB   C3D35735  26.650  25.360   8.160
 1489BOLB   C4D35736  26.400  25.300   8.450
 1490BOLB   NC135737  19.610  25.050   1.750
 1490BOLB   PO135738  19.840  25.320   1.990
 1490BOLB   GL135739  20.200  25.270   2.240
 1490BOLB   GL235740  20.000  25.120   2.600
 1490BOLB   C1A35741  20.500  25.180   2.630
 1490BOLB   C2A35742  20.560  25.310   3.180
 1490BOLB   C3A35743  20.600  25.200   3.680
 1490BOLB   C4A35744  20.870  25.290   3.930
 1490BOLB   C1B35745  19.630  24.930   2.820
 1490BOLB   C2B35746  19.240  24.620   2.820
 1490BOLB   C3B35747  19.060  24.210   2.770
 1490BOLB   C4B35748  18.740  23.990   2.530
 1490BOLB   NC235749  20.510  26.180   2.200
 1490BOLB   PO235750  20.610  26.590   2.310
 1490BOLB   GL335751  20.360  26.530   2.770
 1490BOLB   GL435752  20.010  26.540   2.930
 1490BOLB   C1C35753  20.440  26.410   3.160
 1490BOLB   C2C35754  20.460  26.260   3.520
 1490BOLB   C3C35755  20.490  26.000   3.960
 1490BOLB   C4C35756  20.870  25.730   3.920
 1490BOLB   C1D35757  20.060  26.650   3.380
 1490BOLB   C2D35758  20.410  26.680   3.760
 1490BOLB   C3D35759  20.240  26.680   4.240
 1490BOLB   C4D35760  20.070  26.520   4.710
 1491BOLB   NC135761  18.630  17.700   5.490
 1491BOLB   PO135762  18.770  17.260   5.510
 1491BOLB   GL135763  18.750  16.950   5.130
 1491BOLB   GL235764  19.030  16.700   5.110
 1491BOLB   C1A35765  18.560  17.050   4.730
 1491BOLB   C2A35766  18.590  17.060   4.350
 1491BOLB   C3A35767  18.840  17.160   4.040
 1491BOLB   C4A35768  19.290  17.070   3.750
 1491BOLB   C1B35769  19.020  16.800   4.660
 1491BOLB   C2B35770  19.120  16.540   4.300
 1491BOLB   C3B35771  19.040  16.220   3.950
 1491BOLB   C4B35772  19.390  16.020   3.800
 1491BOLB   NC235773  20.440  14.950   2.310
 1491BOLB   PO235774  20.030  15.270   2.360
 1491BOLB   GL335775  19.770  15.310   2.690
 1491BOLB   GL435776  19.950  15.160   2.860
 1491BOLB   C1C35777  19.730  15.650   2.900
 1491BOLB   C2C35778  19.480  15.910   3.210
 1491BOLB   C3C35779  19.470  16.330   3.420
 1491BOLB   C4C35780  19.410  16.570   3.790
 1491BOLB   C1D35781  19.660  15.290   3.300
 1491BOLB   C2D35782  19.250  15.420   3.420
 1491BOLB   C3D35783  19.070  15.800   3.420
 1491BOLB   C4D35784  18.860  16.130   3.530
 1492BOLB   NC135785  23.110  20.340   7.380
 1492BOLB   PO135786  22.970  20.810   7.590
 1492BOLB   GL135787  23.250  20.740   7.190
 1492BOLB   GL235788  23.570  20.790   7.150
 1492BOLB   C1A35789  23.330  20.550   6.640
 1492BOLB   C2A35790  23.650  20.670   6.310
 1492BOLB   C3A35791  23.740  20.740   5.890
 1492BOLB   C4A35792  24.030  20.720   5.620
 1492BOLB   C1B35793  23.730  20.400   6.970
 1492BOLB   C2B35794  24.160  20.130   6.860
 1492BOLB   C3B35795  24.560  20.100   6.780
 1492BOLB   C4B35796  24.820  19.760   6.730
 1492BOLB   NC235797  25.110  19.110   3.710
 1492BOLB   PO235798  25.100  18.900   4.190
 1492BOLB   GL335799  25.160  19.350   4.290
 1492BOLB   GL435800  25.190  19.260   4.590
 1492BOLB   C1C35801  24.930  19.690   4.500
 1492BOLB   C2C35802  24.840  19.940   4.860
 1492BOLB   C3C35803  24.700  20.220   5.110
 1492BOLB   C4C35804  24.450  20.440   5.470
 1492BOLB   C1D35805  24.800  19.340   4.830
 1492BOLB   C2D35806  24.450  19.640   5.120
 1492BOLB   C3D35807  24.340  19.980   5.380
 1492BOLB   C4D35808  23.940  20.120   5.550
 1493BOLB   NC135809   6.840  17.830   8.770
 1493BOLB   PO135810   7.270  17.950   8.900
 1493BOLB   GL135811   7.470  18.280   8.770
 1493BOLB   GL235812   7.680  18.160   8.710
 1493BOLB   C1A35813   7.750  18.710   8.960
 1493BOLB   C2A35814   8.110  18.740   9.020
 1493BOLB   C3A35815   8.570  18.870   9.040
 1493BOLB   C4A35816   9.040  18.780   9.120
 1493BOLB   C1B35817   7.850  18.230   9.110
 1493BOLB   C2B35818   8.320  18.260   9.370
 1493BOLB   C3B35819   8.630  18.150   9.730
 1493BOLB   C4B35820   9.080  18.300   9.660
 1493BOLB   NC235821   9.820  20.190   9.800
 1493BOLB   PO235822  10.260  20.290   9.870
 1493BOLB   GL335823  10.240  19.850   9.700
 1493BOLB   GL435824  10.190  19.830   9.360
 1493BOLB   C1C35825  10.170  19.380   9.760
 1493BOLB   C2C35826  10.080  18.930   9.540
 1493BOLB   C3C35827   9.720  18.730   9.440
 1493BOLB   C4C35828   9.400  18.560   9.300
 1493BOLB   C1D35829  10.120  19.370   9.300
 1493BOLB   C2D35830  10.240  18.960   9.060
 1493BOLB   C3D35831  10.270  18.540   8.870
 1493BOLB   C4D35832  10.110  18.060   8.820
 1494BOLB   NC135833  25.440  21.840  14.400
 1494BOLB   PO135834  25.860  21.570  14.570
 1494BOLB   GL135835  26.280  21.290  14.660
 1494BOLB   GL235836  26.320  21.020  14.670
 1494BOLB   C1A35837  26.570  21.340  14.360
 1494BOLB   C2A35838  27.020  21.190  14.340
 1494BOLB   C3A35839  27.370  20.940  14.300
 1494BOLB   C4A35840  27.840  20.800  14.260
 1494BOLB   C1B35841  26.670  21.120  14.890
 1494BOLB   C2B35842  26.870  20.810  15.170
 1494BOLB   C3B35843  26.960  20.680  15.570
 1494BOLB   C4B35844  27.260  20.410  15.760
 1494BOLB   NC235845  29.630  19.700  12.850
 1494BOLB   PO235846  29.800  19.690  13.240
 1494BOLB   GL335847  29.350  19.830  13.240
 1494BOLB   GL435848  29.140  19.540  13.260
 1494BOLB   C1C35849  29.150  20.200  13.420
 1494BOLB   C2C35850  28.780  20.280  13.810
 1494BOLB   C3C35851  28.390  20.320  13.950
 1494BOLB   C4C35852  28.060  20.570  14.040
 1494BOLB   C1D35853  28.890  19.840  13.030
 1494BOLB   C2D35854  28.440  19.710  13.120
 1494BOLB   C3D35855  28.020  19.800  13.200
 1494BOLB   C4D35856  27.490  19.940  13.090
 1495BOLB   NC135857  19.760  17.550   6.000
 1495BOLB   PO135858  19.840  18.070   5.980
 1495BOLB   GL135859  20.120  18.230   5.610
 1495BOLB   GL235860  19.800  18.370   5.540
 1495BOLB   C1A35861  20.300  18.300   5.290
 1495BOLB   C2A35862  20.430  18.130   5.000
 1495BOLB   C3A35863  20.800  17.810   4.840
 1495BOLB   C4A35864  20.810  17.440   4.580
 1495BOLB   C1B35865  19.850  18.080   5.180
 1495BOLB   C2B35866  19.960  17.910   4.700
 1495BOLB   C3B35867  19.920  17.760   4.340
 1495BOLB   C4B35868  20.240  17.520   4.130
 1495BOLB   NC235869  19.970  16.890   1.990
 1495BOLB   PO235870  20.320  16.780   2.260
 1495BOLB   GL335871  20.280  17.020   2.650
 1495BOLB   GL435872  20.020  16.860   2.810
 1495BOLB   C1C35873  20.240  17.050   3.180
 1495BOLB   C2C35874  20.200  17.210   3.570
 1495BOLB   C3C35875  20.510  17.350   3.810
 1495BOLB   C4C35876  20.710  17.220   4.250
 1495BOLB   C1D35877  19.740  17.180   3.060
 1495BOLB   C2D35878  19.580  17.380   3.460
 1495BOLB   C3D35879  19.260  17.650   3.700
 1495BOLB   C4D35880  19.010  18.030   3.600
 1496BOLB   NC135881  24.960  26.260  13.770
 1496BOLB   PO135882  25.350  26.390  13.810
 1496BOLB   GL135883  25.830  26.370  13.720
 1496BOLB   GL235884  25.920  26.620  13.920
 1496BOLB   C1A35885  26.260  26.610  13.490
 1496BOLB   C2A35886  26.710  26.700  13.250
 1496BOLB   C3A35887  27.040  26.830  13.000
 1496BOLB   C4A35888  27.180  27.260  12.910
 1496BOLB   C1B35889  26.220  26.990  13.870
 1496BOLB   C2B35890  26.540  27.110  13.590
 1496BOLB   C3B35891  26.890  27.220  13.440
 1496BOLB   C4B35892  27.200  27.480  13.420
 1496BOLB   NC235893  29.790  27.680  13.410
 1496BOLB   PO235894  29.480  27.780  13.750
 1496BOLB   GL335895  29.010  27.610  13.840
 1496BOLB   GL435896  29.050  27.550  14.040
 1496BOLB   C1C35897  28.690  27.640  13.600
 1496BOLB   C2C35898  28.480  27.590  13.210
 1496BOLB   C3C35899  28.130  27.550  12.970
 1496BOLB   C4C35900  27.680  27.440  13.050
 1496BOLB   C1D35901  28.910  27.180  14.300
 1496BOLB   C2D35902  28.650  26.940  14.080
 1496BOLB   C3D35903  28.180  26.920  13.910
 1496BOLB   C4D35904  27.970  26.600  13.650
 1497BOLB   NC135905  20.320  15.800   7.860
 1497BOLB   PO135906  20.560  16.100   7.790
 1497BOLB   GL135907  20.700  15.780   7.470
 1497BOLB   GL235908  20.590  15.490   7.590
 1497BOLB   C1A35909  21.010  15.580   7.130
 1497BOLB   C2A35910  21.370  15.290   7.080
 1497BOLB   C3A35911  21.670  14.940   6.980
 1497BOLB   C4A35912  22.040  14.810   7.160
 1497BOLB   C1B35913  20.930  15.120   7.360
 1497BOLB   C2B35914  21.080  14.760   7.200
 1497BOLB   C3B35915  21.430  14.510   7.270
 1497BOLB   C4B35916  21.770  14.330   7.260
 1497BOLB   NC235917  23.650  12.580   7.100
 1497BOLB   PO235918  23.730  13.010   7.140
 1497BOLB   GL335919  23.400  13.430   7.040
 1497BOLB   GL435920  23.590  13.710   7.030
 1497BOLB   C1C35921  23.140  13.800   7.240
 1497BOLB   C2C35922  23.100  14.070   7.490
 1497BOLB   C3C35923  22.810  14.400   7.420
 1497BOLB   C4C35924  22.430  14.650   7.280
 1497BOLB   C1D35925  23.500  14.220   7.180
 1497BOLB   C2D35926  23.290  14.580   7.270
 1497BOLB   C3D35927  22.910  14.900   7.190
 1497BOLB   C4D35928  22.890  15.260   7.020
 1498BOLB   NC135929  19.510  28.730   9.220
 1498BOLB   PO135930  19.300  28.460   9.030
 1498BOLB   GL135931  19.330  28.850   8.710
 1498BOLB   GL235932  19.190  28.590   8.530
 1498BOLB   C1A35933  19.330  29.220   8.640
 1498BOLB   C2A35934  19.050  29.430   8.460
 1498BOLB   C3A35935  19.060  29.770   8.180
 1498BOLB   C4A35936  19.200  30.070   7.930
 1498BOLB   C1B35937  19.180  28.910   8.100
 1498BOLB   C2B35938  19.460  28.930   7.690
 1498BOLB   C3B35939  19.710  29.240   7.630
 1498BOLB   C4B35940  19.910  29.620   7.540
 1498BOLB   NC235941  19.650  32.310   6.990
 1498BOLB   PO235942  19.900  32.540   7.320
 1498BOLB   GL335943  19.660  32.150   7.490
 1498BOLB   GL435944  19.880  32.130   7.760
 1498BOLB   C1C35945  19.670  31.740   7.530
 1498BOLB   C2C35946  19.530  31.220   7.680
 1498BOLB   C3C35947  19.420  30.800   7.930
 1498BOLB   C4C35948  19.310  30.400   7.940
 1498BOLB   C1D35949  19.830  31.870   8.100
 1498BOLB   C2D35950  19.660  31.410   8.080
 1498BOLB   C3D35951  19.240  31.230   8.140
 1498BOLB   C4D35952  19.030  30.820   8.200
 1499BOLB   NC135953  11.570  23.580   8.040
 1499BOLB   PO135954  11.480  23.390   7.830
 1499BOLB   GL135955  11.270  23.420   7.350
 1499BOLB   GL235956  11.550  23.390   7.150
 1499BOLB   C1A35957  10.920  23.570   7.070
 1499BOLB   C2A35958  10.920  23.590   6.650
 1499BOLB   C3A35959  10.820  23.700   6.260
 1499BOLB   C4A35960  10.930  23.810   6.010
 1499BOLB   C1B35961  11.450  23.290   6.680
 1499BOLB   C2B35962  11.160  23.200   6.440
 1499BOLB   C3B35963  10.980  23.260   6.070
 1499BOLB   C4B35964  10.790  23.300   5.720
 1499BOLB   NC235965  11.700  25.430   4.020
 1499BOLB   PO235966  11.820  25.030   3.830
 1499BOLB   GL335967  11.830  24.780   4.190
 1499BOLB   GL435968  11.830  24.460   4.060
 1499BOLB   C1C35969  11.670  24.670   4.590
 1499BOLB   C2C35970  11.470  24.400   4.980
 1499BOLB   C3C35971  11.550  24.300   5.380
 1499BOLB   C4C35972  11.250  24.080   5.660
 1499BOLB   C1D35973  12.110  24.100   4.270
 1499BOLB   C2D35974  12.210  23.710   4.520
 1499BOLB   C3D35975  12.250  23.260   4.690
 1499BOLB   C4D35976  12.170  22.940   5.010
 1500BOLB   NC135977  11.350  26.340  12.710
 1500BOLB   PO135978  11.020  26.290  13.070
 1500BOLB   GL135979  10.760  26.610  13.180
 1500BOLB   GL235980  10.560  26.450  13.370
 1500BOLB   C1A35981  10.470  26.920  13.190
 1500BOLB   C2A35982  10.550  27.320  13.290
 1500BOLB   C3A35983  10.490  27.670  13.280
 1500BOLB   C4A35984  10.400  27.940  12.990
 1500BOLB   C1B35985  10.100  26.220  13.330
 1500BOLB   C2B35986   9.650  26.090  13.230
 1500BOLB   C3B35987   9.280  26.140  13.230
 1500BOLB   C4B35988   8.870  26.360  13.110
 1500BOLB   NC235989   9.490  29.900  13.550
 1500BOLB   PO235990   9.260  29.590  13.660
 1500BOLB   GL335991   9.560  29.170  13.650
 1500BOLB   GL435992   9.500  28.950  14.080
 1500BOLB   C1C35993   9.840  28.910  13.320
 1500BOLB   C2C35994  10.090  28.690  12.870
 1500BOLB   C3C35995  10.280  28.430  12.670
 1500BOLB   C4C35996  10.560  28.230  12.780
 1500BOLB   C1D35997   9.520  28.470  14.070
 1500BOLB   C2D35998   9.730  28.030  14.070
 1500BOLB   C3D35999   9.990  27.900  13.840
 1500BOLB   C4D36000  10.050  27.910  13.390
 1501BOLB   NC136001  20.520  26.220   6.830
 1501BOLB   PO136002  20.130  26.080   6.790
 1501BOLB   GL136003  20.220  26.210   6.420
 1501BOLB   GL236004  20.550  26.270   6.280
 1501BOLB   C1A36005  20.170  26.540   6.120
 1501BOLB   C2A36006  19.960  26.780   5.990
 1501BOLB   C3A36007  19.800  27.060   5.700
 1501BOLB   C4A36008  19.870  27.060   5.260
 1501BOLB   C1B36009  20.660  26.540   5.860
 1501BOLB   C2B36010  20.870  26.880   5.570
 1501BOLB   C3B36011  20.980  27.000   5.130
 1501BOLB   C4B36012  21.340  27.310   5.020
 1501BOLB   NC236013  20.460  28.180   3.170
 1501BOLB   PO236014  20.750  28.340   3.440
 1501BOLB   GL336015  20.470  28.170   3.680
 1501BOLB   GL436016  20.570  28.330   3.920
 1501BOLB   C1C36017  20.290  27.820   3.950
 1501BOLB   C2C36018  20.120  27.640   4.280
 1501BOLB   C3C36019  19.970  27.280   4.410
 1501BOLB   C4C36020  19.880  27.060   4.850
 1501BOLB   C1D36021  20.700  28.090   4.320
 1501BOLB   C2D36022  20.790  27.920   4.690
 1501BOLB   C3D36023  20.620  27.790   5.190
 1501BOLB   C4D36024  20.330  27.710   5.500
 1502BOLB   NC136025  19.170  25.660   6.950
 1502BOLB   PO136026  19.300  26.000   6.760
 1502BOLB   GL136027  19.650  26.210   6.610
 1502BOLB   GL236028  19.680  26.160   6.350
 1502BOLB   C1A36029  19.640  26.670   6.370
 1502BOLB   C2A36030  19.550  27.090   6.170
 1502BOLB   C3A36031  19.670  27.490   6.100
 1502BOLB   C4A36032  19.450  27.900   5.890
 1502BOLB   C1B36033  19.630  26.320   6.020
 1502BOLB   C2B36034  19.600  26.590   5.670
 1502BOLB   C3B36035  19.390  26.860   5.370
 1502BOLB   C4B36036  18.980  27.220   5.350
 1502BOLB   NC236037  19.890  29.860   4.360
 1502BOLB   PO236038  19.600  30.000   4.450
 1502BOLB   GL336039  19.630  29.640   4.720
 1502BOLB   GL436040  19.280  29.630   4.560
 1502BOLB   C1C36041  19.510  29.150   4.740
 1502BOLB   C2C36042  19.390  28.900   5.000
 1502BOLB   C3C36043  19.500  28.590   5.320
 1502BOLB   C4C36044  19.320  28.190   5.570
 1502BOLB   C1D36045  19.020  29.290   4.650
 1502BOLB   C2D36046  18.810  28.930   4.810
 1502BOLB   C3D36047  19.000  28.560   5.110
 1502BOLB   C4D36048  18.900  28.210   5.300
 1503BOLB   NC136049  13.610  27.770  14.130
 1503BOLB   PO136050  13.240  27.760  14.260
 1503BOLB   GL136051  13.040  28.060  14.490
 1503BOLB   GL236052  13.110  28.060  14.920
 1503BOLB   C1A36053  12.730  28.300  14.700
 1503BOLB   C2A36054  12.530  28.520  14.900
 1503BOLB   C3A36055  12.540  28.970  14.900
 1503BOLB   C4A36056  12.550  29.320  15.310
 1503BOLB   C1B36057  12.910  28.360  15.210
 1503BOLB   C2B36058  12.920  28.790  15.450
 1503BOLB   C3B36059  12.880  29.020  15.770
 1503BOLB   C4B36060  12.600  29.190  16.120
 1503BOLB   NC236061  11.610  30.510  16.900
 1503BOLB   PO236062  11.910  30.780  16.950
 1503BOLB   GL336063  12.340  30.640  16.870
 1503BOLB   GL436064  12.460  30.700  16.640
 1503BOLB   C1C36065  12.270  30.220  16.710
 1503BOLB   C2C36066  12.280  29.770  16.500
 1503BOLB   C3C36067  12.500  29.740  16.110
 1503BOLB   C4C36068  12.550  29.530  15.700
 1503BOLB   C1D36069  12.450  30.830  16.220
 1503BOLB   C2D36070  12.700  30.690  15.950
 1503BOLB   C3D36071  13.130  30.540  15.890
 1503BOLB   C4D36072  13.190  30.250  16.250
 1504BOLB   NC136073  25.600  23.380  10.070
 1504BOLB   PO136074  25.230  23.180   9.930
 1504BOLB   GL136075  25.670  22.970   9.800
 1504BOLB   GL236076  25.870  22.650   9.860
 1504BOLB   C1A36077  26.000  22.980   9.460
 1504BOLB   C2A36078  26.420  22.810   9.300
 1504BOLB   C3A36079  26.600  22.810   9.000
 1504BOLB   C4A36080  26.990  22.710   8.820
 1504BOLB   C1B36081  26.230  22.550   9.640
 1504BOLB   C2B36082  26.570  22.230   9.500
 1504BOLB   C3B36083  26.760  22.320   9.150
 1504BOLB   C4B36084  26.610  22.340   8.710
 1504BOLB   NC236085  28.490  21.000   7.490
 1504BOLB   PO236086  28.600  21.150   7.960
 1504BOLB   GL336087  28.270  21.390   8.030
 1504BOLB   GL436088  28.150  21.370   8.330
 1504BOLB   C1C36089  27.900  21.710   7.950
 1504BOLB   C2C36090  27.570  21.940   8.190
 1504BOLB   C3C36091  27.340  22.180   8.280
 1504BOLB   C4C36092  27.060  22.510   8.480
 1504BOLB   C1D36093  27.930  21.710   8.460
 1504BOLB   C2D36094  27.580  22.000   8.650
 1504BOLB   C3D36095  27.290  21.940   8.930
 1504BOLB   C4D36096  26.910  21.850   9.080
 1505BOLB   NC136097  19.340  25.780   6.300
 1505BOLB   PO136098  18.950  25.700   6.530
 1505BOLB   GL136099  18.880  25.830   6.180
 1505BOLB   GL236100  18.600  26.130   6.130
 1505BOLB   C1A36101  18.860  25.960   5.730
 1505BOLB   C2A36102  18.820  25.960   5.290
 1505BOLB   C3A36103  19.080  25.880   4.890
 1505BOLB   C4A36104  19.440  26.130   4.660
 1505BOLB   C1B36105  18.300  26.320   5.970
 1505BOLB   C2B36106  18.250  26.590   5.640
 1505BOLB   C3B36107  18.210  26.610   5.130
 1505BOLB   C4B36108  18.100  26.620   4.760
 1505BOLB   NC236109  20.320  27.450   2.750
 1505BOLB   PO236110  20.140  27.910   2.880
 1505BOLB   GL336111  20.240  27.580   3.220
 1505BOLB   GL436112  20.290  27.800   3.400
 1505BOLB   C1C36113  20.140  27.140   3.410
 1505BOLB   C2C36114  19.970  26.940   3.790
 1505BOLB   C3C36115  19.760  26.870   4.230
 1505BOLB   C4C36116  19.620  26.490   4.470
 1505BOLB   C1D36117  19.950  27.510   3.630
 1505BOLB   C2D36118  19.830  27.410   3.940
 1505BOLB   C3D36119  19.490  27.260   4.080
 1505BOLB   C4D36120  19.010  27.280   4.270
 1506BOLB   NC136121  23.810  27.790  10.510
 1506BOLB   PO136122  23.520  27.720  10.140
 1506BOLB   GL136123  23.850  28.130  10.090
 1506BOLB   GL236124  23.750  28.420  10.090
 1506BOLB   C1A36125  24.200  28.500   9.930
 1506BOLB   C2A36126  24.690  28.630   9.880
 1506BOLB   C3A36127  25.090  28.720   9.880
 1506BOLB   C4A36128  25.380  28.630   9.610
 1506BOLB   C1B36129  23.830  28.850  10.080
 1506BOLB   C2B36130  23.920  29.270  10.330
 1506BOLB   C3B36131  24.020  29.630  10.440
 1506BOLB   C4B36132  24.410  30.000  10.490
 1506BOLB   NC236133  27.570  29.560   8.740
 1506BOLB   PO236134  27.370  29.440   9.150
 1506BOLB   GL336135  26.920  29.410   9.120
 1506BOLB   GL436136  26.860  29.520   9.480
 1506BOLB   C1C36137  26.550  29.250   9.220
 1506BOLB   C2C36138  26.260  29.080   9.360
 1506BOLB   C3C36139  25.970  28.940   9.750
 1506BOLB   C4C36140  25.870  28.540   9.750
 1506BOLB   C1D36141  26.650  29.250   9.830
 1506BOLB   C2D36142  26.290  29.090  10.100
 1506BOLB   C3D36143  26.170  28.730  10.440
 1506BOLB   C4D36144  25.970  28.550  10.860
 1507BOLB   NC136145  19.620  23.650   5.660
 1507BOLB   PO136146  19.960  23.960   5.860
 1507BOLB   GL136147  20.240  24.110   5.440
 1507BOLB   GL236148  20.560  24.280   5.480
 1507BOLB   C1A36149  20.390  24.220   4.960
 1507BOLB   C2A36150  20.550  24.450   4.650
 1507BOLB   C3A36151  20.520  24.600   4.200
 1507BOLB   C4A36152  20.330  24.910   3.980
 1507BOLB   C1B36153  20.680  24.600   5.140
 1507BOLB   C2B36154  20.900  24.810   4.750
 1507BOLB   C3B36155  20.940  24.820   4.330
 1507BOLB   C4B36156  20.830  24.730   3.830
 1507BOLB   NC236157  20.070  26.650   2.380
 1507BOLB   PO236158  19.950  26.300   2.080
 1507BOLB   GL336159  19.880  26.200   2.490
 1507BOLB   GL436160  20.140  26.140   2.610
 1507BOLB   C1C36161  19.750  25.900   2.760
 1507BOLB   C2C36162  19.740  25.760   3.170
 1507BOLB   C3C36163  19.850  25.430   3.560
 1507BOLB   C4C36164  19.980  25.160   3.840
 1507BOLB   C1D36165  20.190  25.980   2.970
 1507BOLB   C2D36166  20.260  25.810   3.350
 1507BOLB   C3D36167  20.300  25.580   3.740
 1507BOLB   C4D36168  20.440  25.460   4.110
 1508BOLB   NC136169  27.110  14.780  11.040
 1508BOLB   PO136170  27.300  15.140  10.760
 1508BOLB   GL136171  26.990  15.330  10.820
 1508BOLB   GL236172  26.790  15.140  10.890
 1508BOLB   C1A36173  26.800  15.600  11.100
 1508BOLB   C2A36174  26.680  15.990  11.120
 1508BOLB   C3A36175  26.440  16.260  11.240
 1508BOLB   C4A36176  26.310  16.640  10.990
 1508BOLB   C1B36177  26.510  15.100  11.160
 1508BOLB   C2B36178  26.220  15.090  11.490
 1508BOLB   C3B36179  25.840  15.100  11.700
 1508BOLB   C4B36180  25.580  14.790  11.570
 1508BOLB   NC236181  27.330  15.520   9.960
 1508BOLB   PO236182  27.260  15.600   9.590
 1508BOLB   GL336183  27.180  15.980   9.770
 1508BOLB   GL436184  27.020  15.950  10.070
 1508BOLB   C1C36185  26.690  16.090   9.760
 1508BOLB   C2C36186  26.460  16.380   9.860
 1508BOLB   C3C36187  26.240  16.480  10.170
 1508BOLB   C4C36188  26.210  16.750  10.550
 1508BOLB   C1D36189  26.640  16.110  10.250
 1508BOLB   C2D36190  26.220  16.020  10.290
 1508BOLB   C3D36191  25.920  15.880  10.550
 1508BOLB   C4D36192  25.780  15.700  10.850
 1509BOLB   NC136193  22.620  28.790  10.500
 1509BOLB   PO136194  22.400  28.600  10.130
 1509BOLB   GL136195  22.410  28.770   9.820
 1509BOLB   GL236196  22.140  28.980   9.840
 1509BOLB   C1A36197  22.450  29.060   9.450
 1509BOLB   C2A36198  22.540  29.350   9.090
 1509BOLB   C3A36199  22.780  29.370   8.770
 1509BOLB   C4A36200  23.050  29.690   8.670
 1509BOLB   C1B36201  22.560  29.300   9.890
 1509BOLB   C2B36202  22.710  29.560   9.600
 1509BOLB   C3B36203  22.710  29.820   9.270
 1509BOLB   C4B36204  22.720  30.130   8.880
 1509BOLB   NC236205  24.400  30.750   7.060
 1509BOLB   PO236206  24.030  30.870   6.890
 1509BOLB   GL336207  23.770  30.860   7.250
 1509BOLB   GL436208  23.950  30.780   7.480
 1509BOLB   C1C36209  23.490  30.530   7.520
 1509BOLB   C2C36210  23.290  30.410   8.000
 1509BOLB   C3C36211  23.380  30.180   8.430
 1509BOLB   C4C36212  23.350  29.870   8.740
 1509BOLB   C1D36213  23.750  30.780   7.950
 1509BOLB   C2D36214  23.790  31.060   8.320
 1509BOLB   C3D36215  23.600  31.070   8.690
 1509BOLB   C4D36216  23.790  31.050   9.090
 1510BOLB   NC136217  21.270  19.920   6.300
 1510BOLB   PO136218  21.630  19.570   6.440
 1510BOLB   GL136219  21.970  19.470   6.350
 1510BOLB   GL236220  22.170  19.460   6.540
 1510BOLB   C1A36221  22.180  19.250   5.950
 1510BOLB   C2A36222  22.610  19.130   5.650
 1510BOLB   C3A36223  22.740  18.980   5.250
 1510BOLB   C4A36224  22.620  18.740   4.980
 1510BOLB   C1B36225  22.460  19.220   6.430
 1510BOLB   C2B36226  22.660  18.960   6.190
 1510BOLB   C3B36227  22.870  18.720   5.880
 1510BOLB   C4B36228  23.250  18.730   5.590
 1510BOLB   NC236229  23.410  17.680   2.930
 1510BOLB   PO236230  23.060  17.340   2.820
 1510BOLB   GL336231  22.690  17.530   3.100
 1510BOLB   GL436232  22.920  17.820   3.080
 1510BOLB   C1C36233  22.420  17.770   3.430
 1510BOLB   C2C36234  22.540  17.910   3.880
 1510BOLB   C3C36235  22.590  18.210   4.220
 1510BOLB   C4C36236  22.610  18.450   4.700
 1510BOLB   C1D36237  22.920  17.890   3.550
 1510BOLB   C2D36238  23.020  18.220   3.890
 1510BOLB   C3D36239  23.070  18.100   4.310
 1510BOLB   C4D36240  23.410  18.160   4.550
 1511BOLB   NC136241  16.980  18.400   4.910
 1511BOLB   PO136242  17.310  18.170   4.710
 1511BOLB   GL136243  17.290  18.170   4.310
 1511BOLB   GL236244  17.050  17.960   4.230
 1511BOLB   C1A36245  17.560  18.000   4.110
 1511BOLB   C2A36246  17.560  17.840   3.690
 1511BOLB   C3A36247  17.280  17.580   3.490
 1511BOLB   C4A36248  17.220  17.360   3.100
 1511BOLB   C1B36249  17.080  17.990   3.840
 1511BOLB   C2B36250  17.120  18.020   3.330
 1511BOLB   C3B36251  17.360  18.300   3.080
 1511BOLB   C4B36252  17.700  18.220   2.820
 1511BOLB   NC236253  16.460  16.910   0.760
 1511BOLB   PO236254  16.530  16.520   0.970
 1511BOLB   GL336255  16.780  16.490   1.360
 1511BOLB   GL436256  16.770  16.150   1.520
 1511BOLB   C1C36257  17.130  16.490   1.610
 1511BOLB   C2C36258  17.150  16.620   2.190
 1511BOLB   C3C36259  17.050  16.900   2.450
 1511BOLB   C4C36260  17.160  17.040   2.930
 1511BOLB   C1D36261  16.780  16.360   1.940
 1511BOLB   C2D36262  16.760  16.240   2.360
 1511BOLB   C3D36263  16.860  16.460   2.730
 1511BOLB   C4D36264  17.250  16.430   2.890
 1512BOLB   NC136265  23.130  28.950  12.200
 1512BOLB   PO136266  23.550  28.810  12.050
 1512BOLB   GL136267  23.610  29.250  11.980
 1512BOLB   GL236268  23.820  29.320  11.680
 1512BOLB   C1A36269  23.860  29.610  12.180
 1512BOLB   C2A36270  24.260  29.820  12.320
 1512BOLB   C3A36271  24.640  30.060  12.370
 1512BOLB   C4A36272  25.070  30.140  12.340
 1512BOLB   C1B36273  24.060  29.690  11.730
 1512BOLB   C2B36274  24.180  30.040  11.460
 1512BOLB   C3B36275  24.030  30.370  11.190
 1512BOLB   C4B36276  24.030  30.770  11.230
 1512BOLB   NC236277  27.580  30.470  12.200
 1512BOLB   PO236278  27.480  30.940  12.170
 1512BOLB   GL336279  27.100  30.840  12.290
 1512BOLB   GL436280  27.010  30.710  12.040
 1512BOLB   C1C36281  26.690  30.690  12.400
 1512BOLB   C2C36282  26.190  30.720  12.420
 1512BOLB   C3C36283  25.780  30.550  12.580
 1512BOLB   C4C36284  25.430  30.350  12.470
 1512BOLB   C1D36285  26.670  30.560  11.870
 1512BOLB   C2D36286  26.170  30.400  11.940
 1512BOLB   C3D36287  25.920  30.200  12.240
 1512BOLB   C4D36288  25.960  29.780  12.330
 1513BOLB   NC136289  14.140  14.290   7.670
 1513BOLB   PO136290  14.120  14.370   7.270
 1513BOLB   GL136291  13.640  14.380   7.470
 1513BOLB   GL236292  13.550  14.370   7.930
 1513BOLB   C1A36293  13.180  14.450   7.590
 1513BOLB   C2A36294  12.820  14.220   7.750
 1513BOLB   C3A36295  12.530  13.970   7.840
 1513BOLB   C4A36296  12.160  13.830   8.030
 1513BOLB   C1B36297  13.350  14.000   8.020
 1513BOLB   C2B36298  13.080  13.790   7.930
 1513BOLB   C3B36299  13.060  13.420   7.750
 1513BOLB   C4B36300  12.910  13.130   7.950
 1513BOLB   NC236301  10.450  12.890   9.130
 1513BOLB   PO236302  10.480  13.100   9.540
 1513BOLB   GL336303  10.930  13.220   9.540
 1513BOLB   GL436304  11.010  12.930   9.380
 1513BOLB   C1C36305  11.320  13.310   9.220
 1513BOLB   C2C36306  11.680  13.320   9.030
 1513BOLB   C3C36307  12.070  13.370   8.740
 1513BOLB   C4C36308  12.150  13.720   8.420
 1513BOLB   C1D36309  11.260  12.900   9.720
 1513BOLB   C2D36310  11.510  12.530   9.720
 1513BOLB   C3D36311  11.870  12.350   9.960
 1513BOLB   C4D36312  12.210  12.550  10.080
 1514BOLB   NC136313  23.560  18.920  10.280
 1514BOLB   PO136314  23.710  18.610   9.920
 1514BOLB   GL136315  24.040  18.710   9.570
 1514BOLB   GL236316  23.960  18.660   9.230
 1514BOLB   C1A36317  24.440  18.620   9.300
 1514BOLB   C2A36318  24.730  18.350   9.120
 1514BOLB   C3A36319  24.890  17.930   8.890
 1514BOLB   C4A36320  25.090  17.610   8.570
 1514BOLB   C1B36321  24.220  18.890   8.960
 1514BOLB   C2B36322  24.550  19.010   8.580
 1514BOLB   C3B36323  24.480  19.140   8.180
 1514BOLB   C4B36324  24.520  18.920   7.870
 1514BOLB   NC236325  26.780  16.020   7.670
 1514BOLB   PO236326  26.960  16.030   8.060
 1514BOLB   GL336327  26.710  16.330   8.330
 1514BOLB   GL436328  26.860  16.640   8.210
 1514BOLB   C1C36329  26.230  16.400   8.390
 1514BOLB   C2C36330  26.060  16.800   8.410
 1514BOLB   C3C36331  25.770  17.220   8.340
 1514BOLB   C4C36332  25.420  17.370   8.390
 1514BOLB   C1D36333  26.570  16.780   8.490
 1514BOLB   C2D36334  26.390  16.920   8.870
 1514BOLB   C3D36335  26.130  16.920   9.220
 1514BOLB   C4D36336  25.930  17.040   9.550
 1515BOLB   NC136337  25.450  19.760  13.070
 1515BOLB   PO136338  25.620  19.650  12.720
 1515BOLB   GL136339  25.900  19.550  13.090
 1515BOLB   GL236340  26.170  19.650  13.210
 1515BOLB   C1A36341  26.140  19.170  13.090
 1515BOLB   C2A36342  26.600  19.270  13.160
 1515BOLB   C3A36343  26.980  19.190  13.390
 1515BOLB   C4A36344  27.340  19.250  13.670
 1515BOLB   C1B36345  26.580  19.790  13.140
 1515BOLB   C2B36346  26.910  19.740  12.870
 1515BOLB   C3B36347  27.330  19.650  12.700
 1515BOLB   C4B36348  27.380  19.550  12.360
 1515BOLB   NC236349  29.310  18.580  13.700
 1515BOLB   PO236350  29.290  18.420  14.060
 1515BOLB   GL336351  28.930  18.540  14.060
 1515BOLB   GL436352  28.910  18.740  13.950
 1515BOLB   C1C36353  28.540  18.440  13.970
 1515BOLB   C2C36354  28.130  18.530  13.890
 1515BOLB   C3C36355  27.990  18.950  13.820
 1515BOLB   C4C36356  27.770  19.250  13.590
 1515BOLB   C1D36357  28.660  19.010  14.020
 1515BOLB   C2D36358  28.360  19.310  14.060
 1515BOLB   C3D36359  28.000  19.580  14.080
 1515BOLB   C4D36360  27.670  19.660  13.840
 1516BOLB   NC136361  13.540  20.750   6.280
 1516BOLB   PO136362  13.310  20.910   5.890
 1516BOLB   GL136363  13.040  21.150   5.700
 1516BOLB   GL236364  12.790  21.120   5.820
 1516BOLB   C1A36365  12.920  21.470   5.360
 1516BOLB   C2A36366  12.570  21.510   5.060
 1516BOLB   C3A36367  12.340  21.650   4.660
 1516BOLB   C4A36368  12.080  21.400   4.510
 1516BOLB   C1B36369  12.500  21.130   5.490
 1516BOLB   C2B36370  12.110  21.170   5.190
 1516BOLB   C3B36371  12.010  21.550   5.020
 1516BOLB   C4B36372  11.800  21.910   4.840
 1516BOLB   NC236373  10.300  20.620   2.780
 1516BOLB   PO236374  10.580  20.560   3.120
 1516BOLB   GL336375  10.900  20.460   3.310
 1516BOLB   GL436376  10.670  20.240   3.490
 1516BOLB   C1C36377  11.160  20.670   3.550
 1516BOLB   C2C36378  11.400  20.630   3.950
 1516BOLB   C3C36379  11.770  20.830   4.040
 1516BOLB   C4C36380  12.020  21.160   4.180
 1516BOLB   C1D36381  10.790  19.780   3.730
 1516BOLB   C2D36382  10.680  19.380   3.700
 1516BOLB   C3D36383  10.710  19.100   3.940
 1516BOLB   C4D36384  10.890  18.780   4.260
 1517BOLB   NC136385   7.640  28.350   9.570
 1517BOLB   PO136386   7.860  28.440   9.940
 1517BOLB   GL136387   8.120  28.330  10.260
 1517BOLB   GL236388   8.130  28.110  10.420
 1517BOLB   C1A36389   8.590  28.170  10.290
 1517BOLB   C2A36390   8.890  27.850  10.330
 1517BOLB   C3A36391   9.240  27.690  10.410
 1517BOLB   C4A36392   9.660  27.590  10.190
 1517BOLB   C1B36393   8.470  27.950  10.770
 1517BOLB   C2B36394   8.850  27.740  10.810
 1517BOLB   C3B36395   9.130  27.410  10.770
 1517BOLB   C4B36396   9.400  27.080  10.920
 1517BOLB   NC236397   8.750  29.530  10.460
 1517BOLB   PO236398   8.330  29.270  10.240
 1517BOLB   GL336399   8.690  29.030  10.360
 1517BOLB   GL436400   8.760  28.830  10.530
 1517BOLB   C1C36401   8.850  28.720  10.050
 1517BOLB   C2C36402   8.890  28.390   9.740
 1517BOLB   C3C36403   9.230  28.040   9.530
 1517BOLB   C4C36404   9.620  27.920   9.800
 1517BOLB   C1D36405   8.970  28.770  10.920
 1517BOLB   C2D36406   9.280  28.500  11.030
 1517BOLB   C3D36407   9.500  28.190  11.300
 1517BOLB   C4D36408   9.630  27.950  11.710
 1518BOLB   NC136409  17.350  13.770   7.850
 1518BOLB   PO136410  17.560  13.520   8.270
 1518BOLB   GL136411  17.410  13.190   7.940
 1518BOLB   GL236412  17.310  13.340   7.610
 1518BOLB   C1A36413  17.410  12.760   7.730
 1518BOLB   C2A36414  17.210  12.350   7.540
 1518BOLB   C3A36415  17.420  11.970   7.340
 1518BOLB   C4A36416  17.520  11.720   6.980
 1518BOLB   C1B36417  17.470  13.340   7.260
 1518BOLB   C2B36418  17.740  13.110   6.820
 1518BOLB   C3B36419  18.000  12.920   6.500
 1518BOLB   C4B36420  18.060  12.790   6.140
 1518BOLB   NC236421  18.950  10.430   5.760
 1518BOLB   PO236422  18.730  10.250   5.950
 1518BOLB   GL336423  18.940  10.570   6.280
 1518BOLB   GL436424  19.130  10.540   6.560
 1518BOLB   C1C36425  18.620  10.750   6.530
 1518BOLB   C2C36426  18.320  10.990   6.670
 1518BOLB   C3C36427  17.970  11.120   6.710
 1518BOLB   C4C36428  17.710  11.520   6.670
 1518BOLB   C1D36429  18.960  10.760   6.930
 1518BOLB   C2D36430  18.870  10.930   7.270
 1518BOLB   C3D36431  18.750  11.340   7.280
 1518BOLB   C4D36432  18.850  11.720   7.160
 1519BOLB   NC136433  24.890  26.900  10.590
 1519BOLB   PO136434  24.830  26.730  10.160
 1519BOLB   GL136435  25.250  26.940  10.270
 1519BOLB   GL236436  25.140  27.200  10.200
 1519BOLB   C1A36437  25.560  26.980   9.930
 1519BOLB   C2A36438  25.770  27.210   9.530
 1519BOLB   C3A36439  25.940  27.340   9.080
 1519BOLB   C4A36440  25.970  27.780   8.910
 1519BOLB   C1B36441  25.530  27.380  10.290
 1519BOLB   C2B36442  25.920  27.680  10.170
 1519BOLB   C3B36443  26.360  27.730  10.380
 1519BOLB   C4B36444  26.680  27.880  10.400
 1519BOLB   NC236445  27.600  28.550   8.230
 1519BOLB   PO236446  27.460  28.580   7.790
 1519BOLB   GL336447  27.060  28.380   8.000
 1519BOLB   GL436448  27.130  28.410   8.410
 1519BOLB   C1C36449  26.750  28.070   7.840
 1519BOLB   C2C36450  26.480  27.820   7.870
 1519BOLB   C3C36451  26.220  27.990   8.140
 1519BOLB   C4C36452  26.210  27.880   8.570
 1519BOLB   C1D36453  26.830  28.720   8.250
 1519BOLB   C2D36454  26.520  28.760   8.430
 1519BOLB   C3D36455  26.300  28.520   8.650
 1519BOLB   C4D36456  26.310  28.180   8.930
 1520BOLB   NC136457  18.070  13.440   8.220
 1520BOLB   PO136458  17.890  13.810   7.940
 1520BOLB   GL136459  17.810  13.430   7.730
 1520BOLB   GL236460  18.170  13.350   7.640
 1520BOLB   C1A36461  17.740  13.110   7.590
 1520BOLB   C2A36462  17.910  12.930   7.250
 1520BOLB   C3A36463  18.170  12.750   7.050
 1520BOLB   C4A36464  18.590  12.370   7.070
 1520BOLB   C1B36465  18.300  13.130   7.520
 1520BOLB   C2B36466  18.570  12.740   7.440
 1520BOLB   C3B36467  18.810  12.400   7.520
 1520BOLB   C4B36468  18.780  12.010   7.570
 1520BOLB   NC236469  19.860  11.220   5.600
 1520BOLB   PO236470  19.450  11.180   5.850
 1520BOLB   GL336471  19.470  11.560   6.160
 1520BOLB   GL436472  19.850  11.400   6.050
 1520BOLB   C1C36473  19.290  11.530   6.560
 1520BOLB   C2C36474  19.160  11.850   6.760
 1520BOLB   C3C36475  19.260  12.260   6.690
 1520BOLB   C4C36476  18.940  12.480   6.870
 1520BOLB   C1D36477  20.040  11.720   6.130
 1520BOLB   C2D36478  20.160  11.960   6.560
 1520BOLB   C3D36479  20.010  11.880   6.960
 1520BOLB   C4D36480  19.710  11.460   7.110
 1521BOLB   NC136481  13.910  24.020   6.760
 1521BOLB   PO136482  14.040  23.730   6.410
 1521BOLB   GL136483  14.030  23.820   6.020
 1521BOLB   GL236484  13.740  23.740   5.950
 1521BOLB   C1A36485  14.090  24.150   5.720
 1521BOLB   C2A36486  14.150  24.450   5.460
 1521BOLB   C3A36487  14.180  24.840   5.330
 1521BOLB   C4A36488  14.230  25.230   5.190
 1521BOLB   C1B36489  13.610  23.930   5.540
 1521BOLB   C2B36490  13.240  24.120   5.320
 1521BOLB   C3B36491  12.750  24.120   5.150
 1521BOLB   C4B36492  12.380  24.310   5.310
 1521BOLB   NC236493  13.020  27.040   3.810
 1521BOLB   PO236494  12.740  26.790   3.670
 1521BOLB   GL336495  12.940  26.550   4.030
 1521BOLB   GL436496  12.790  26.640   4.340
 1521BOLB   C1C36497  13.250  26.290   4.250
 1521BOLB   C2C36498  13.490  26.000   4.570
 1521BOLB   C3C36499  13.810  25.810   4.790
 1521BOLB   C4C36500  13.890  25.450   5.010
 1521BOLB   C1D36501  12.970  26.910   4.640
 1521BOLB   C2D36502  13.170  26.800   5.120
 1521BOLB   C3D36503  13.030  27.110   5.460
 1521BOLB   C4D36504  12.740  27.320   5.430
 1522BOLB   NC136505  22.660  17.200   9.370
 1522BOLB   PO136506  22.390  17.020   8.990
 1522BOLB   GL136507  22.640  16.720   8.640
 1522BOLB   GL236508  22.580  16.770   8.280
 1522BOLB   C1A36509  22.930  16.470   8.670
 1522BOLB   C2A36510  23.230  16.270   8.560
 1522BOLB   C3A36511  23.490  15.880   8.600
 1522BOLB   C4A36512  23.920  15.790   8.720
 1522BOLB   C1B36513  22.690  16.530   7.930
 1522BOLB   C2B36514  23.010  16.410   7.570
 1522BOLB   C3B36515  23.370  16.090   7.580
 1522BOLB   C4B36516  23.410  15.740   7.820
 1522BOLB   NC236517  25.340  15.000   6.920
 1522BOLB   PO236518  25.560  14.810   7.280
 1522BOLB   GL336519  25.410  15.040   7.700
 1522BOLB   GL436520  25.640  14.850   8.000
 1522BOLB   C1C36521  25.140  15.310   7.770
 1522BOLB   C2C36522  24.860  15.580   7.980
 1522BOLB   C3C36523  24.620  15.560   8.330
 1522BOLB   C4C36524  24.440  15.670   8.750
 1522BOLB   C1D36525  25.260  14.970   8.140
 1522BOLB   C2D36526  24.920  15.150   8.410
 1522BOLB   C3D36527  24.650  15.240   8.710
 1522BOLB   C4D36528  24.220  15.340   9.040
 1523BOLB   NC136529  13.060  27.380  13.440
 1523BOLB   PO136530  13.180  27.610  13.100
 1523BOLB   GL136531  13.220  28.010  13.170
 1523BOLB   GL236532  12.810  27.930  13.240
 1523BOLB   C1A36533  13.120  28.420  13.100
 1523BOLB   C2A36534  12.880  28.670  13.240
 1523BOLB   C3A36535  12.480  28.960  13.310
 1523BOLB   C4A36536  12.360  29.260  13.040
 1523BOLB   C1B36537  12.590  28.200  13.030
 1523BOLB   C2B36538  12.470  28.630  12.840
 1523BOLB   C3B36539  12.220  28.940  12.650
 1523BOLB   C4B36540  12.260  29.330  12.310
 1523BOLB   NC236541  10.170  30.350  12.970
 1523BOLB   PO236542  10.060  30.090  12.580
 1523BOLB   GL336543  10.370  30.010  12.650
 1523BOLB   GL436544  10.460  29.810  12.390
 1523BOLB   C1C36545  10.880  30.000  12.830
 1523BOLB   C2C36546  11.240  29.850  12.630
 1523BOLB   C3C36547  11.550  29.610  12.830
 1523BOLB   C4C36548  11.960  29.370  12.860
 1523BOLB   C1D36549  10.850  29.650  12.430
 1523BOLB   C2D36550  11.210  29.400  12.370
 1523BOLB   C3D36551  11.690  29.500  12.330
 1523BOLB   C4D36552  11.900  29.750  12.090
 1524BOLB   NC136553  21.850  19.190   7.130
 1524BOLB   PO136554  21.590  19.160   6.750
 1524BOLB   GL136555  21.720  19.000   6.360
 1524BOLB   GL236556  21.690  19.220   6.060
 1524BOLB   C1A36557  22.040  18.780   6.120
 1524BOLB   C2A36558  22.270  18.640   5.910
 1524BOLB   C3A36559  22.450  18.680   5.460
 1524BOLB   C4A36560  22.510  18.280   5.250
 1524BOLB   C1B36561  21.820  19.120   5.630
 1524BOLB   C2B36562  22.110  19.010   5.300
 1524BOLB   C3B36563  22.250  19.160   4.990
 1524BOLB   C4B36564  22.370  18.960   4.610
 1524BOLB   NC236565  24.250  17.030   4.080
 1524BOLB   PO236566  24.080  17.170   3.580
 1524BOLB   GL336567  23.790  17.370   3.690
 1524BOLB   GL436568  23.520  17.220   3.690
 1524BOLB   C1C36569  23.610  17.510   4.050
 1524BOLB   C2C36570  23.300  17.650   4.390
 1524BOLB   C3C36571  23.010  17.900   4.730
 1524BOLB   C4C36572  22.710  17.990   5.010
 1524BOLB   C1D36573  23.210  17.250   3.980
 1524BOLB   C2D36574  23.000  16.960   4.320
 1524BOLB   C3D36575  22.690  16.690   4.520
 1524BOLB   C4D36576  22.670  16.460   4.920
 1525BOLB   NC136577  11.170  16.110  16.420
 1525BOLB   PO136578  10.870  15.840  16.500
 1525BOLB   GL136579  10.490  15.870  16.400
 1525BOLB   GL236580  10.490  16.060  16.060
 1525BOLB   C1A36581  10.110  15.760  16.300
 1525BOLB   C2A36582   9.840  15.820  16.080
 1525BOLB   C3A36583   9.560  15.890  15.770
 1525BOLB   C4A36584   9.490  16.210  15.470
 1525BOLB   C1B36585  10.570  15.690  15.890
 1525BOLB   C2B36586  10.410  15.290  15.580
 1525BOLB   C3B36587  10.100  15.120  15.470
 1525BOLB   C4B36588   9.920  14.880  15.840
 1525BOLB   NC236589   8.010  15.450  13.740
 1525BOLB   PO236590   8.260  15.810  13.730
 1525BOLB   GL336591   8.610  15.920  13.970
 1525BOLB   GL436592   8.670  16.240  13.710
 1525BOLB   C1C36593   8.850  16.200  14.160
 1525BOLB   C2C36594   9.140  16.540  14.370
 1525BOLB   C3C36595   9.210  16.750  14.760
 1525BOLB   C4C36596   9.310  16.590  15.190
 1525BOLB   C1D36597   8.750  16.680  14.000
 1525BOLB   C2D36598   8.790  16.880  14.470
 1525BOLB   C3D36599   8.960  17.180  14.590
 1525BOLB   C4D36600   8.950  17.510  14.880
 1526BOLB   NC136601  14.610   8.010  15.970
 1526BOLB   PO136602  14.290   8.260  15.840
 1526BOLB   GL136603  14.390   8.680  15.690
 1526BOLB   GL236604  14.450   8.660  15.360
 1526BOLB   C1A36605  14.500   9.140  15.760
 1526BOLB   C2A36606  14.590   9.490  15.540
 1526BOLB   C3A36607  14.590   9.850  15.400
 1526BOLB   C4A36608  14.340  10.070  15.690
 1526BOLB   C1B36609  14.400   8.960  15.080
 1526BOLB   C2B36610  14.130   9.170  14.800
 1526BOLB   C3B36611  14.050   9.510  14.630
 1526BOLB   C4B36612  13.820   9.850  14.570
 1526BOLB   NC236613  14.430   8.290  17.010
 1526BOLB   PO236614  14.730   8.530  17.100
 1526BOLB   GL336615  14.520   8.910  16.960
 1526BOLB   GL436616  14.580   8.960  16.620
 1526BOLB   C1C36617  14.410   9.380  16.830
 1526BOLB   C2C36618  14.280   9.500  16.500
 1526BOLB   C3C36619  14.100   9.890  16.280
 1526BOLB   C4C36620  14.210  10.230  16.030
 1526BOLB   C1D36621  14.920   9.240  16.750
 1526BOLB   C2D36622  15.250   9.580  16.640
 1526BOLB   C3D36623  15.260   9.950  16.380
 1526BOLB   C4D36624  15.350  10.400  16.440
 1527BOLB   NC136625   9.600  23.000  10.400
 1527BOLB   PO136626   9.660  23.090   9.990
 1527BOLB   GL136627   9.240  23.270   9.880
 1527BOLB   GL236628   9.030  23.440  10.000
 1527BOLB   C1A36629   9.060  23.380   9.510
 1527BOLB   C2A36630   9.130  23.530   8.950
 1527BOLB   C3A36631   8.770  23.780   8.630
 1527BOLB   C4A36632   8.920  24.190   8.560
 1527BOLB   C1B36633   8.730  23.800  10.090
 1527BOLB   C2B36634   8.410  24.120  10.080
 1527BOLB   C3B36635   8.290  24.510  10.230
 1527BOLB   C4B36636   8.250  25.030  10.140
 1527BOLB   NC236637   8.070  26.000   6.890
 1527BOLB   PO236638   8.010  25.560   6.910
 1527BOLB   GL336639   8.330  25.250   6.890
 1527BOLB   GL436640   8.350  24.990   6.840
 1527BOLB   C1C36641   8.590  25.070   7.240
 1527BOLB   C2C36642   8.790  24.890   7.430
 1527BOLB   C3C36643   8.920  24.550   7.800
 1527BOLB   C4C36644   9.100  24.350   8.220
 1527BOLB   C1D36645   8.690  24.720   6.880
 1527BOLB   C2D36646   8.930  24.510   7.110
 1527BOLB   C3D36647   9.220  24.220   7.330
 1527BOLB   C4D36648   9.500  23.960   7.540
 1528BOLB   NC136649  13.390  26.410   8.710
 1528BOLB   PO136650  13.090  26.160   8.750
 1528BOLB   GL136651  12.830  26.570   8.610
 1528BOLB   GL236652  12.560  26.350   8.440
 1528BOLB   C1A36653  12.560  26.840   8.340
 1528BOLB   C2A36654  12.470  27.260   8.430
 1528BOLB   C3A36655  12.110  27.480   8.350
 1528BOLB   C4A36656  11.750  27.700   8.160
 1528BOLB   C1B36657  12.220  26.520   8.200
 1528BOLB   C2B36658  11.720  26.740   8.250
 1528BOLB   C3B36659  11.300  26.930   8.400
 1528BOLB   C4B36660  10.940  27.190   8.590
 1528BOLB   NC236661  10.420  28.990   7.490
 1528BOLB   PO236662  10.660  29.260   7.360
 1528BOLB   GL336663  10.950  28.830   7.350
 1528BOLB   GL436664  11.230  28.960   7.400
 1528BOLB   C1C36665  11.150  28.510   7.360
 1528BOLB   C2C36666  11.220  28.120   7.230
 1528BOLB   C3C36667  11.290  27.800   7.410
 1528BOLB   C4C36668  11.400  27.600   7.820
 1528BOLB   C1D36669  11.470  28.640   7.770
 1528BOLB   C2D36670  11.380  28.570   8.260
 1528BOLB   C3D36671  11.610  28.310   8.600
 1528BOLB   C4D36672  11.830  27.930   8.660
 1529BOLB   NC136673  22.880  16.820  10.650
 1529BOLB   PO136674  23.020  16.510  10.840
 1529BOLB   GL136675  23.340  16.260  10.730
 1529BOLB   GL236676  23.550  16.290  10.470
 1529BOLB   C1A36677  23.530  15.760  10.830
 1529BOLB   C2A36678  23.730  15.340  10.990
 1529BOLB   C3A36679  24.110  15.030  11.090
 1529BOLB   C4A36680  24.410  14.960  10.780
 1529BOLB   C1B36681  23.770  15.950  10.440
 1529BOLB   C2B36682  24.100  15.710  10.440
 1529BOLB   C3B36683  24.080  15.270  10.570
 1529BOLB   C4B36684  24.210  14.890  10.280
 1529BOLB   NC236685  26.100  12.940   9.550
 1529BOLB   PO236686  25.920  13.280   9.690
 1529BOLB   GL336687  25.730  13.370  10.120
 1529BOLB   GL436688  25.360  13.220  10.130
 1529BOLB   C1C36689  25.510  13.630  10.350
 1529BOLB   C2C36690  25.210  14.020  10.540
 1529BOLB   C3C36691  24.870  14.370  10.650
 1529BOLB   C4C36692  24.550  14.640  10.600
 1529BOLB   C1D36693  25.160  13.550   9.900
 1529BOLB   C2D36694  25.130  13.920   9.770
 1529BOLB   C3D36695  25.260  14.350   9.640
 1529BOLB   C4D36696  25.530  14.770   9.670
 1530BOLB   NC136697  14.130  16.170   8.490
 1530BOLB   PO136698  13.870  16.030   8.090
 1530BOLB   GL136699  13.540  16.150   8.470
 1530BOLB   GL236700  13.260  16.530   8.420
 1530BOLB   C1A36701  13.310  16.220   8.830
 1530BOLB   C2A36702  12.990  16.430   9.030
 1530BOLB   C3A36703  12.680  16.220   9.270
 1530BOLB   C4A36704  12.410  15.960   9.180
 1530BOLB   C1B36705  12.890  16.340   8.550
 1530BOLB   C2B36706  12.530  16.260   8.760
 1530BOLB   C3B36707  12.150  16.000   8.680
 1530BOLB   C4B36708  12.130  15.490   8.830
 1530BOLB   NC236709  10.180  15.490   9.970
 1530BOLB   PO236710  10.160  15.110   9.860
 1530BOLB   GL336711  10.420  15.330   9.540
 1530BOLB   GL436712  10.490  15.220   9.210
 1530BOLB   C1C36713  10.860  15.450   9.380
 1530BOLB   C2C36714  11.170  15.610   9.320
 1530BOLB   C3C36715  11.480  15.740   9.130
 1530BOLB   C4C36716  11.950  15.830   9.230
 1530BOLB   C1D36717  10.610  15.490   8.800
 1530BOLB   C2D36718  10.890  15.510   8.430
 1530BOLB   C3D36719  11.290  15.650   8.230
 1530BOLB   C4D36720  11.530  15.920   7.980
 1531BOLB   NC136721  21.220  15.140  15.960
 1531BOLB   PO136722  21.430  14.690  15.980
 1531BOLB   GL136723  21.800  14.580  15.760
 1531BOLB   GL236724  21.900  14.360  15.990
 1531BOLB   C1A36725  22.160  14.190  15.610
 1531BOLB   C2A36726  22.450  13.910  15.630
 1531BOLB   C3A36727  22.840  13.690  15.800
 1531BOLB   C4A36728  22.920  13.540  16.280
 1531BOLB   C1B36729  21.980  13.860  15.950
 1531BOLB   C2B36730  21.890  13.590  16.180
 1531BOLB   C3B36731  21.960  13.130  16.200
 1531BOLB   C4B36732  21.820  12.740  16.200
 1531BOLB   NC236733  24.970  12.900  17.210
 1531BOLB   PO236734  24.690  12.490  17.090
 1531BOLB   GL336735  24.570  12.850  16.830
 1531BOLB   GL436736  24.780  13.070  16.670
 1531BOLB   C1C36737  24.340  13.140  16.920
 1531BOLB   C2C36738  23.970  13.330  16.680
 1531BOLB   C3C36739  23.520  13.290  16.810
 1531BOLB   C4C36740  23.030  13.340  16.730
 1531BOLB   C1D36741  24.550  13.320  16.520
 1531BOLB   C2D36742  24.290  13.450  16.210
 1531BOLB   C3D36743  23.880  13.560  16.050
 1531BOLB   C4D36744  23.570  13.850  15.900
 1532BOLB   NC136745  20.600  25.300   6.310
 1532BOLB   PO136746  21.000  25.130   6.450
 1532BOLB   GL136747  21.350  25.290   6.200
 1532BOLB   GL236748  21.690  25.230   6.260
 1532BOLB   C1A36749  21.530  25.480   5.820
 1532BOLB   C2A36750  21.690  25.460   5.380
 1532BOLB   C3A36751  22.010  25.530   5.180
 1532BOLB   C4A36752  22.170  25.530   4.850
 1532BOLB   C1B36753  21.960  25.280   5.900
 1532BOLB   C2B36754  22.140  25.090   5.510
 1532BOLB   C3B36755  22.300  24.840   5.230
 1532BOLB   C4B36756  22.660  24.560   5.090
 1532BOLB   NC236757  22.010  27.660   3.180
 1532BOLB   PO236758  22.350  27.490   3.050
 1532BOLB   GL336759  22.180  27.160   3.380
 1532BOLB   GL436760  21.840  27.290   3.420
 1532BOLB   C1C36761  22.160  26.760   3.690
 1532BOLB   C2C36762  22.000  26.550   4.070
 1532BOLB   C3C36763  21.970  26.120   4.300
 1532BOLB   C4C36764  22.160  25.770   4.530
 1532BOLB   C1D36765  21.910  27.120   3.880
 1532BOLB   C2D36766  21.750  27.070   4.340
 1532BOLB   C3D36767  21.660  27.400   4.600
 1532BOLB   C4D36768  21.610  27.750   5.050
 1533BOLB   NC136769   8.890  19.930   4.050
 1533BOLB   PO136770   9.160  19.580   3.960
 1533BOLB   GL136771   9.450  19.380   4.250
 1533BOLB   GL236772   9.740  19.510   4.120
 1533BOLB   C1A36773   9.610  19.620   4.590
 1533BOLB   C2A36774   9.920  19.650   4.890
 1533BOLB   C3A36775  10.180  19.480   4.770
 1533BOLB   C4A36776  10.390  19.320   4.530
 1533BOLB   C1B36777  10.020  19.750   4.350
 1533BOLB   C2B36778  10.380  19.870   4.580
 1533BOLB   C3B36779  10.780  19.750   4.630
 1533BOLB   C4B36780  11.120  19.600   4.600
 1533BOLB   NC236781  10.810  20.200   2.190
 1533BOLB   PO236782  10.970  19.940   2.470
 1533BOLB   GL336783  11.180  20.070   2.880
 1533BOLB   GL436784  11.440  20.200   2.680
 1533BOLB   C1C36785  11.100  20.020   3.360
 1533BOLB   C2C36786  11.240  19.870   3.750
 1533BOLB   C3C36787  11.100  19.520   4.010
 1533BOLB   C4C36788  10.800  19.340   4.320
 1533BOLB   C1D36789  11.850  20.230   2.960
 1533BOLB   C2D36790  11.980  20.400   3.390
 1533BOLB   C3D36791  11.860  20.320   3.740
 1533BOLB   C4D36792  11.580  20.160   3.950
 1534BOLB   NC136793  16.700  26.670   8.140
 1534BOLB   PO136794  16.310  27.000   8.290
 1534BOLB   GL136795  16.240  27.370   7.970
 1534BOLB   GL236796  16.410  27.540   7.810
 1534BOLB   C1A36797  15.940  27.730   7.730
 1534BOLB   C2A36798  15.940  27.990   7.450
 1534BOLB   C3A36799  15.650  28.000   7.140
 1534BOLB   C4A36800  15.370  27.940   6.780
 1534BOLB   C1B36801  16.390  27.570   7.430
 1534BOLB   C2B36802  16.500  27.860   7.090
 1534BOLB   C3B36803  16.570  28.080   6.720
 1534BOLB   C4B36804  16.920  28.350   6.500
 1534BOLB   NC236805  13.730  29.060   5.240
 1534BOLB   PO236806  14.030  28.980   4.920
 1534BOLB   GL336807  14.180  28.790   5.310
 1534BOLB   GL436808  14.460  28.950   5.310
 1534BOLB   C1C36809  14.280  28.500   5.580
 1534BOLB   C2C36810  14.680  28.330   5.740
 1534BOLB   C3C36811  14.930  28.240   6.070
 1534BOLB   C4C36812  15.150  28.200   6.560
 1534BOLB   C1D36813  14.560  28.550   5.150
 1534BOLB   C2D36814  14.550  28.090   5.010
 1534BOLB   C3D36815  14.740  27.680   4.900
 1534BOLB   C4D36816  14.850  27.290   5.250
 1535BOLB   NC136817  19.430  15.370   8.080
 1535BOLB   PO136818  19.540  15.510   7.700
 1535BOLB   GL136819  19.990  15.410   7.470
 1535BOLB   GL236820  19.860  15.370   7.090
 1535BOLB   C1A36821  20.310  15.230   7.280
 1535BOLB   C2A36822  20.480  14.920   7.070
 1535BOLB   C3A36823  20.660  14.750   6.740
 1535BOLB   C4A36824  20.940  14.730   6.470
 1535BOLB   C1B36825  20.100  15.390   6.760
 1535BOLB   C2B36826  20.340  15.390   6.420
 1535BOLB   C3B36827  20.580  15.130   6.140
 1535BOLB   C4B36828  20.900  14.920   5.970
 1535BOLB   NC236829  22.360  13.240   4.470
 1535BOLB   PO236830  22.370  13.210   4.920
 1535BOLB   GL336831  22.080  13.260   5.140
 1535BOLB   GL436832  22.180  13.150   5.450
 1535BOLB   C1C36833  21.850  13.540   5.350
 1535BOLB   C2C36834  21.580  13.780   5.790
 1535BOLB   C3C36835  21.460  14.110   6.010
 1535BOLB   C4C36836  21.100  14.480   6.140
 1535BOLB   C1D36837  21.920  13.280   5.890
 1535BOLB   C2D36838  21.770  13.460   6.180
 1535BOLB   C3D36839  21.670  13.810   6.320
 1535BOLB   C4D36840  21.280  14.050   6.480
 1536BOLB   NC136841  17.210  27.820   8.590
 1536BOLB   PO136842  17.430  27.820   8.230
 1536BOLB   GL136843  17.370  28.170   8.070
 1536BOLB   GL236844  17.150  28.360   8.290
 1536BOLB   C1A36845  17.220  28.370   7.740
 1536BOLB   C2A36846  17.200  28.530   7.320
 1536BOLB   C3A36847  17.210  28.840   7.040
 1536BOLB   C4A36848  17.090  29.220   6.790
 1536BOLB   C1B36849  17.020  28.740   8.100
 1536BOLB   C2B36850  17.200  29.230   8.000
 1536BOLB   C3B36851  17.260  29.600   7.810
 1536BOLB   C4B36852  17.500  29.980   7.740
 1536BOLB   NC236853  16.350  30.330   4.880
 1536BOLB   PO236854  16.730  30.450   5.110
 1536BOLB   GL336855  16.590  30.160   5.410
 1536BOLB   GL436856  16.790  30.080   5.790
 1536BOLB   C1C36857  16.330  29.920   5.600
 1536BOLB   C2C36858  16.450  29.790   5.970
 1536BOLB   C3C36859  16.440  29.810   6.350
 1536BOLB   C4C36860  16.730  29.500   6.650
 1536BOLB   C1D36861  17.090  30.090   6.020
 1536BOLB   C2D36862  17.340  29.840   6.320
 1536BOLB   C3D36863  17.550  29.500   6.420
 1536BOLB   C4D36864  17.850  29.350   6.200
 1537BOLB   NC136865  13.820  12.920  11.160
 1537BOLB   PO136866  13.660  12.390  11.270
 1537BOLB   GL136867  13.270  12.130  11.340
 1537BOLB   GL236868  13.370  11.850  11.470
 1537BOLB   C1A36869  12.930  12.240  11.430
 1537BOLB   C2A36870  12.590  12.100  11.470
 1537BOLB   C3A36871  12.280  12.190  11.720
 1537BOLB   C4A36872  11.980  12.450  11.950
 1537BOLB   C1B36873  13.020  11.770  11.610
 1537BOLB   C2B36874  12.650  11.860  11.940
 1537BOLB   C3B36875  12.540  12.200  12.200
 1537BOLB   C4B36876  12.400  12.580  12.220
 1537BOLB   NC236877   9.620  12.010  13.000
 1537BOLB   PO236878   9.900  12.330  12.780
 1537BOLB   GL336879  10.330  12.340  13.030
 1537BOLB   GL436880  10.540  12.630  12.980
 1537BOLB   C1C36881  10.830  12.160  12.930
 1537BOLB   C2C36882  11.260  12.020  12.830
 1537BOLB   C3C36883  11.670  12.220  12.780
 1537BOLB   C4C36884  12.010  12.230  12.450
 1537BOLB   C1D36885  10.810  12.770  13.320
 1537BOLB   C2D36886  11.010  12.590  13.700
 1537BOLB   C3D36887  11.190  12.770  13.910
 1537BOLB   C4D36888  11.400  12.990  14.230
 1538BOLB   NC136889  18.950  29.200   9.540
 1538BOLB   PO136890  19.360  28.980   9.600
 1538BOLB   GL136891  19.430  29.340   9.350
 1538BOLB   GL236892  19.570  29.270   9.050
 1538BOLB   C1A36893  19.530  29.810   9.420
 1538BOLB   C2A36894  19.730  30.250   9.260
 1538BOLB   C3A36895  19.820  30.700   9.080
 1538BOLB   C4A36896  19.610  31.020   8.880
 1538BOLB   C1B36897  19.390  29.630   8.970
 1538BOLB   C2B36898  18.990  29.950   8.730
 1538BOLB   C3B36899  18.670  29.760   8.610
 1538BOLB   C4B36900  18.570  29.750   8.240
 1538BOLB   NC236901  18.960  32.910   7.280
 1538BOLB   PO236902  19.100  32.990   7.730
 1538BOLB   GL336903  18.920  32.650   7.790
 1538BOLB   GL436904  18.960  32.410   7.590
 1538BOLB   C1C36905  18.890  32.280   8.080
 1538BOLB   C2C36906  19.120  32.050   8.340
 1538BOLB   C3C36907  19.320  31.730   8.270
 1538BOLB   C4C36908  19.360  31.360   8.620
 1538BOLB   C1D36909  18.780  31.970   7.720
 1538BOLB   C2D36910  18.710  31.830   8.140
 1538BOLB   C3D36911  18.860  31.660   8.490
 1538BOLB   C4D36912  18.850  31.290   8.720
 1539BOLB   NC136913  13.190  25.370  17.110
 1539BOLB   PO136914  13.380  25.440  17.490
 1539BOLB   GL136915  13.130  25.490  17.790
 1539BOLB   GL236916  12.870  25.250  17.890
 1539BOLB   C1A36917  13.100  25.430  18.300
 1539BOLB   C2A36918  12.870  25.650  18.490
 1539BOLB   C3A36919  12.910  25.860  18.840
 1539BOLB   C4A36920  12.660  26.080  19.070
 1539BOLB   C1B36921  12.700  25.660  18.040
 1539BOLB   C2B36922  12.560  26.020  17.980
 1539BOLB   C3B36923  12.410  26.500  18.090
 1539BOLB   C4B36924  12.510  26.760  18.430
 1539BOLB   NC236925  10.620  27.510  20.320
 1539BOLB   PO236926  10.890  27.090  20.260
 1539BOLB   GL336927  11.270  27.000  20.050
 1539BOLB   GL436928  11.560  27.260  20.080
 1539BOLB   C1C36929  11.410  26.580  19.930
 1539BOLB   C2C36930  11.570  26.170  19.810
 1539BOLB   C3C36931  11.870  26.090  19.490
 1539BOLB   C4C36932  12.220  26.070  19.200
 1539BOLB   C1D36933  11.730  26.880  20.240
 1539BOLB   C2D36934  12.150  26.660  20.280
 1539BOLB   C3D36935  12.550  26.640  20.150
 1539BOLB   C4D36936  12.790  26.650  19.800
 1540BOLB   NC136937  15.170  14.300   7.150
 1540BOLB   PO136938  15.010  14.150   7.550
 1540BOLB   GL136939  14.930  13.630   7.510
 1540BOLB   GL236940  15.130  13.720   7.240
 1540BOLB   C1A36941  15.120  13.230   7.370
 1540BOLB   C2A36942  15.040  12.870   7.080
 1540BOLB   C3A36943  14.930  12.800   6.630
 1540BOLB   C4A36944  14.590  12.890   6.280
 1540BOLB   C1B36945  14.860  13.390   6.970
 1540BOLB   C2B36946  14.880  13.240   6.580
 1540BOLB   C3B36947  14.900  13.220   6.090
 1540BOLB   C4B36948  15.290  13.100   5.850
 1540BOLB   NC236949  13.630  11.510   4.430
 1540BOLB   PO236950  13.650  11.970   4.480
 1540BOLB   GL336951  14.030  12.160   4.650
 1540BOLB   GL436952  13.860  12.430   4.520
 1540BOLB   C1C36953  14.090  12.460   4.980
 1540BOLB   C2C36954  14.360  12.510   5.220
 1540BOLB   C3C36955  14.450  12.800   5.510
 1540BOLB   C4C36956  14.640  12.780   5.910
 1540BOLB   C1D36957  13.760  12.760   4.760
 1540BOLB   C2D36958  13.780  13.230   4.810
 1540BOLB   C3D36959  13.800  13.670   4.780
 1540BOLB   C4D36960  13.990  13.670   5.150
 1541BOLB   NC136961  17.990  20.550   4.790
 1541BOLB   PO136962  17.630  20.530   4.590
 1541BOLB   GL136963  17.880  20.700   4.310
 1541BOLB   GL236964  18.170  20.780   4.300
 1541BOLB   C1A36965  18.020  20.870   3.840
 1541BOLB   C2A36966  17.920  20.680   3.450
 1541BOLB   C3A36967  17.940  20.950   3.030
 1541BOLB   C4A36968  18.120  21.060   2.720
 1541BOLB   C1B36969  18.110  20.360   4.020
 1541BOLB   C2B36970  18.240  20.240   3.640
 1541BOLB   C3B36971  18.350  20.090   3.290
 1541BOLB   C4B36972  18.420  19.880   2.890
 1541BOLB   NC236973  18.790  22.120   0.830
 1541BOLB   PO236974  18.430  22.210   0.620
 1541BOLB   GL336975  18.210  22.080   0.910
 1541BOLB   GL436976  18.340  22.350   1.090
 1541BOLB   C1C36977  18.270  21.720   1.200
 1541BOLB   C2C36978  18.220  21.590   1.680
 1541BOLB   C3C36979  18.180  21.600   2.050
 1541BOLB   C4C36980  18.060  21.400   2.440
 1541BOLB   C1D36981  18.110  22.240   1.480
 1541BOLB   C2D36982  18.060  22.270   1.900
 1541BOLB   C3D36983  17.960  22.290   2.350
 1541BOLB   C4D36984  17.950  22.350   2.730
 1542BOLB   NC136985  22.010  19.970   6.470
 1542BOLB   PO136986  22.060  20.130   6.860
 1542BOLB   GL136987  22.440  20.030   6.780
 1542BOLB   GL236988  22.560  19.770   6.570
 1542BOLB   C1A36989  22.870  20.200   6.510
 1542BOLB   C2A36990  22.980  19.980   6.110
 1542BOLB   C3A36991  23.170  19.930   5.720
 1542BOLB   C4A36992  23.390  19.770   5.370
 1542BOLB   C1B36993  23.080  19.700   6.530
 1542BOLB   C2B36994  23.430  19.730   6.160
 1542BOLB   C3B36995  23.680  19.750   5.750
 1542BOLB   C4B36996  23.910  19.610   5.450
 1542BOLB   NC236997  25.180  20.040   3.680
 1542BOLB   PO236998  25.020  19.610   3.620
 1542BOLB   GL336999  24.800  19.830   3.930
 1542BOLB   GL437000  24.990  20.000   4.100
 1542BOLB   C1C37001  24.500  19.760   4.290
 1542BOLB   C2C37002  24.410  19.660   4.660
 1542BOLB   C3C37003  24.000  19.720   4.980
 1542BOLB   C4C37004  23.690  19.920   5.090
 1542BOLB   C1D37005  24.740  20.200   4.320
 1542BOLB   C2D37006  24.470  20.200   4.640
 1542BOLB   C3D37007  24.140  20.170   4.880
 1542BOLB   C4D37008  23.780  20.380   4.990
 1543BOLB   NC137009  24.370  25.890   9.430
 1543BOLB   PO137010  24.740  26.010   9.560
 1543BOLB   GL137011  25.180  26.020   9.640
 1543BOLB   GL237012  25.170  26.240   9.410
 1543BOLB   C1A37013  25.570  25.970   9.500
 1543BOLB   C2A37014  25.840  26.250   9.290
 1543BOLB   C3A37015  26.020  26.350   9.000
 1543BOLB   C4A37016  26.150  26.500   8.610
 1543BOLB   C1B37017  25.450  26.480   9.040
 1543BOLB   C2B37018  25.760  26.730   8.760
 1543BOLB   C3B37019  26.070  27.040   8.690
 1543BOLB   C4B37020  26.360  27.450   8.780
 1543BOLB   NC237021  28.770  26.970   7.840
 1543BOLB   PO237022  28.390  26.930   7.710
 1543BOLB   GL337023  28.000  27.000   7.970
 1543BOLB   GL437024  28.030  26.840   8.230
 1543BOLB   C1C37025  27.530  26.940   8.070
 1543BOLB   C2C37026  27.090  26.890   8.090
 1543BOLB   C3C37027  26.680  26.650   8.190
 1543BOLB   C4C37028  26.550  26.530   8.490
 1543BOLB   C1D37029  27.820  26.590   8.420
 1543BOLB   C2D37030  27.850  26.310   8.730
 1543BOLB   C3D37031  27.660  26.100   9.140
 1543BOLB   C4D37032  27.210  25.950   9.430
 1544BOLB   NC137033  13.500  15.960   7.000
 1544BOLB   PO137034  13.250  16.190   7.340
 1544BOLB   GL137035  13.020  15.900   7.260
 1544BOLB   GL237036  13.020  16.000   6.930
 1544BOLB   C1A37037  12.680  15.620   7.310
 1544BOLB   C2A37038  12.550  15.390   6.990
 1544BOLB   C3A37039  12.160  15.510   6.740
 1544BOLB   C4A37040  12.180  15.690   6.390
 1544BOLB   C1B37041  12.820  16.290   6.760
 1544BOLB   C2B37042  12.370  16.370   6.870
 1544BOLB   C3B37043  11.930  16.480   6.900
 1544BOLB   C4B37044  11.730  16.760   6.880
 1544BOLB   NC237045  10.540  14.790   4.880
 1544BOLB   PO237046  10.430  14.450   5.100
 1544BOLB   GL337047  10.700  14.760   5.360
 1544BOLB   GL437048  10.800  15.010   5.200
 1544BOLB   C1C37049  11.090  14.750   5.540
 1544BOLB   C2C37050  11.480  15.040   5.820
 1544BOLB   C3C37051  11.870  15.160   6.070
 1544BOLB   C4C37052  12.000  15.470   6.100
 1544BOLB   C1D37053  11.220  15.240   4.990
 1544BOLB   C2D37054  11.500  15.020   4.620
 1544BOLB   C3D37055  11.650  15.030   4.170
 1544BOLB   C4D37056  11.700  15.300   3.780
 1545BOLB   NC137057  11.970  19.220   7.090
 1545BOLB   PO137058  11.650  19.610   7.150
 1545BOLB   GL137059  11.510  19.510   6.820
 1545BOLB   GL237060  11.370  19.230   6.770
 1545BOLB   C1A37061  11.290  19.650   6.510
 1545BOLB   C2A37062  11.080  20.010   6.320
 1545BOLB   C3A37063  11.100  20.160   5.910
 1545BOLB   C4A37064  11.090  20.320   5.520
 1545BOLB   C1B37065  11.020  19.200   6.730
 1545BOLB   C2B37066  10.720  18.840   6.560
 1545BOLB   C3B37067  10.550  18.430   6.450
 1545BOLB   C4B37068  10.220  18.300   6.690
 1545BOLB   NC237069   9.550  19.900   3.640
 1545BOLB   PO237070   9.800  20.090   3.390
 1545BOLB   GL337071   9.820  20.270   3.840
 1545BOLB   GL437072  10.060  20.460   3.870
 1545BOLB   C1C37073   9.840  20.320   4.310
 1545BOLB   C2C37074  10.260  20.350   4.440
 1545BOLB   C3C37075  10.600  20.260   4.740
 1545BOLB   C4C37076  10.880  20.330   5.050
 1545BOLB   C1D37077  10.400  20.270   3.990
 1545BOLB   C2D37078  10.720  19.970   4.220
 1545BOLB   C3D37079  11.250  19.900   4.260
 1545BOLB   C4D37080  11.610  19.980   4.540
 1546BOLB   NC137081  17.490  17.090   5.130
 1546BOLB   PO137082  17.370  17.640   5.080
 1546BOLB   GL137083  17.540  17.470   4.720
 1546BOLB   GL237084  17.400  17.700   4.470
 1546BOLB   C1A37085  17.520  17.170   4.380
 1546BOLB   C2A37086  17.730  16.970   4.040
 1546BOLB   C3A37087  17.880  16.960   3.650
 1546BOLB   C4A37088  18.220  16.980   3.330
 1546BOLB   C1B37089  17.270  17.500   4.010
 1546BOLB   C2B37090  17.320  17.050   3.810
 1546BOLB   C3B37091  17.310  16.660   3.620
 1546BOLB   C4B37092  16.940  16.440   3.380
 1546BOLB   NC237093  18.660  15.760   1.130
 1546BOLB   PO237094  18.410  16.190   1.030
 1546BOLB   GL337095  18.380  16.200   1.420
 1546BOLB   GL437096  18.260  15.920   1.540
 1546BOLB   C1C37097  18.240  16.390   1.860
 1546BOLB   C2C37098  18.190  16.420   2.370
 1546BOLB   C3C37099  18.050  16.570   2.710
 1546BOLB   C4C37100  18.280  16.670   3.030
 1546BOLB   C1D37101  18.550  15.920   1.900
 1546BOLB   C2D37102  18.730  15.970   2.320
 1546BOLB   C3D37103  18.830  15.950   2.660
 1546BOLB   C4D37104  19.010  16.080   3.010
 1547BOLB   NC137105  23.220  16.020  14.590
 1547BOLB   PO137106  23.090  15.730  14.290
 1547BOLB   GL137107  23.350  15.530  14.620
 1547BOLB   GL237108  23.410  15.340  14.380
 1547BOLB   C1A37109  23.750  15.510  14.700
 1547BOLB   C2A37110  23.940  15.350  14.700
 1547BOLB   C3A37111  24.210  15.140  14.680
 1547BOLB   C4A37112  24.470  14.850  14.730
 1547BOLB   C1B37113  23.560  14.990  14.560
 1547BOLB   C2B37114  23.740  14.720  14.760
 1547BOLB   C3B37115  24.070  14.530  15.000
 1547BOLB   C4B37116  24.270  14.290  15.360
 1547BOLB   NC237117  26.190  12.910  15.780
 1547BOLB   PO237118  25.850  13.230  15.920
 1547BOLB   GL337119  25.430  13.360  15.800
 1547BOLB   GL437120  25.520  13.450  15.460
 1547BOLB   C1C37121  25.110  13.700  15.670
 1547BOLB   C2C37122  24.980  13.860  15.150
 1547BOLB   C3C37123  24.650  14.120  15.020
 1547BOLB   C4C37124  24.500  14.490  14.750
 1547BOLB   C1D37125  25.530  13.880  15.320
 1547BOLB   C2D37126  25.530  14.340  15.260
 1547BOLB   C3D37127  25.560  14.690  15.080
 1547BOLB   C4D37128  25.390  14.900  14.740
 1548BOLB   NC137129  18.160  19.470   4.790
 1548BOLB   PO137130  18.520  19.150   4.950
 1548BOLB   GL137131  18.600  19.120   4.570
 1548BOLB   GL237132  18.480  19.310   4.420
 1548BOLB   C1A37133  18.520  18.910   4.050
 1548BOLB   C2A37134  18.470  18.650   3.670
 1548BOLB   C3A37135  18.240  18.400   3.390
 1548BOLB   C4A37136  18.100  18.380   3.080
 1548BOLB   C1B37137  18.150  19.350   4.070
 1548BOLB   C2B37138  18.240  19.220   3.700
 1548BOLB   C3B37139  18.480  19.300   3.370
 1548BOLB   C4B37140  18.600  19.670   3.290
 1548BOLB   NC237141  18.780  18.110   0.740
 1548BOLB   PO237142  18.850  17.750   0.900
 1548BOLB   GL337143  18.800  17.850   1.310
 1548BOLB   GL437144  18.740  17.630   1.460
 1548BOLB   C1C37145  18.770  18.180   1.680
 1548BOLB   C2C37146  18.700  18.320   2.160
 1548BOLB   C3C37147  18.360  18.490   2.300
 1548BOLB   C4C37148  18.310  18.490   2.680
 1548BOLB   C1D37149  18.640  17.740   1.930
 1548BOLB   C2D37150  18.490  17.890   2.290
 1548BOLB   C3D37151  18.530  18.030   2.740
 1548BOLB   C4D37152  18.600  18.140   3.080
 1549BOLB   NC137153  23.070  26.460   8.350
 1549BOLB   PO137154  23.390  26.440   8.520
 1549BOLB   GL137155  23.480  26.630   8.120
 1549BOLB   GL237156  23.380  26.370   7.920
 1549BOLB   C1A37157  23.670  26.910   8.000
 1549BOLB   C2A37158  24.120  27.080   7.880
 1549BOLB   C3A37159  24.520  27.240   7.660
 1549BOLB   C4A37160  24.740  27.560   7.550
 1549BOLB   C1B37161  23.600  26.580   7.610
 1549BOLB   C2B37162  23.860  26.920   7.500
 1549BOLB   C3B37163  24.180  27.000   7.370
 1549BOLB   C4B37164  24.620  26.760   7.590
 1549BOLB   NC237165  24.840  27.850   4.960
 1549BOLB   PO237166  25.320  27.710   5.100
 1549BOLB   GL337167  25.090  27.820   5.450
 1549BOLB   GL437168  24.760  28.040   5.380
 1549BOLB   C1C37169  25.110  27.650   5.910
 1549BOLB   C2C37170  25.250  27.810   6.310
 1549BOLB   C3C37171  25.140  27.660   6.740
 1549BOLB   C4C37172  24.820  27.710   7.120
 1549BOLB   C1D37173  24.670  27.670   5.600
 1549BOLB   C2D37174  24.640  27.430   5.900
 1549BOLB   C3D37175  24.760  27.060   6.260
 1549BOLB   C4D37176  24.740  26.680   6.520
 1550BOLB   NC137177  21.090  28.120   8.640
 1550BOLB   PO137178  21.390  28.320   8.710
 1550BOLB   GL137179  21.690  28.430   8.430
 1550BOLB   GL237180  21.390  28.360   8.230
 1550BOLB   C1A37181  21.880  28.630   8.110
 1550BOLB   C2A37182  21.850  28.970   7.850
 1550BOLB   C3A37183  21.800  28.980   7.470
 1550BOLB   C4A37184  21.690  29.140   7.110
 1550BOLB   C1B37185  21.140  28.680   7.970
 1550BOLB   C2B37186  21.370  28.980   7.850
 1550BOLB   C3B37187  21.500  29.300   7.720
 1550BOLB   C4B37188  21.720  29.620   7.940
 1550BOLB   NC237189  22.110  30.960   5.610
 1550BOLB   PO237190  21.610  31.090   5.740
 1550BOLB   GL337191  21.530  30.700   6.040
 1550BOLB   GL437192  21.730  30.580   6.160
 1550BOLB   C1C37193  21.290  30.280   6.100
 1550BOLB   C2C37194  21.350  29.800   6.100
 1550BOLB   C3C37195  21.410  29.560   6.400
 1550BOLB   C4C37196  21.510  29.230   6.730
 1550BOLB   C1D37197  21.560  30.410   6.570
 1550BOLB   C2D37198  21.350  30.080   6.570
 1550BOLB   C3D37199  21.020  29.760   6.700
 1550BOLB   C4D37200  20.930  29.350   6.760
 1551BOLB   NC137201  10.040  24.010  10.100
 1551BOLB   PO137202   9.860  24.350  10.520
 1551BOLB   GL137203   9.690  24.500  10.110
 1551BOLB   GL237204   9.840  24.930  10.030
 1551BOLB   C1A37205   9.330  24.560   9.940
 1551BOLB   C2A37206   9.120  24.920   9.890
 1551BOLB   C3A37207   8.990  25.290   9.760
 1551BOLB   C4A37208   8.990  25.480   9.410
 1551BOLB   C1B37209   9.520  25.050   9.660
 1551BOLB   C2B37210   9.410  25.260   9.290
 1551BOLB   C3B37211   9.240  25.410   8.950
 1551BOLB   C4B37212   9.380  25.770   8.740
 1551BOLB   NC237213   7.660  27.320   8.670
 1551BOLB   PO237214   7.890  27.220   8.270
 1551BOLB   GL337215   8.260  27.040   8.460
 1551BOLB   GL437216   8.510  27.360   8.610
 1551BOLB   C1C37217   8.400  26.680   8.340
 1551BOLB   C2C37218   8.600  26.300   8.550
 1551BOLB   C3C37219   8.660  25.930   8.800
 1551BOLB   C4C37220   8.800  25.540   9.080
 1551BOLB   C1D37221   8.780  27.230   8.940
 1551BOLB   C2D37222   8.770  26.970   9.230
 1551BOLB   C3D37223   8.770  26.890   9.670
 1551BOLB   C4D37224   8.930  26.820  10.020
 1552BOLB   NC137225  24.010  23.300   7.730
 1552BOLB   PO137226  24.270  22.900   7.840
 1552BOLB   GL137227  24.510  22.890   7.540
 1552BOLB   GL237228  24.510  23.250   7.470
 1552BOLB   C1A37229  24.640  22.750   7.170
 1552BOLB   C2A37230  24.860  22.600   6.790
 1552BOLB   C3A37231  24.940  22.360   6.430
 1552BOLB   C4A37232  24.970  21.920   6.270
 1552BOLB   C1B37233  24.700  23.390   7.150
 1552BOLB   C2B37234  25.000  23.520   6.800
 1552BOLB   C3B37235  25.330  23.780   6.670
 1552BOLB   C4B37236  25.570  24.110   6.570
 1552BOLB   NC237237  26.340  21.310   4.140
 1552BOLB   PO237238  26.030  21.440   4.350
 1552BOLB   GL337239  25.870  21.380   4.720
 1552BOLB   GL437240  25.490  21.420   4.720
 1552BOLB   C1C37241  25.900  21.240   5.180
 1552BOLB   C2C37242  25.600  21.180   5.530
 1552BOLB   C3C37243  25.400  21.340   5.920
 1552BOLB   C4C37244  25.060  21.530   6.020
 1552BOLB   C1D37245  25.270  21.820   4.610
 1552BOLB   C2D37246  25.000  22.170   4.810
 1552BOLB   C3D37247  24.690  22.210   5.190
 1552BOLB   C4D37248  24.490  21.860   5.370
 1553BOLB   NC137249  15.950  17.820   4.790
 1553BOLB   PO137250  15.980  18.200   4.680
 1553BOLB   GL137251  16.170  17.940   4.330
 1553BOLB   GL237252  16.220  17.630   4.430
 1553BOLB   C1A37253  16.140  17.990   3.870
 1553BOLB   C2A37254  16.280  17.760   3.550
 1553BOLB   C3A37255  16.320  17.650   3.060
 1553BOLB   C4A37256  16.310  17.600   2.610
 1553BOLB   C1B37257  15.840  17.580   4.160
 1553BOLB   C2B37258  15.500  17.480   3.980
 1553BOLB   C3B37259  15.260  17.640   3.700
 1553BOLB   C4B37260  14.860  17.750   3.610
 1553BOLB   NC237261  15.320  17.270   0.910
 1553BOLB   PO237262  15.130  16.950   0.980
 1553BOLB   GL337263  15.180  17.210   1.390
 1553BOLB   GL437264  15.070  16.910   1.540
 1553BOLB   C1C37265  15.490  17.190   1.660
 1553BOLB   C2C37266  15.560  17.090   1.990
 1553BOLB   C3C37267  15.680  17.270   2.400
 1553BOLB   C4C37268  15.940  17.630   2.360
 1553BOLB   C1D37269  14.970  17.070   2.030
 1553BOLB   C2D37270  15.050  17.290   2.490
 1553BOLB   C3D37271  15.330  17.450   2.800
 1553BOLB   C4D37272  15.360  17.840   3.060
 1554BOLB   NC137273  11.990  14.980   1.910
 1554BOLB   PO137274  12.080  15.160   2.320
 1554BOLB   GL137275  12.300  15.410   2.720
 1554BOLB   GL237276  12.690  15.380   2.870
 1554BOLB   C1A37277  12.360  15.580   3.200
 1554BOLB   C2A37278  12.420  15.500   3.580
 1554BOLB   C3A37279  12.710  15.440   3.960
 1554BOLB   C4A37280  12.600  15.340   4.370
 1554BOLB   C1B37281  12.800  15.630   3.090
 1554BOLB   C2B37282  12.820  15.810   3.400
 1554BOLB   C3B37283  12.890  15.960   3.820
 1554BOLB   C4B37284  12.970  15.860   4.290
 1554BOLB   NC237285  11.030  14.080   4.610
 1554BOLB   PO237286  11.230  14.140   4.210
 1554BOLB   GL337287  11.510  14.190   4.460
 1554BOLB   GL437288  11.320  14.480   4.610
 1554BOLB   C1C37289  11.700  14.100   4.830
 1554BOLB   C2C37290  12.050  14.230   4.850
 1554BOLB   C3C37291  12.270  14.630   4.790
 1554BOLB   C4C37292  12.570  14.940   4.570
 1554BOLB   C1D37293  11.740  14.590   4.720
 1554BOLB   C2D37294  11.980  14.810   5.100
 1554BOLB   C3D37295  12.440  14.840   5.380
 1554BOLB   C4D37296  12.800  14.940   5.620
 1555BOLB   NC137297  16.490  21.710   4.920
 1555BOLB   PO137298  16.730  21.270   5.010
 1555BOLB   GL137299  16.720  21.430   4.570
 1555BOLB   GL237300  16.640  21.210   4.350
 1555BOLB   C1A37301  16.920  21.630   4.230
 1555BOLB   C2A37302  16.990  21.670   3.790
 1555BOLB   C3A37303  17.020  21.590   3.440
 1555BOLB   C4A37304  17.260  21.740   2.920
 1555BOLB   C1B37305  16.440  21.490   4.000
 1555BOLB   C2B37306  16.510  21.520   3.610
 1555BOLB   C3B37307  16.740  21.270   3.240
 1555BOLB   C4B37308  16.910  21.230   2.820
 1555BOLB   NC237309  17.640  20.270   0.620
 1555BOLB   PO237310  17.790  20.740   0.590
 1555BOLB   GL337311  17.670  20.930   1.000
 1555BOLB   GL437312  17.910  20.710   1.180
 1555BOLB   C1C37313  17.650  21.040   1.440
 1555BOLB   C2C37314  17.440  21.470   1.620
 1555BOLB   C3C37315  17.260  21.640   2.000
 1555BOLB   C4C37316  17.230  21.800   2.470
 1555BOLB   C1D37317  17.490  20.580   1.390
 1555BOLB   C2D37318  17.100  20.540   1.670
 1555BOLB   C3D37319  16.750  20.540   1.880
 1555BOLB   C4D37320  16.460  20.600   2.140
 1556BOLB   NC137321  19.040  29.410  10.290
 1556BOLB   PO137322  18.640  29.460  10.020
 1556BOLB   GL137323  18.420  29.870   9.880
 1556BOLB   GL237324  18.220  29.900   9.560
 1556BOLB   C1A37325  18.250  30.250   9.860
 1556BOLB   C2A37326  18.220  30.610   9.610
 1556BOLB   C3A37327  18.140  31.020   9.360
 1556BOLB   C4A37328  18.480  31.300   9.280
 1556BOLB   C1B37329  17.890  30.200   9.490
 1556BOLB   C2B37330  17.780  30.590   9.180
 1556BOLB   C3B37331  17.710  30.630   8.770
 1556BOLB   C4B37332  17.360  30.540   8.420
 1556BOLB   NC237333  19.490  33.270   8.560
 1556BOLB   PO237334  19.120  33.450   8.880
 1556BOLB   GL337335  19.110  32.920   8.750
 1556BOLB   GL437336  18.900  32.800   8.470
 1556BOLB   C1C37337  19.070  32.520   8.940
 1556BOLB   C2C37338  19.230  32.090   8.960
 1556BOLB   C3C37339  19.100  31.710   8.970
 1556BOLB   C4C37340  18.760  31.550   9.230
 1556BOLB   C1D37341  18.750  32.340   8.550
 1556BOLB   C2D37342  18.720  32.010   8.790
 1556BOLB   C3D37343  18.440  31.740   8.890
 1556BOLB   C4D37344  18.090  31.490   9.040
 1557BOLB   NC137345  10.590  17.200  18.620
 1557BOLB   PO137346  10.970  17.410  18.830
 1557BOLB   GL137347  10.570  17.650  18.990
 1557BOLB   GL237348  10.490  17.430  19.080
 1557BOLB   C1A37349  10.170  17.890  19.010
 1557BOLB   C2A37350   9.890  17.800  19.260
 1557BOLB   C3A37351   9.810  17.480  19.420
 1557BOLB   C4A37352   9.460  17.200  19.640
 1557BOLB   C1B37353  10.250  17.520  19.470
 1557BOLB   C2B37354  10.140  17.830  19.750
 1557BOLB   C3B37355   9.840  18.120  20.060
 1557BOLB   C4B37356   9.850  18.550  20.260
 1557BOLB   NC237357   8.170  16.290  21.070
 1557BOLB   PO237358   7.830  16.320  20.810
 1557BOLB   GL337359   8.120  16.330  20.440
 1557BOLB   GL437360   8.520  16.520  20.560
 1557BOLB   C1C37361   8.330  16.230  20.070
 1557BOLB   C2C37362   8.650  16.450  19.910
 1557BOLB   C3C37363   8.870  16.720  19.880
 1557BOLB   C4C37364   9.230  16.930  19.760
 1557BOLB   C1D37365   8.880  16.690  20.350
 1557BOLB   C2D37366   9.200  17.030  20.370
 1557BOLB   C3D37367   9.630  17.150  20.110
 1557BOLB   C4D37368   9.830  17.450  19.900
 1558BOLB   NC137369  21.710  17.560   7.910
 1558BOLB   PO137370  21.530  17.290   8.010
 1558BOLB   GL137371  22.000  17.140   7.810
 1558BOLB   GL237372  22.080  16.880   8.000
 1558BOLB   C1A37373  22.330  16.890   7.520
 1558BOLB   C2A37374  22.490  16.430   7.390
 1558BOLB   C3A37375  22.370  16.030   7.230
 1558BOLB   C4A37376  22.630  15.750   6.980
 1558BOLB   C1B37377  22.200  16.360   7.910
 1558BOLB   C2B37378  22.570  16.080   7.730
 1558BOLB   C3B37379  22.880  15.830   7.950
 1558BOLB   C4B37380  23.160  15.770   8.280
 1558BOLB   NC237381  23.960  15.120   5.230
 1558BOLB   PO237382  24.240  15.230   5.460
 1558BOLB   GL337383  24.040  15.540   5.580
 1558BOLB   GL437384  24.290  15.560   5.850
 1558BOLB   C1C37385  23.630  15.580   5.520
 1558BOLB   C2C37386  23.380  15.430   5.980
 1558BOLB   C3C37387  23.220  15.450   6.360
 1558BOLB   C4C37388  22.930  15.620   6.740
 1558BOLB   C1D37389  24.040  15.660   6.140
 1558BOLB   C2D37390  23.680  15.690   6.290
 1558BOLB   C3D37391  23.410  15.870   6.550
 1558BOLB   C4D37392  23.040  16.140   6.440
 1559BOLB   NC137393  20.350  28.140   8.420
 1559BOLB   PO137394  20.560  28.030   8.700
 1559BOLB   GL137395  20.640  28.500   8.530
 1559BOLB   GL237396  21.020  28.620   8.430
 1559BOLB   C1A37397  20.670  28.830   8.180
 1559BOLB   C2A37398  20.690  29.210   7.850
 1559BOLB   C3A37399  20.540  29.680   7.640
 1559BOLB   C4A37400  20.280  30.030   7.580
 1559BOLB   C1B37401  21.460  28.820   8.350
 1559BOLB   C2B37402  21.600  29.180   8.280
 1559BOLB   C3B37403  21.410  29.520   8.340
 1559BOLB   C4B37404  21.040  29.760   8.360
 1559BOLB   NC237405  19.950  32.430   6.300
 1559BOLB   PO237406  19.920  32.180   6.640
 1559BOLB   GL337407  19.960  31.700   6.730
 1559BOLB   GL437408  19.670  31.670   6.580
 1559BOLB   C1C37409  20.080  31.260   6.820
 1559BOLB   C2C37410  19.960  30.960   6.950
 1559BOLB   C3C37411  19.910  30.590   7.170
 1559BOLB   C4C37412  20.280  30.360   7.240
 1559BOLB   C1D37413  19.510  31.290   6.870
 1559BOLB   C2D37414  19.150  31.080   6.730
 1559BOLB   C3D37415  18.690  30.930   6.770
 1559BOLB   C4D37416  18.300  31.100   6.670
 1560BOLB   NC137417  23.700  21.710   8.170
 1560BOLB   PO137418  23.630  21.980   7.780
 1560BOLB   GL137419  23.980  21.990   7.550
 1560BOLB   GL237420  23.890  21.800   7.280
 1560BOLB   C1A37421  24.400  22.010   7.580
 1560BOLB   C2A37422  24.640  22.300   7.630
 1560BOLB   C3A37423  24.940  22.330   7.250
 1560BOLB   C4A37424  25.300  22.330   6.970
 1560BOLB   C1B37425  24.270  21.680   6.990
 1560BOLB   C2B37426  24.660  21.370   7.120
 1560BOLB   C3B37427  24.780  20.990   6.880
 1560BOLB   C4B37428  24.960  20.910   6.580
 1560BOLB   NC237429  27.740  22.410   6.110
 1560BOLB   PO237430  27.680  21.990   6.280
 1560BOLB   GL337431  27.280  22.160   6.230
 1560BOLB   GL437432  27.100  21.940   6.150
 1560BOLB   C1C37433  26.900  22.340   6.430
 1560BOLB   C2C37434  26.560  22.180   6.600
 1560BOLB   C3C37435  26.140  22.160   6.680
 1560BOLB   C4C37436  25.720  22.190   6.890
 1560BOLB   C1D37437  26.890  21.580   6.170
 1560BOLB   C2D37438  26.610  21.680   6.460
 1560BOLB   C3D37439  26.310  21.700   6.910
 1560BOLB   C4D37440  26.010  21.850   7.120
 1561BOLB   NC137441  22.070  28.940  12.390
 1561BOLB   PO137442  22.500  29.030  12.170
 1561BOLB   GL137443  22.690  29.430  12.060
 1561BOLB   GL237444  23.040  29.400  11.950
 1561BOLB   C1A37445  22.670  29.880  11.960
 1561BOLB   C2A37446  22.760  30.300  11.940
 1561BOLB   C3A37447  22.850  30.680  12.130
 1561BOLB   C4A37448  22.800  31.080  11.980
 1561BOLB   C1B37449  23.360  29.670  11.840
 1561BOLB   C2B37450  23.650  29.970  11.850
 1561BOLB   C3B37451  24.000  30.220  11.890
 1561BOLB   C4B37452  24.100  30.520  11.680
 1561BOLB   NC237453  24.610  32.760  11.760
 1561BOLB   PO237454  24.210  32.940  11.940
 1561BOLB   GL337455  23.880  32.660  11.770
 1561BOLB   GL437456  24.170  32.680  11.510
 1561BOLB   C1C37457  23.600  32.390  11.910
 1561BOLB   C2C37458  23.250  32.140  11.930
 1561BOLB   C3C37459  23.110  31.740  11.960
 1561BOLB   C4C37460  22.800  31.510  12.000
 1561BOLB   C1D37461  23.750  32.520  11.290
 1561BOLB   C2D37462  23.480  32.170  11.470
 1561BOLB   C3D37463  23.420  31.770  11.540
 1561BOLB   C4D37464  23.160  31.380  11.650
 1562BOLB   NC137465  20.340  14.890   9.580
 1562BOLB   PO137466  20.750  14.890   9.760
 1562BOLB   GL137467  20.940  14.670   9.350
 1562BOLB   GL237468  21.020  14.920   9.060
 1562BOLB   C1A37469  20.880  14.360   9.130
 1562BOLB   C2A37470  20.910  14.020   8.800
 1562BOLB   C3A37471  20.930  13.520   8.850
 1562BOLB   C4A37472  20.850  13.100   9.040
 1562BOLB   C1B37473  21.410  14.520   9.080
 1562BOLB   C2B37474  21.720  14.170   9.150
 1562BOLB   C3B37475  21.880  13.710   9.090
 1562BOLB   C4B37476  21.860  13.470   9.490
 1562BOLB   NC237477  22.890  11.560   8.520
 1562BOLB   PO237478  22.430  11.570   8.350
 1562BOLB   GL337479  22.220  11.860   8.520
 1562BOLB   GL437480  22.200  12.230   8.490
 1562BOLB   C1C37481  21.940  11.810   8.860
 1562BOLB   C2C37482  21.520  12.050   9.070
 1562BOLB   C3C37483  21.220  12.380   9.050
 1562BOLB   C4C37484  20.970  12.690   8.930
 1562BOLB   C1D37485  21.960  12.530   8.740
 1562BOLB   C2D37486  21.790  12.910   8.910
 1562BOLB   C3D37487  21.580  13.230   9.090
 1562BOLB   C4D37488  21.300  13.390   9.130
 1563BOLB   NC137489  13.080  26.530   9.080
 1563BOLB   PO137490  13.400  26.780   9.040
 1563BOLB   GL137491  13.220  27.000   8.720
 1563BOLB   GL237492  13.200  26.830   8.440
 1563BOLB   C1A37493  12.800  27.020   8.720
 1563BOLB   C2A37494  12.570  27.330   8.980
 1563BOLB   C3A37495  12.200  27.590   8.840
 1563BOLB   C4A37496  12.310  27.930   8.550
 1563BOLB   C1B37497  12.990  27.040   8.200
 1563BOLB   C2B37498  12.710  27.180   7.970
 1563BOLB   C3B37499  12.530  27.440   7.650
 1563BOLB   C4B37500  12.590  27.420   7.260
 1563BOLB   NC237501   9.660  28.390   7.370
 1563BOLB   PO237502  10.030  28.640   7.510
 1563BOLB   GL337503  10.410  28.450   7.620
 1563BOLB   GL437504  10.550  28.410   7.230
 1563BOLB   C1C37505  10.880  28.400   7.870
 1563BOLB   C2C37506  11.270  28.130   7.830
 1563BOLB   C3C37507  11.740  28.220   8.020
 1563BOLB   C4C37508  12.120  28.040   8.180
 1563BOLB   C1D37509  10.660  28.070   7.550
 1563BOLB   C2D37510  10.880  27.700   7.720
 1563BOLB   C3D37511  10.860  27.280   7.910
 1563BOLB   C4D37512  10.920  26.890   8.130
 1564BOLB   NC137513  20.350  23.720   5.960
 1564BOLB   PO137514  20.640  23.990   5.890
 1564BOLB   GL137515  20.580  23.770   5.500
 1564BOLB   GL237516  20.740  23.490   5.480
 1564BOLB   C1A37517  20.770  23.910   5.150
 1564BOLB   C2A37518  20.770  23.850   4.750
 1564BOLB   C3A37519  20.750  24.080   4.330
 1564BOLB   C4A37520  20.770  24.240   3.900
 1564BOLB   C1B37521  20.790  23.440   5.000
 1564BOLB   C2B37522  21.020  23.350   4.640
 1564BOLB   C3B37523  21.310  23.420   4.280
 1564BOLB   C4B37524  21.340  23.300   3.830
 1564BOLB   NC237525  21.820  25.470   1.930
 1564BOLB   PO237526  22.120  25.350   2.260
 1564BOLB   GL337527  21.910  25.120   2.550
 1564BOLB   GL437528  22.140  25.100   2.850
 1564BOLB   C1C37529  21.720  25.240   3.000
 1564BOLB   C2C37530  21.310  24.930   3.110
 1564BOLB   C3C37531  21.330  24.510   3.170
 1564BOLB   C4C37532  21.100  24.400   3.590
 1564BOLB   C1D37533  22.290  24.740   2.970
 1564BOLB   C2D37534  22.350  24.540   3.410
 1564BOLB   C3D37535  22.130  24.570   3.820
 1564BOLB   C4D37536  22.300  24.750   4.210
 1565BOLB   NC137537  22.890  28.750  11.310
 1565BOLB   PO137538  23.080  28.760  11.700
 1565BOLB   GL137539  23.470  28.980  11.530
 1565BOLB   GL237540  23.330  29.220  11.430
 1565BOLB   C1A37541  23.760  29.130  11.160
 1565BOLB   C2A37542  24.140  29.540  11.150
 1565BOLB   C3A37543  24.410  29.900  11.010
 1565BOLB   C4A37544  24.410  30.380  10.830
 1565BOLB   C1B37545  23.620  29.580  11.350
 1565BOLB   C2B37546  23.720  30.000  11.360
 1565BOLB   C3B37547  23.590  30.430  11.560
 1565BOLB   C4B37548  23.410  30.840  11.390
 1565BOLB   NC237549  25.650  32.110   9.060
 1565BOLB   PO237550  25.800  31.850   9.400
 1565BOLB   GL337551  25.690  31.490   9.640
 1565BOLB   GL437552  25.500  31.810   9.930
 1565BOLB   C1C37553  25.540  31.360  10.080
 1565BOLB   C2C37554  25.300  31.200  10.420
 1565BOLB   C3C37555  25.010  30.950  10.640
 1565BOLB   C4C37556  24.710  30.660  10.760
 1565BOLB   C1D37557  25.130  31.680  10.200
 1565BOLB   C2D37558  24.870  31.330  10.160
 1565BOLB   C3D37559  24.500  31.220  10.080
 1565BOLB   C4D37560  24.160  31.300   9.810
 1566BOLB   NC137561  15.740  14.030  14.190
 1566BOLB   PO137562  15.700  13.990  14.660
 1566BOLB   GL137563  15.720  14.380  14.740
 1566BOLB   GL237564  15.560  14.580  15.110
 1566BOLB   C1A37565  15.820  14.820  14.710
 1566BOLB   C2A37566  16.290  14.980  14.790
 1566BOLB   C3A37567  16.420  15.310  14.410
 1566BOLB   C4A37568  16.520  15.590  14.090
 1566BOLB   C1B37569  15.290  14.930  14.970
 1566BOLB   C2B37570  14.970  15.190  14.710
 1566BOLB   C3B37571  14.540  15.320  14.780
 1566BOLB   C4B37572  14.220  15.070  14.640
 1566BOLB   NC237573  17.040  17.980  13.200
 1566BOLB   PO237574  17.090  17.650  13.600
 1566BOLB   GL337575  16.970  17.310  13.440
 1566BOLB   GL437576  16.680  17.420  13.660
 1566BOLB   C1C37577  16.980  16.850  13.330
 1566BOLB   C2C37578  17.080  16.410  13.390
 1566BOLB   C3C37579  16.960  16.130  13.710
 1566BOLB   C4C37580  16.920  15.740  13.930
 1566BOLB   C1D37581  16.400  17.030  13.620
 1566BOLB   C2D37582  16.620  16.630  13.600
 1566BOLB   C3D37583  16.590  16.280  13.410
 1566BOLB   C4D37584  16.310  15.950  13.060
 1567BOLB   NC137585  24.290  17.830  12.400
 1567BOLB   PO137586  24.730  17.890  12.230
 1567BOLB   GL137587  24.940  17.630  12.300
 1567BOLB   GL237588  25.000  17.370  11.970
 1567BOLB   C1A37589  25.370  17.460  12.380
 1567BOLB   C2A37590  25.690  17.340  12.500
 1567BOLB   C3A37591  26.060  17.140  12.350
 1567BOLB   C4A37592  26.460  16.990  12.470
 1567BOLB   C1B37593  25.350  17.070  12.080
 1567BOLB   C2B37594  25.790  17.190  11.930
 1567BOLB   C3B37595  26.200  17.080  11.830
 1567BOLB   C4B37596  26.630  17.170  12.080
 1567BOLB   NC237597  27.650  15.000  13.050
 1567BOLB   PO237598  27.960  14.990  12.810
 1567BOLB   GL337599  27.760  15.370  12.650
 1567BOLB   GL437600  27.890  15.370  12.340
 1567BOLB   C1C37601  27.560  15.650  12.610
 1567BOLB   C2C37602  27.160  16.020  12.570
 1567BOLB   C3C37603  26.870  16.250  12.540
 1567BOLB   C4C37604  26.710  16.640  12.420
 1567BOLB   C1D37605  27.780  15.780  12.160
 1567BOLB   C2D37606  27.450  16.050  12.120
 1567BOLB   C3D37607  27.150  16.070  11.790
 1567BOLB   C4D37608  26.790  16.140  11.600
 1568BOLB   NC137609  11.960  19.880   6.780
 1568BOLB   PO137610  12.170  19.520   6.710
 1568BOLB   GL137611  11.810  19.250   6.530
 1568BOLB   GL237612  11.880  19.150   6.240
 1568BOLB   C1A37613  11.350  19.210   6.300
 1568BOLB   C2A37614  11.010  19.100   6.150
 1568BOLB   C3A37615  10.670  18.970   6.060
 1568BOLB   C4A37616  10.280  18.980   5.860
 1568BOLB   C1B37617  11.920  18.830   6.100
 1568BOLB   C2B37618  11.830  18.610   5.750
 1568BOLB   C3B37619  11.670  18.270   5.580
 1568BOLB   C4B37620  11.520  18.050   5.300
 1568BOLB   NC237621   7.720  18.550   6.540
 1568BOLB   PO237622   7.980  18.290   6.230
 1568BOLB   GL337623   8.290  18.360   5.950
 1568BOLB   GL437624   8.360  18.720   5.890
 1568BOLB   C1C37625   8.780  18.590   6.010
 1568BOLB   C2C37626   9.130  18.570   6.220
 1568BOLB   C3C37627   9.510  18.550   6.100
 1568BOLB   C4C37628   9.890  18.670   5.890
 1568BOLB   C1D37629   8.390  19.180   6.040
 1568BOLB   C2D37630   8.650  19.530   6.130
 1568BOLB   C3D37631   8.640  19.950   6.100
 1568BOLB   C4D37632   8.960  20.300   6.060
 1569BOLB   NC137633  11.280  20.900   7.250
 1569BOLB   PO137634  11.290  20.520   7.050
 1569BOLB   GL137635  11.000  20.780   6.820
 1569BOLB   GL237636  11.000  21.100   6.850
 1569BOLB   C1A37637  10.560  20.890   6.650
 1569BOLB   C2A37638  10.370  20.650   6.270
 1569BOLB   C3A37639  10.040  20.380   6.130
 1569BOLB   C4A37640   9.690  20.470   5.970
 1569BOLB   C1B37641  10.910  21.340   6.510
 1569BOLB   C2B37642  10.700  21.420   6.110
 1569BOLB   C3B37643  10.580  21.450   5.690
 1569BOLB   C4B37644  10.570  21.550   5.310
 1569BOLB   NC237645   7.880  19.940   5.180
 1569BOLB   PO237646   7.500  20.300   5.100
 1569BOLB   GL337647   7.840  20.420   5.370
 1569BOLB   GL437648   7.970  20.190   5.570
 1569BOLB   C1C37649   8.190  20.670   5.490
 1569BOLB   C2C37650   8.570  20.700   5.300
 1569BOLB   C3C37651   8.990  20.530   5.560
 1569BOLB   C4C37652   9.300  20.620   5.800
 1569BOLB   C1D37653   8.370  20.190   5.660
 1569BOLB   C2D37654   8.560  20.560   5.850
 1569BOLB   C3D37655   8.750  20.770   6.150
 1569BOLB   C4D37656   9.070  21.040   6.250
 1570BOLB   NC137657  20.450  26.610   7.680
 1570BOLB   PO137658  20.230  27.050   7.790
 1570BOLB   GL137659  20.380  27.480   7.610
 1570BOLB   GL237660  20.310  27.530   7.310
 1570BOLB   C1A37661  20.590  27.920   7.520
 1570BOLB   C2A37662  20.650  28.370   7.360
 1570BOLB   C3A37663  20.610  28.890   7.160
 1570BOLB   C4A37664  20.710  29.320   7.230
 1570BOLB   C1B37665  20.280  27.430   6.820
 1570BOLB   C2B37666  20.160  27.690   6.590
 1570BOLB   C3B37667  20.390  27.860   6.290
 1570BOLB   C4B37668  20.860  27.850   6.550
 1570BOLB   NC237669  21.350  31.550   5.690
 1570BOLB   PO237670  20.980  31.300   5.750
 1570BOLB   GL337671  21.180  31.050   6.130
 1570BOLB   GL437672  21.450  31.170   6.330
 1570BOLB   C1C37673  21.100  30.750   6.340
 1570BOLB   C2C37674  21.020  30.420   6.600
 1570BOLB   C3C37675  20.840  30.210   6.850
 1570BOLB   C4C37676  20.750  29.860   7.210
 1570BOLB   C1D37677  21.700  31.000   6.610
 1570BOLB   C2D37678  21.850  30.650   6.890
 1570BOLB   C3D37679  21.780  30.030   6.880
 1570BOLB   C4D37680  21.800  29.670   7.090
 1571BOLB   NC137681  24.850  19.220  10.890
 1571BOLB   PO137682  24.930  19.580  11.080
 1571BOLB   GL137683  25.330  19.350  10.880
 1571BOLB   GL237684  25.370  19.000  11.000
 1571BOLB   C1A37685  25.800  19.370  10.880
 1571BOLB   C2A37686  26.160  19.310  10.590
 1571BOLB   C3A37687  26.530  19.330  10.350
 1571BOLB   C4A37688  26.970  19.330  10.230
 1571BOLB   C1B37689  25.780  18.980  11.290
 1571BOLB   C2B37690  26.210  18.990  11.530
 1571BOLB   C3B37691  26.420  19.390  11.520
 1571BOLB   C4B37692  26.900  19.540  11.610
 1571BOLB   NC237693  29.660  20.410   9.970
 1571BOLB   PO237694  29.280  20.320  10.230
 1571BOLB   GL337695  28.850  20.230  10.270
 1571BOLB   GL437696  28.960  20.370  10.650
 1571BOLB   C1C37697  28.450  20.160  10.290
 1571BOLB   C2C37698  28.100  19.820  10.100
 1571BOLB   C3C37699  27.720  19.760  10.250
 1571BOLB   C4C37700  27.360  19.440  10.170
 1571BOLB   C1D37701  28.570  20.510  10.640
 1571BOLB   C2D37702  28.220  20.680  10.770
 1571BOLB   C3D37703  27.900  20.790  11.030
 1571BOLB   C4D37704  27.490  20.810  11.300
 1572BOLB   NC137705  13.050  17.880   8.580
 1572BOLB   PO137706  13.480  17.990   8.560
 1572BOLB   GL137707  13.340  17.620   8.910
 1572BOLB   GL237708  13.010  17.810   9.100
 1572BOLB   C1A37709  13.170  17.310   9.180
 1572BOLB   C2A37710  12.980  16.890   9.240
 1572BOLB   C3A37711  12.890  16.700   9.630
 1572BOLB   C4A37712  12.720  16.340   9.800
 1572BOLB   C1B37713  12.560  17.700   9.360
 1572BOLB   C2B37714  12.310  17.440   9.570
 1572BOLB   C3B37715  11.970  17.190   9.780
 1572BOLB   C4B37716  11.560  17.110   9.880
 1572BOLB   NC237717  10.660  16.050  10.600
 1572BOLB   PO237718  10.860  16.110  10.940
 1572BOLB   GL337719  11.190  16.130  10.720
 1572BOLB   GL437720  11.170  15.820  10.660
 1572BOLB   C1C37721  11.420  16.460  10.590
 1572BOLB   C2C37722  11.860  16.410  10.610
 1572BOLB   C3C37723  12.200  16.420  10.410
 1572BOLB   C4C37724  12.370  16.340  10.090
 1572BOLB   C1D37725  11.280  15.720  10.270
 1572BOLB   C2D37726  11.680  15.630  10.110
 1572BOLB   C3D37727  12.060  15.430  10.080
 1572BOLB   C4D37728  12.280  15.080  10.130
 1573BOLB   NC137729  21.390  26.890   7.800
 1573BOLB   PO137730  21.830  26.580   7.790
 1573BOLB   GL137731  21.830  26.670   7.320
 1573BOLB   GL237732  21.640  26.820   7.280
 1573BOLB   C1A37733  22.190  26.870   7.050
 1573BOLB   C2A37734  22.330  26.980   6.680
 1573BOLB   C3A37735  22.480  27.180   6.270
 1573BOLB   C4A37736  22.510  27.300   5.800
 1573BOLB   C1B37737  21.690  27.000   6.880
 1573BOLB   C2B37738  21.690  27.370   6.650
 1573BOLB   C3B37739  21.770  27.680   6.370
 1573BOLB   C4B37740  21.980  27.960   6.170
 1573BOLB   NC237741  22.300  28.350   3.420
 1573BOLB   PO237742  22.190  27.980   3.560
 1573BOLB   GL337743  22.390  27.820   3.960
 1573BOLB   GL437744  22.350  27.490   4.040
 1573BOLB   C1C37745  22.590  27.730   4.390
 1573BOLB   C2C37746  22.820  27.800   4.770
 1573BOLB   C3C37747  22.650  27.570   5.110
 1573BOLB   C4C37748  22.400  27.540   5.460
 1573BOLB   C1D37749  21.920  27.580   4.230
 1573BOLB   C2D37750  21.520  27.450   4.130
 1573BOLB   C3D37751  21.150  27.340   4.350
 1573BOLB   C4D37752  21.120  27.140   4.640
 1574BOLB   NC137753  12.970  23.930   7.150
 1574BOLB   PO137754  12.540  23.550   7.000
 1574BOLB   GL137755  12.580  23.860   6.830
 1574BOLB   GL237756  12.160  23.800   6.670
 1574BOLB   C1A37757  12.590  24.040   6.420
 1574BOLB   C2A37758  12.530  23.910   6.030
 1574BOLB   C3A37759  12.380  23.930   5.630
 1574BOLB   C4A37760  12.320  23.780   5.180
 1574BOLB   C1B37761  11.890  23.530   6.540
 1574BOLB   C2B37762  11.730  23.250   6.240
 1574BOLB   C3B37763  11.840  23.030   5.800
 1574BOLB   C4B37764  12.180  23.100   5.450
 1574BOLB   NC237765  11.370  23.750   3.440
 1574BOLB   PO237766  10.950  24.010   3.500
 1574BOLB   GL337767  10.940  23.860   3.810
 1574BOLB   GL437768  10.720  23.720   3.940
 1574BOLB   C1C37769  11.240  23.830   4.110
 1574BOLB   C2C37770  11.510  23.730   4.540
 1574BOLB   C3C37771  11.720  23.530   4.870
 1574BOLB   C4C37772  12.010  23.500   5.020
 1574BOLB   C1D37773  10.720  23.450   4.300
 1574BOLB   C2D37774  10.820  23.140   4.510
 1574BOLB   C3D37775  11.080  22.830   4.790
 1574BOLB   C4D37776  11.160  22.460   4.990
 1575BOLB   NC137777  14.340  19.930   5.320
 1575BOLB   PO137778  14.010  20.000   5.620
 1575BOLB   GL137779  13.840  20.030   5.180
 1575BOLB   GL237780  13.530  20.120   5.280
 1575BOLB   C1A37781  13.870  20.370   4.880
 1575BOLB   C2A37782  13.630  20.450   4.510
 1575BOLB   C3A37783  13.670  20.730   4.170
 1575BOLB   C4A37784  13.740  21.160   3.960
 1575BOLB   C1B37785  13.400  20.460   4.990
 1575BOLB   C2B37786  13.280  20.770   4.620
 1575BOLB   C3B37787  12.880  20.890   4.460
 1575BOLB   C4B37788  12.500  20.970   4.140
 1575BOLB   NC237789  12.020  21.410   2.040
 1575BOLB   PO237790  12.480  21.340   2.090
 1575BOLB   GL337791  12.670  21.280   2.390
 1575BOLB   GL437792  12.980  21.330   2.310
 1575BOLB   C1C37793  12.800  21.300   2.780
 1575BOLB   C2C37794  13.180  21.400   3.050
 1575BOLB   C3C37795  13.480  21.190   3.150
 1575BOLB   C4C37796  13.720  21.140   3.570
 1575BOLB   C1D37797  13.000  20.940   2.440
 1575BOLB   C2D37798  13.160  20.480   2.680
 1575BOLB   C3D37799  13.320  20.370   3.060
 1575BOLB   C4D37800  13.340  20.040   3.340
 1576BOLB   NC137801  12.600  17.840   6.900
 1576BOLB   PO137802  12.360  17.980   7.360
 1576BOLB   GL137803  12.040  17.810   7.080
 1576BOLB   GL237804  12.090  17.480   7.120
 1576BOLB   C1A37805  11.690  17.870   7.100
 1576BOLB   C2A37806  11.240  17.760   7.450
 1576BOLB   C3A37807  10.920  17.800   7.770
 1576BOLB   C4A37808  10.950  17.780   8.200
 1576BOLB   C1B37809  11.760  17.310   6.970
 1576BOLB   C2B37810  11.530  17.150   6.660
 1576BOLB   C3B37811  11.470  17.240   6.270
 1576BOLB   C4B37812  11.180  17.200   6.020
 1576BOLB   NC237813   9.150  16.360   7.590
 1576BOLB   PO237814   9.060  16.710   7.760
 1576BOLB   GL337815   9.320  16.980   7.870
 1576BOLB   GL437816   9.170  17.160   8.120
 1576BOLB   C1C37817   9.630  16.980   8.250
 1576BOLB   C2C37818   9.980  16.940   8.600
 1576BOLB   C3C37819  10.270  17.410   8.610
 1576BOLB   C4C37820  10.740  17.490   8.480
 1576BOLB   C1D37821   9.350  17.540   8.110
 1576BOLB   C2D37822   9.480  17.900   8.120
 1576BOLB   C3D37823   9.740  18.150   8.000
 1576BOLB   C4D37824  10.010  18.210   7.760
 1577BOLB   NC137825  22.110  15.720  10.410
 1577BOLB   PO137826  21.800  15.820  10.160
 1577BOLB   GL137827  22.200  15.770   9.910
 1577BOLB   GL237828  22.240  15.760   9.540
 1577BOLB   C1A37829  22.380  15.350   9.860
 1577BOLB   C2A37830  22.420  14.860   9.750
 1577BOLB   C3A37831  22.500  14.610   9.450
 1577BOLB   C4A37832  22.590  14.310   9.260
 1577BOLB   C1B37833  22.540  15.430   9.320
 1577BOLB   C2B37834  22.760  14.970   9.380
 1577BOLB   C3B37835  22.830  14.700   9.090
 1577BOLB   C4B37836  22.510  14.460   8.780
 1577BOLB   NC237837  23.810  12.380   8.020
 1577BOLB   PO237838  24.110  12.650   8.390
 1577BOLB   GL337839  23.890  12.920   8.610
 1577BOLB   GL437840  23.850  12.950   8.900
 1577BOLB   C1C37841  23.450  13.170   8.390
 1577BOLB   C2C37842  23.160  13.450   8.690
 1577BOLB   C3C37843  22.990  13.790   8.680
 1577BOLB   C4C37844  22.700  14.040   8.930
 1577BOLB   C1D37845  23.710  13.310   8.950
 1577BOLB   C2D37846  23.410  13.660   9.050
 1577BOLB   C3D37847  23.080  13.920   9.260
 1577BOLB   C4D37848  23.080  14.360   9.470
 1578BOLB   NC137849  16.150  20.940   4.840
 1578BOLB   PO137850  16.330  21.210   4.730
 1578BOLB   GL137851  15.900  21.180   4.490
 1578BOLB   GL237852  15.640  21.310   4.630
 1578BOLB   C1A37853  15.720  21.130   4.050
 1578BOLB   C2A37854  15.350  21.420   3.850
 1578BOLB   C3A37855  15.020  21.270   3.640
 1578BOLB   C4A37856  14.990  21.040   3.250
 1578BOLB   C1B37857  15.300  21.300   4.380
 1578BOLB   C2B37858  15.130  21.570   4.330
 1578BOLB   C3B37859  14.880  21.710   3.860
 1578BOLB   C4B37860  14.930  21.830   3.380
 1578BOLB   NC237861  14.030  19.940   1.200
 1578BOLB   PO237862  13.740  20.250   1.350
 1578BOLB   GL337863  13.980  20.210   1.640
 1578BOLB   GL437864  13.960  20.140   1.970
 1578BOLB   C1C37865  14.340  20.400   1.850
 1578BOLB   C2C37866  14.500  20.310   2.280
 1578BOLB   C3C37867  14.550  20.550   2.600
 1578BOLB   C4C37868  14.790  20.660   2.930
 1578BOLB   C1D37869  13.930  20.170   2.410
 1578BOLB   C2D37870  14.230  20.250   2.790
 1578BOLB   C3D37871  14.500  20.230   3.110
 1578BOLB   C4D37872  14.860  20.060   3.180
 1579BOLB   NC137873  11.600  25.500   9.110
 1579BOLB   PO137874  11.550  25.680   9.570
 1579BOLB   GL137875  11.090  25.750   9.370
 1579BOLB   GL237876  10.800  25.510   9.490
 1579BOLB   C1A37877  10.720  25.740   9.010
 1579BOLB   C2A37878  10.490  25.590   8.690
 1579BOLB   C3A37879  10.430  25.720   8.320
 1579BOLB   C4A37880  10.340  25.560   7.860
 1579BOLB   C1B37881  10.620  25.960   9.490
 1579BOLB   C2B37882  10.420  26.040   9.870
 1579BOLB   C3B37883  10.130  26.320   9.930
 1579BOLB   C4B37884   9.880  26.630   9.630
 1579BOLB   NC237885   8.280  26.850   7.570
 1579BOLB   PO237886   8.520  26.910   7.140
 1579BOLB   GL337887   8.740  26.560   7.220
 1579BOLB   GL437888   8.670  26.470   7.540
 1579BOLB   C1C37889   9.140  26.320   7.280
 1579BOLB   C2C37890   9.530  26.160   7.390
 1579BOLB   C3C37891   9.870  25.970   7.410
 1579BOLB   C4C37892  10.020  25.670   7.560
 1579BOLB   C1D37893   8.780  26.060   7.680
 1579BOLB   C2D37894   8.820  25.610   7.750
 1579BOLB   C3D37895   9.000  25.230   7.880
 1579BOLB   C4D37896   9.280  24.810   8.000
 1580BOLB   NC137897  22.290  23.130   6.390
 1580BOLB   PO137898  22.000  23.430   6.550
 1580BOLB   GL137899  22.320  23.540   6.110
 1580BOLB   GL237900  22.540  23.370   5.970
 1580BOLB   C1A37901  22.320  23.600   5.550
 1580BOLB   C2A37902  22.320  23.850   5.160
 1580BOLB   C3A37903  22.560  23.900   4.750
 1580BOLB   C4A37904  22.880  24.010   4.490
 1580BOLB   C1B37905  22.810  23.410   5.670
 1580BOLB   C2B37906  22.970  23.620   5.250
 1580BOLB   C3B37907  23.030  23.740   4.860
 1580BOLB   C4B37908  23.410  23.920   4.710
 1580BOLB   NC237909  24.550  24.660   2.740
 1580BOLB   PO237910  24.210  24.850   2.660
 1580BOLB   GL337911  23.870  24.920   2.940
 1580BOLB   GL437912  23.610  24.700   2.710
 1580BOLB   C1C37913  23.680  24.650   3.270
 1580BOLB   C2C37914  23.550  24.480   3.630
 1580BOLB   C3C37915  23.600  24.420   4.110
 1580BOLB   C4C37916  23.240  24.250   4.400
 1580BOLB   C1D37917  23.240  24.550   2.970
 1580BOLB   C2D37918  23.090  24.600   3.450
 1580BOLB   C3D37919  22.690  24.650   3.770
 1580BOLB   C4D37920  22.430  25.050   3.820
 1581BOLB   NC137921  21.850  27.490   8.430
 1581BOLB   PO137922  21.470  27.480   8.270
 1581BOLB   GL137923  21.700  27.680   7.980
 1581BOLB   GL237924  22.090  27.710   8.060
 1581BOLB   C1A37925  21.720  28.070   7.890
 1581BOLB   C2A37926  21.600  28.550   7.550
 1581BOLB   C3A37927  21.430  28.750   7.230
 1581BOLB   C4A37928  21.120  28.890   6.870
 1581BOLB   C1B37929  21.970  27.740   7.580
 1581BOLB   C2B37930  22.130  28.060   7.300
 1581BOLB   C3B37931  22.400  28.330   7.290
 1581BOLB   C4B37932  22.850  28.520   7.300
 1581BOLB   NC237933  21.050  30.190   4.680
 1581BOLB   PO237934  20.950  29.770   4.880
 1581BOLB   GL337935  20.980  29.620   5.300
 1581BOLB   GL437936  21.270  29.580   5.570
 1581BOLB   C1C37937  20.820  29.290   5.590
 1581BOLB   C2C37938  20.680  28.970   5.820
 1581BOLB   C3C37939  20.680  28.620   6.160
 1581BOLB   C4C37940  20.740  28.790   6.620
 1581BOLB   C1D37941  21.380  29.210   5.890
 1581BOLB   C2D37942  21.170  28.750   5.890
 1581BOLB   C3D37943  21.290  28.360   6.100
 1581BOLB   C4D37944  21.320  28.000   6.220
 1582BOLB   NC137945  19.330  28.120   8.550
 1582BOLB   PO137946  19.690  28.490   8.450
 1582BOLB   GL137947  19.650  28.800   8.280
 1582BOLB   GL237948  19.910  28.950   8.030
 1582BOLB   C1A37949  19.530  29.250   8.100
 1582BOLB   C2A37950  19.570  29.630   7.930
 1582BOLB   C3A37951  19.730  30.030   7.760
 1582BOLB   C4A37952  19.750  30.380   7.620
 1582BOLB   C1B37953  20.100  29.350   8.180
 1582BOLB   C2B37954  20.080  29.720   8.120
 1582BOLB   C3B37955  20.100  30.150   8.070
 1582BOLB   C4B37956  20.180  30.420   8.400
 1582BOLB   NC237957  20.490  32.800   7.630
 1582BOLB   PO237958  20.760  32.550   7.270
 1582BOLB   GL337959  20.890  32.090   7.400
 1582BOLB   GL437960  21.090  31.920   7.310
 1582BOLB   C1C37961  20.450  31.820   7.520
 1582BOLB   C2C37962  20.120  31.610   7.750
 1582BOLB   C3C37963  20.000  31.150   7.750
 1582BOLB   C4C37964  19.760  30.800   7.580
 1582BOLB   C1D37965  20.980  31.590   7.550
 1582BOLB   C2D37966  20.760  31.170   7.580
 1582BOLB   C3D37967  20.470  30.980   7.900
 1582BOLB   C4D37968  20.310  30.580   7.790
 1583BOLB   NC137969  22.480  26.870   8.850
 1583BOLB   PO137970  22.580  26.650   8.370
 1583BOLB   GL137971  22.850  26.850   8.110
 1583BOLB   GL237972  22.820  27.090   7.910
 1583BOLB   C1A37973  23.100  26.760   7.690
 1583BOLB   C2A37974  23.290  27.050   7.360
 1583BOLB   C3A37975  23.530  27.480   7.280
 1583BOLB   C4A37976  23.720  27.730   7.030
 1583BOLB   C1B37977  23.250  27.300   7.800
 1583BOLB   C2B37978  23.660  27.320   7.740
 1583BOLB   C3B37979  23.990  27.450   7.400
 1583BOLB   C4B37980  24.420  27.400   7.160
 1583BOLB   NC237981  23.640  29.600   5.200
 1583BOLB   PO237982  23.470  29.460   5.550
 1583BOLB   GL337983  23.200  29.030   5.600
 1583BOLB   GL437984  22.840  28.940   5.690
 1583BOLB   C1C37985  23.210  28.620   5.870
 1583BOLB   C2C37986  23.250  28.380   6.300
 1583BOLB   C3C37987  23.240  28.130   6.650
 1583BOLB   C4C37988  23.610  27.920   6.700
 1583BOLB   C1D37989  22.750  28.700   6.060
 1583BOLB   C2D37990  22.730  28.410   6.420
 1583BOLB   C3D37991  22.420  28.520   6.770
 1583BOLB   C4D37992  21.980  28.280   6.870
 1584BOLB   NC137993  17.570  21.240   5.010
 1584BOLB   PO137994  17.230  21.340   4.890
 1584BOLB   GL137995  17.160  21.230   4.560
 1584BOLB   GL237996  17.370  21.460   4.410
 1584BOLB   C1A37997  17.080  21.220   4.050
 1584BOLB   C2A37998  17.100  21.010   3.610
 1584BOLB   C3A37999  17.250  20.910   3.250
 1584BOLB   C4A38000  17.450  20.640   2.920
 1584BOLB   C1B38001  17.440  21.640   3.980
 1584BOLB   C2B38002  17.540  21.740   3.560
 1584BOLB   C3B38003  17.800  21.970   3.190
 1584BOLB   C4B38004  18.240  21.990   3.020
 1584BOLB   NC238005  18.280  20.750   0.540
 1584BOLB   PO238006  18.560  21.130   0.740
 1584BOLB   GL338007  18.350  21.080   1.120
 1584BOLB   GL438008  18.740  21.080   1.280
 1584BOLB   C1C38009  18.330  21.100   1.600
 1584BOLB   C2C38010  18.220  21.090   2.030
 1584BOLB   C3C38011  17.900  20.910   2.200
 1584BOLB   C4C38012  17.760  20.670   2.490
 1584BOLB   C1D38013  18.820  20.680   1.430
 1584BOLB   C2D38014  18.720  20.380   1.700
 1584BOLB   C3D38015  18.680  20.180   2.050
 1584BOLB   C4D38016  18.680  19.850   2.360
 1585BOLB   NC138017  22.860  24.130   6.570
 1585BOLB   PO138018  22.900  24.460   6.680
 1585BOLB   GL138019  23.090  24.610   6.280
 1585BOLB   GL238020  23.230  24.850   6.490
 1585BOLB   C1A38021  23.100  24.770   5.830
 1585BOLB   C2A38022  23.090  25.260   5.680
 1585BOLB   C3A38023  22.980  25.690   5.570
 1585BOLB   C4A38024  22.980  26.000   5.210
 1585BOLB   C1B38025  23.370  25.020   6.110
 1585BOLB   C2B38026  23.540  24.930   5.690
 1585BOLB   C3B38027  23.570  25.320   5.370
 1585BOLB   C4B38028  23.400  25.640   5.120
 1585BOLB   NC238029  22.910  25.960   2.920
 1585BOLB   PO238030  22.500  25.710   2.870
 1585BOLB   GL338031  22.570  25.980   3.280
 1585BOLB   GL438032  22.260  26.190   3.250
 1585BOLB   C1C38033  22.790  26.060   3.780
 1585BOLB   C2C38034  22.950  26.250   4.150
 1585BOLB   C3C38035  23.320  26.320   4.480
 1585BOLB   C4C38036  23.330  26.320   4.910
 1585BOLB   C1D38037  21.990  25.890   3.380
 1585BOLB   C2D38038  21.900  25.550   3.650
 1585BOLB   C3D38039  22.150  25.500   4.090
 1585BOLB   C4D38040  22.410  25.260   4.340
 1586BOLB   NC138041  25.500  24.620  11.040
 1586BOLB   PO138042  25.380  25.020  10.960
 1586BOLB   GL138043  25.670  25.160  10.830
 1586BOLB   GL238044  25.940  24.890  10.900
 1586BOLB   C1A38045  26.110  25.380  10.780
 1586BOLB   C2A38046  26.350  25.700  10.560
 1586BOLB   C3A38047  26.630  25.920  10.270
 1586BOLB   C4A38048  27.020  26.000  10.200
 1586BOLB   C1B38049  26.110  24.900  10.530
 1586BOLB   C2B38050  26.420  25.130  10.410
 1586BOLB   C3B38051  26.720  25.370  10.370
 1586BOLB   C4B38052  26.910  25.570  10.570
 1586BOLB   NC238053  29.470  26.550   9.660
 1586BOLB   PO238054  29.470  26.290  10.110
 1586BOLB   GL338055  29.050  26.160  10.200
 1586BOLB   GL438056  29.130  25.760  10.080
 1586BOLB   C1C38057  28.780  26.210  10.490
 1586BOLB   C2C38058  28.360  26.190  10.420
 1586BOLB   C3C38059  27.860  26.040  10.230
 1586BOLB   C4C38060  27.390  26.100  10.340
 1586BOLB   C1D38061  28.940  25.670  10.550
 1586BOLB   C2D38062  28.830  25.500  10.860
 1586BOLB   C3D38063  28.710  25.540  11.290
 1586BOLB   C4D38064  28.880  25.720  11.730
 1587BOLB   NC138065  25.630  26.600  11.990
 1587BOLB   PO138066  25.410  26.880  12.360
 1587BOLB   GL138067  25.770  27.230  12.530
 1587BOLB   GL238068  25.870  27.180  12.800
 1587BOLB   C1A38069  26.200  27.390  12.360
 1587BOLB   C2A38070  26.210  27.790  12.110
 1587BOLB   C3A38071  26.080  27.840  11.680
 1587BOLB   C4A38072  26.160  28.150  11.390
 1587BOLB   C1B38073  26.220  27.540  12.840
 1587BOLB   C2B38074  26.600  27.620  12.610
 1587BOLB   C3B38075  27.000  27.410  12.410
 1587BOLB   C4B38076  27.260  27.150  12.300
 1587BOLB   NC238077  27.900  29.880  10.670
 1587BOLB   PO238078  27.470  30.020  10.480
 1587BOLB   GL338079  27.020  29.850  10.600
 1587BOLB   GL438080  26.770  29.820  10.300
 1587BOLB   C1C38081  26.810  29.460  10.810
 1587BOLB   C2C38082  26.450  29.130  10.920
 1587BOLB   C3C38083  26.270  28.900  11.070
 1587BOLB   C4C38084  26.260  28.500  11.240
 1587BOLB   C1D38085  26.440  29.820  10.510
 1587BOLB   C2D38086  26.250  29.560  10.620
 1587BOLB   C3D38087  26.030  29.210  10.550
 1587BOLB   C4D38088  25.670  28.990  10.790
 1588BOLB   NC138089  17.500  22.180   5.630
 1588BOLB   PO138090  17.230  22.050   5.250
 1588BOLB   GL138091  17.250  22.160   4.770
 1588BOLB   GL238092  17.150  22.430   4.580
 1588BOLB   C1A38093  17.190  22.070   4.260
 1588BOLB   C2A38094  17.130  22.190   3.820
 1588BOLB   C3A38095  16.920  22.440   3.520
 1588BOLB   C4A38096  16.670  22.450   3.170
 1588BOLB   C1B38097  16.920  22.570   4.120
 1588BOLB   C2B38098  16.670  22.800   3.770
 1588BOLB   C3B38099  16.450  22.870   3.420
 1588BOLB   C4B38100  16.400  22.940   2.960
 1588BOLB   NC238101  17.230  23.750   0.910
 1588BOLB   PO238102  17.240  23.260   1.040
 1588BOLB   GL338103  17.430  22.860   1.210
 1588BOLB   GL438104  17.640  22.580   1.310
 1588BOLB   C1C38105  17.240  22.660   1.590
 1588BOLB   C2C38106  17.170  22.580   2.000
 1588BOLB   C3C38107  17.070  22.810   2.400
 1588BOLB   C4C38108  16.670  22.610   2.740
 1588BOLB   C1D38109  17.650  22.370   1.670
 1588BOLB   C2D38110  17.560  22.290   2.090
 1588BOLB   C3D38111  17.420  22.280   2.520
 1588BOLB   C4D38112  17.460  22.300   2.880
 1589BOLB   NC138113  12.930  21.400   6.760
 1589BOLB   PO138114  12.530  21.200   6.720
 1589BOLB   GL138115  12.430  21.250   6.280
 1589BOLB   GL238116  12.070  21.070   6.150
 1589BOLB   C1A38117  12.110  21.510   5.930
 1589BOLB   C2A38118  12.300  21.640   5.480
 1589BOLB   C3A38119  12.120  22.060   5.360
 1589BOLB   C4A38120  12.000  22.390   5.060
 1589BOLB   C1B38121  11.660  21.060   6.060
 1589BOLB   C2B38122  11.420  20.960   5.690
 1589BOLB   C3B38123  11.210  20.780   5.380
 1589BOLB   C4B38124  11.330  20.540   4.920
 1589BOLB   NC238125  10.660  23.480   3.480
 1589BOLB   PO238126  10.970  23.540   3.280
 1589BOLB   GL338127  11.110  23.430   3.690
 1589BOLB   GL438128  10.880  23.190   3.830
 1589BOLB   C1C38129  11.430  23.140   3.780
 1589BOLB   C2C38130  11.690  22.900   3.940
 1589BOLB   C3C38131  11.800  22.670   4.360
 1589BOLB   C4C38132  12.060  22.510   4.720
 1589BOLB   C1D38133  10.680  22.880   4.110
 1589BOLB   C2D38134  10.900  22.630   4.400
 1589BOLB   C3D38135  10.810  22.320   4.660
 1589BOLB   C4D38136  10.700  22.230   4.970
 1590BOLB   NC138137  25.620  19.430  15.490
 1590BOLB   PO138138  25.660  19.160  15.120
 1590BOLB   GL138139  25.850  18.990  14.800
 1590BOLB   GL238140  25.920  19.200  14.610
 1590BOLB   C1A38141  26.080  18.630  14.860
 1590BOLB   C2A38142  26.510  18.570  14.870
 1590BOLB   C3A38143  26.750  18.390  15.270
 1590BOLB   C4A38144  26.710  18.060  15.530
 1590BOLB   C1B38145  26.360  19.040  14.660
 1590BOLB   C2B38146  26.610  18.940  14.500
 1590BOLB   C3B38147  26.920  18.580  14.220
 1590BOLB   C4B38148  27.130  18.200  14.030
 1590BOLB   NC238149  28.660  16.770  15.550
 1590BOLB   PO238150  28.560  16.680  15.960
 1590BOLB   GL338151  28.270  16.950  15.840
 1590BOLB   GL438152  28.240  17.000  16.210
 1590BOLB   C1C38153  27.970  17.340  15.730
 1590BOLB   C2C38154  27.720  17.720  15.550
 1590BOLB   C3C38155  27.220  17.630  15.690
 1590BOLB   C4C38156  26.980  17.820  15.770
 1590BOLB   C1D38157  27.810  17.160  16.260
 1590BOLB   C2D38158  27.640  17.500  16.510
 1590BOLB   C3D38159  27.280  17.670  16.360
 1590BOLB   C4D38160  26.900  18.000  16.250
 1591BOLB   NC138161  17.520  21.780   4.970
 1591BOLB   PO138162  17.880  21.980   5.120
 1591BOLB   GL138163  17.840  22.160   4.690
 1591BOLB   GL238164  17.630  21.870   4.390
 1591BOLB   C1A38165  18.000  22.270   4.330
 1591BOLB   C2A38166  17.860  22.540   3.840
 1591BOLB   C3A38167  17.750  22.780   3.530
 1591BOLB   C4A38168  17.710  22.630   3.150
 1591BOLB   C1B38169  17.670  22.090   4.010
 1591BOLB   C2B38170  17.560  22.260   3.560
 1591BOLB   C3B38171  17.160  22.070   3.310
 1591BOLB   C4B38172  16.990  22.150   2.930
 1591BOLB   NC238173  18.170  23.700   0.630
 1591BOLB   PO238174  18.120  23.280   0.850
 1591BOLB   GL338175  18.200  23.260   1.300
 1591BOLB   GL438176  18.260  23.260   1.630
 1591BOLB   C1C38177  17.890  22.960   1.540
 1591BOLB   C2C38178  17.670  22.830   1.910
 1591BOLB   C3C38179  17.580  22.750   2.290
 1591BOLB   C4C38180  17.660  22.760   2.810
 1591BOLB   C1D38181  18.040  23.240   2.080
 1591BOLB   C2D38182  17.810  23.600   2.200
 1591BOLB   C3D38183  17.410  23.520   2.300
 1591BOLB   C4D38184  17.000  23.440   2.400
 1592BOLB   NC138185  21.220  25.460   7.230
 1592BOLB   PO138186  21.630  25.670   7.120
 1592BOLB   GL138187  21.910  25.820   6.790
 1592BOLB   GL238188  21.930  25.540   6.520
 1592BOLB   C1A38189  22.220  26.030   6.510
 1592BOLB   C2A38190  22.320  26.380   6.290
 1592BOLB   C3A38191  22.540  26.550   5.980
 1592BOLB   C4A38192  22.680  26.850   5.640
 1592BOLB   C1B38193  22.070  25.720   6.150
 1592BOLB   C2B38194  22.130  25.770   5.660
 1592BOLB   C3B38195  21.940  26.020   5.380
 1592BOLB   C4B38196  21.680  26.330   4.970
 1592BOLB   NC238197  23.940  26.940   3.740
 1592BOLB   PO238198  24.070  27.330   3.860
 1592BOLB   GL338199  23.750  27.160   4.170
 1592BOLB   GL438200  23.600  27.400   4.080
 1592BOLB   C1C38201  23.640  27.060   4.600
 1592BOLB   C2C38202  23.540  26.890   5.030
 1592BOLB   C3C38203  23.500  26.720   5.270
 1592BOLB   C4C38204  23.080  26.850   5.510
 1592BOLB   C1D38205  23.270  27.200   4.270
 1592BOLB   C2D38206  23.060  27.300   4.710
 1592BOLB   C3D38207  23.010  27.150   5.080
 1592BOLB   C4D38208  22.970  27.300   5.600
 1593BOLB   NC138209  24.950  28.110  12.990
 1593BOLB   PO138210  24.750  28.050  13.370
 1593BOLB   GL138211  25.090  28.280  13.530
 1593BOLB   GL238212  25.150  28.520  13.310
 1593BOLB   C1A38213  25.410  28.460  13.700
 1593BOLB   C2A38214  25.740  28.610  13.810
 1593BOLB   C3A38215  26.200  28.740  13.850
 1593BOLB   C4A38216  26.470  29.130  13.800
 1593BOLB   C1B38217  25.600  28.640  13.250
 1593BOLB   C2B38218  25.970  28.780  13.320
 1593BOLB   C3B38219  26.390  28.850  13.270
 1593BOLB   C4B38220  26.810  29.030  13.460
 1593BOLB   NC238221  29.010  29.920  12.930
 1593BOLB   PO238222  28.600  29.870  12.950
 1593BOLB   GL338223  28.220  29.670  13.060
 1593BOLB   GL438224  28.140  29.580  13.370
 1593BOLB   C1C38225  27.730  29.780  13.170
 1593BOLB   C2C38226  27.290  29.720  13.130
 1593BOLB   C3C38227  26.940  29.520  13.200
 1593BOLB   C4C38228  26.480  29.380  13.390
 1593BOLB   C1D38229  27.720  29.400  13.440
 1593BOLB   C2D38230  27.350  29.120  13.600
 1593BOLB   C3D38231  27.210  28.710  13.680
 1593BOLB   C4D38232  26.780  28.590  13.780
 1594BOLB   NC138233  11.160  25.430  15.050
 1594BOLB   PO138234  11.100  25.380  14.680
 1594BOLB   GL138235  10.850  25.780  14.880
 1594BOLB   GL238236  10.520  25.710  14.850
 1594BOLB   C1A38237  10.590  26.120  15.090
 1594BOLB   C2A38238  10.490  26.470  15.250
 1594BOLB   C3A38239  10.590  26.910  15.450
 1594BOLB   C4A38240  10.320  27.180  15.660
 1594BOLB   C1B38241  10.170  25.890  14.840
 1594BOLB   C2B38242   9.830  26.230  14.640
 1594BOLB   C3B38243   9.510  26.490  14.640
 1594BOLB   C4B38244   9.290  26.790  14.560
 1594BOLB   NC238245   9.840  29.590  16.990
 1594BOLB   PO238246   9.890  29.170  16.720
 1594BOLB   GL338247  10.090  28.870  16.560
 1594BOLB   GL438248  10.000  28.610  16.760
 1594BOLB   C1C38249  10.160  28.520  16.270
 1594BOLB   C2C38250  10.080  28.300  16.000
 1594BOLB   C3C38251   9.910  27.930  15.890
 1594BOLB   C4C38252  10.000  27.590  15.620
 1594BOLB   C1D38253  10.170  28.210  16.910
 1594BOLB   C2D38254  10.540  28.000  16.790
 1594BOLB   C3D38255  10.860  27.890  16.620
 1594BOLB   C4D38256  11.260  27.760  16.400
 1595BOLB   NC138257  27.080  18.440   6.780
 1595BOLB   PO138258  27.170  18.790   6.950
 1595BOLB   GL138259  26.760  18.880   6.950
 1595BOLB   GL238260  26.570  18.530   6.850
 1595BOLB   C1A38261  26.530  19.060   7.190
 1595BOLB   C2A38262  26.310  19.280   7.130
 1595BOLB   C3A38263  26.020  19.570   7.340
 1595BOLB   C4A38264  25.800  19.930   7.130
 1595BOLB   C1B38265  26.180  18.810   6.970
 1595BOLB   C2B38266  25.940  19.030   7.110
 1595BOLB   C3B38267  25.800  19.180   7.470
 1595BOLB   C4B38268  25.810  19.030   8.000
 1595BOLB   NC238269  27.330  18.780   6.430
 1595BOLB   PO238270  26.890  18.550   6.380
 1595BOLB   GL338271  26.730  18.960   6.430
 1595BOLB   GL438272  26.430  19.000   6.570
 1595BOLB   C1C38273  26.780  19.360   6.660
 1595BOLB   C2C38274  26.580  19.690   6.360
 1595BOLB   C3C38275  26.130  19.800   6.340
 1595BOLB   C4C38276  25.930  19.990   6.780
 1595BOLB   C1D38277  26.180  19.300   6.650
 1595BOLB   C2D38278  25.860  19.490   6.850
 1595BOLB   C3D38279  25.560  19.490   7.180
 1595BOLB   C4D38280  25.440  19.460   7.670
 1596BOLB   NC138281   9.470  19.340  16.390
 1596BOLB   PO138282   9.100  19.620  16.240
 1596BOLB   GL138283   8.770  19.910  16.460
 1596BOLB   GL238284   8.500  20.090  16.250
 1596BOLB   C1A38285   8.350  19.920  16.690
 1596BOLB   C2A38286   7.980  20.330  16.610
 1596BOLB   C3A38287   7.780  20.710  16.930
 1596BOLB   C4A38288   7.540  20.980  17.160
 1596BOLB   C1B38289   8.430  19.710  16.020
 1596BOLB   C2B38290   8.060  19.370  15.940
 1596BOLB   C3B38291   7.910  19.120  15.610
 1596BOLB   C4B38292   7.810  18.650  15.500
 1596BOLB   NC238293   5.860  22.380  17.730
 1596BOLB   PO238294   5.710  22.630  17.330
 1596BOLB   GL338295   5.860  22.250  17.150
 1596BOLB   GL438296   5.860  21.980  16.960
 1596BOLB   C1C38297   6.290  22.070  17.190
 1596BOLB   C2C38298   6.730  21.910  17.320
 1596BOLB   C3C38299   7.120  21.780  17.230
 1596BOLB   C4C38300   7.510  21.540  17.230
 1596BOLB   C1D38301   6.250  21.810  16.730
 1596BOLB   C2D38302   6.590  21.700  16.550
 1596BOLB   C3D38303   6.950  21.570  16.390
 1596BOLB   C4D38304   7.380  21.610  16.240
 1597BOLB   NC138305  23.070  24.780   7.010
 1597BOLB   PO138306  22.930  24.390   7.190
 1597BOLB   GL138307  23.350  24.380   6.910
 1597BOLB   GL238308  23.380  24.170   6.580
 1597BOLB   C1A38309  23.620  24.580   6.660
 1597BOLB   C2A38310  23.720  24.970   6.450
 1597BOLB   C3A38311  23.950  25.280   6.210
 1597BOLB   C4A38312  24.390  25.190   5.980
 1597BOLB   C1B38313  23.450  24.270   6.220
 1597BOLB   C2B38314  23.700  24.450   5.880
 1597BOLB   C3B38315  23.670  24.460   5.470
 1597BOLB   C4B38316  23.650  24.250   5.050
 1597BOLB   NC238317  25.800  25.590   4.490
 1597BOLB   PO238318  26.270  25.940   4.750
 1597BOLB   GL338319  25.910  25.840   4.900
 1597BOLB   GL438320  25.820  25.940   5.200
 1597BOLB   C1C38321  25.730  25.400   5.140
 1597BOLB   C2C38322  25.410  25.380   5.410
 1597BOLB   C3C38323  25.170  25.160   5.650
 1597BOLB   C4C38324  24.750  25.270   5.730
 1597BOLB   C1D38325  25.820  26.060   5.650
 1597BOLB   C2D38326  25.860  26.470   5.960
 1597BOLB   C3D38327  25.590  26.860   5.870
 1597BOLB   C4D38328  25.560  27.310   5.720
 1598BOLB   NC138329  20.850  25.240   6.920
 1598BOLB   PO138330  20.890  25.640   6.600
 1598BOLB   GL138331  21.070  25.670   6.230
 1598BOLB   GL238332  20.950  25.950   6.170
 1598BOLB   C1A38333  21.020  25.580   5.760
 1598BOLB   C2A38334  21.230  25.770   5.380
 1598BOLB   C3A38335  21.270  26.200   5.230
 1598BOLB   C4A38336  21.340  26.630   5.150
 1598BOLB   C1B38337  21.290  26.300   6.200
 1598BOLB   C2B38338  21.590  26.610   6.110
 1598BOLB   C3B38339  21.890  26.720   6.040
 1598BOLB   C4B38340  22.220  26.870   5.790
 1598BOLB   NC238341  22.440  26.950   3.000
 1598BOLB   PO238342  22.910  26.850   3.020
 1598BOLB   GL338343  22.700  26.760   3.460
 1598BOLB   GL438344  22.620  26.410   3.540
 1598BOLB   C1C38345  22.540  27.020   3.820
 1598BOLB   C2C38346  22.240  26.980   4.160
 1598BOLB   C3C38347  21.960  26.690   4.530
 1598BOLB   C4C38348  21.520  26.830   4.730
 1598BOLB   C1D38349  22.460  26.480   3.890
 1598BOLB   C2D38350  22.530  26.690   4.410
 1598BOLB   C3D38351  22.510  26.770   4.850
 1598BOLB   C4D38352  22.530  27.050   5.260
 1599BOLB   NC138353  20.110  13.050  13.700
 1599BOLB   PO138354  20.150  13.430  13.430
 1599BOLB   GL138355  20.480  13.040  13.330
 1599BOLB   GL238356  20.450  12.760  13.410
 1599BOLB   C1A38357  20.880  12.960  13.500
 1599BOLB   C2A38358  21.080  12.650  13.720
 1599BOLB   C3A38359  21.310  12.290  13.750
 1599BOLB   C4A38360  21.260  11.940  13.510
 1599BOLB   C1B38361  20.700  12.490  13.410
 1599BOLB   C2B38362  21.020  12.310  13.310
 1599BOLB   C3B38363  21.310  11.970  13.000
 1599BOLB   C4B38364  21.470  11.830  12.630
 1599BOLB   NC238365  22.440   9.440  13.280
 1599BOLB   PO238366  22.500   9.920  13.370
 1599BOLB   GL338367  22.030  10.160  13.290
 1599BOLB   GL438368  21.730  10.050  13.160
 1599BOLB   C1C38369  21.800  10.540  13.200
 1599BOLB   C2C38370  21.630  10.930  13.290
 1599BOLB   C3C38371  21.330  11.170  13.430
 1599BOLB   C4C38372  21.160  11.550  13.440
 1599BOLB   C1D38373  21.490  10.350  12.890
 1599BOLB   C2D38374  21.530  10.750  12.580
 1599BOLB   C3D38375  21.380  11.090  12.260
 1599BOLB   C4D38376  21.210  11.500  12.360
 1600BOLB   NC138377  14.610  24.050   6.770
 1600BOLB   PO138378  14.600  23.720   6.460
 1600BOLB   GL138379  14.440  24.040   6.230
 1600BOLB   GL238380  14.390  24.310   6.360
 1600BOLB   C1A38381  14.540  24.310   5.810
 1600BOLB   C2A38382  14.610  24.590   5.410
 1600BOLB   C3A38383  14.700  25.090   5.430
 1600BOLB   C4A38384  14.710  25.370   5.080
 1600BOLB   C1B38385  14.190  24.590   6.080
 1600BOLB   C2B38386  14.350  24.880   5.820
 1600BOLB   C3B38387  14.430  25.310   5.780
 1600BOLB   C4B38388  14.620  25.610   5.490
 1600BOLB   NC238389  13.600  27.370   3.480
 1600BOLB   PO238390  13.560  27.050   3.780
 1600BOLB   GL338391  13.850  26.840   4.000
 1600BOLB   GL438392  13.840  26.820   4.330
 1600BOLB   C1C38393  13.990  26.380   4.040
 1600BOLB   C2C38394  14.090  26.000   4.190
 1600BOLB   C3C38395  14.180  25.840   4.510
 1600BOLB   C4C38396  14.370  25.650   4.770
 1600BOLB   C1D38397  14.170  26.790   4.550
 1600BOLB   C2D38398  14.440  26.780   4.970
 1600BOLB   C3D38399  14.700  26.790   5.300
 1600BOLB   C4D38400  15.040  26.850   5.530
 1601BOLB   NC138401  22.630  28.280  10.670
 1601BOLB   PO138402  22.990  28.620  10.810
 1601BOLB   GL138403  23.260  28.930  10.580
 1601BOLB   GL238404  23.460  28.670  10.490
 1601BOLB   C1A38405  23.320  29.180  10.430
 1601BOLB   C2A38406  23.470  29.470  10.180
 1601BOLB   C3A38407  23.860  29.720   9.980
 1601BOLB   C4A38408  24.250  29.930  10.070
 1601BOLB   C1B38409  23.800  28.910  10.670
 1601BOLB   C2B38410  24.190  29.210  10.740
 1601BOLB   C3B38411  24.570  29.590  10.660
 1601BOLB   C4B38412  24.840  29.980  10.800
 1601BOLB   NC238413  25.310  31.630   8.260
 1601BOLB   PO238414  25.070  31.620   8.660
 1601BOLB   GL338415  25.010  31.250   8.870
 1601BOLB   GL438416  24.840  31.000   8.780
 1601BOLB   C1C38417  24.810  31.170   9.250
 1601BOLB   C2C38418  24.730  31.050   9.680
 1601BOLB   C3C38419  24.790  30.610   9.930
 1601BOLB   C4C38420  24.610  30.210  10.090
 1601BOLB   C1D38421  24.780  30.630   8.990
 1601BOLB   C2D38422  24.400  30.370   9.120
 1601BOLB   C3D38423  24.220  29.960   9.230
 1601BOLB   C4D38424  24.050  30.020   9.570
 1602BOLB   NC138425  18.760  27.440   8.810
 1602BOLB   PO138426  18.920  27.840   8.420
 1602BOLB   GL138427  19.000  28.060   8.030
 1602BOLB   GL238428  18.830  28.380   7.950
 1602BOLB   C1A38429  19.210  28.150   7.620
 1602BOLB   C2A38430  19.250  28.420   7.270
 1602BOLB   C3A38431  19.280  28.750   6.890
 1602BOLB   C4A38432  19.360  29.060   6.600
 1602BOLB   C1B38433  18.990  28.700   7.690
 1602BOLB   C2B38434  19.060  28.910   7.290
 1602BOLB   C3B38435  18.950  29.150   6.920
 1602BOLB   C4B38436  18.730  29.390   6.770
 1602BOLB   NC238437  20.190  31.490   5.900
 1602BOLB   PO238438  19.910  31.400   5.520
 1602BOLB   GL338439  19.870  31.060   5.930
 1602BOLB   GL438440  20.040  30.870   5.820
 1602BOLB   C1C38441  19.810  30.550   6.150
 1602BOLB   C2C38442  19.800  30.140   6.270
 1602BOLB   C3C38443  19.480  29.840   6.490
 1602BOLB   C4C38444  19.250  29.480   6.650
 1602BOLB   C1D38445  20.390  30.750   6.100
 1602BOLB   C2D38446  20.560  30.670   6.440
 1602BOLB   C3D38447  20.420  30.840   6.810
 1602BOLB   C4D38448  20.470  30.840   7.270
 1603BOLB   NC138449  18.190  27.030   7.460
 1603BOLB   PO138450  18.300  26.550   7.350
 1603BOLB   GL138451  18.440  26.870   7.020
 1603BOLB   GL238452  18.760  26.880   6.800
 1603BOLB   C1A38453  18.620  27.330   7.030
 1603BOLB   C2A38454  18.830  27.660   6.880
 1603BOLB   C3A38455  19.030  27.940   6.460
 1603BOLB   C4A38456  19.010  28.190   6.000
 1603BOLB   C1B38457  18.810  27.130   6.400
 1603BOLB   C2B38458  18.740  27.300   6.040
 1603BOLB   C3B38459  18.570  27.460   5.700
 1603BOLB   C4B38460  18.330  27.600   5.390
 1603BOLB   NC238461  18.070  29.900   4.060
 1603BOLB   PO238462  18.480  30.090   4.350
 1603BOLB   GL338463  18.730  29.780   4.600
 1603BOLB   GL438464  18.680  29.880   4.940
 1603BOLB   C1C38465  18.530  29.400   5.030
 1603BOLB   C2C38466  18.480  29.010   5.220
 1603BOLB   C3C38467  18.640  28.660   5.460
 1603BOLB   C4C38468  18.990  28.530   5.730
 1603BOLB   C1D38469  19.110  29.590   5.030
 1603BOLB   C2D38470  19.040  29.220   5.200
 1603BOLB   C3D38471  19.050  28.990   5.620
 1603BOLB   C4D38472  19.240  28.920   6.000
 1604BOLB   NC138473  18.390  28.290   8.710
 1604BOLB   PO138474  18.060  28.150   8.610
 1604BOLB   GL138475  17.890  28.330   8.130
 1604BOLB   GL238476  18.030  28.580   8.080
 1604BOLB   C1A38477  17.570  28.640   7.990
 1604BOLB   C2A38478  17.350  28.900   7.700
 1604BOLB   C3A38479  17.420  29.300   7.400
 1604BOLB   C4A38480  17.330  29.730   7.320
 1604BOLB   C1B38481  17.930  28.790   7.670
 1604BOLB   C2B38482  18.140  29.000   7.470
 1604BOLB   C3B38483  18.270  29.430   7.380
 1604BOLB   C4B38484  18.290  29.900   7.420
 1604BOLB   NC238485  17.540  31.440   5.430
 1604BOLB   PO238486  17.120  31.490   5.690
 1604BOLB   GL338487  17.220  31.300   6.080
 1604BOLB   GL438488  17.440  31.030   6.010
 1604BOLB   C1C38489  17.370  31.280   6.550
 1604BOLB   C2C38490  17.260  31.110   6.850
 1604BOLB   C3C38491  17.230  30.700   7.100
 1604BOLB   C4C38492  17.240  30.220   7.230
 1604BOLB   C1D38493  17.420  30.850   6.410
 1604BOLB   C2D38494  17.690  30.770   6.740
 1604BOLB   C3D38495  17.770  30.450   6.950
 1604BOLB   C4D38496  18.110  30.320   7.100
 1605BOLB   NC138497  16.430  17.930   4.820
 1605BOLB   PO138498  16.650  18.270   4.500
 1605BOLB   GL138499  16.680  18.330   4.080
 1605BOLB   GL238500  17.010  18.420   3.940
 1605BOLB   C1A38501  16.560  18.200   3.720
 1605BOLB   C2A38502  16.590  18.080   3.310
 1605BOLB   C3A38503  16.440  18.070   2.950
 1605BOLB   C4A38504  16.240  18.090   2.650
 1605BOLB   C1B38505  16.940  18.450   3.520
 1605BOLB   C2B38506  16.850  18.440   3.010
 1605BOLB   C3B38507  16.690  18.380   2.610
 1605BOLB   C4B38508  16.430  18.590   2.360
 1605BOLB   NC238509  16.540  18.900   0.280
 1605BOLB   PO238510  16.830  18.830   0.610
 1605BOLB   GL338511  16.810  18.710   0.940
 1605BOLB   GL438512  16.780  18.980   1.090
 1605BOLB   C1C38513  16.460  18.630   1.210
 1605BOLB   C2C38514  16.260  18.600   1.610
 1605BOLB   C3C38515  16.240  18.240   1.910
 1605BOLB   C4C38516  16.290  17.970   2.260
 1605BOLB   C1D38517  16.650  19.190   1.580
 1605BOLB   C2D38518  16.560  19.030   2.050
 1605BOLB   C3D38519  16.290  19.140   2.410
 1605BOLB   C4D38520  15.990  19.020   2.600
 1606BOLB   NC138521   9.960  20.450   8.920
 1606BOLB   PO138522  10.100  20.630   8.570
 1606BOLB   GL138523   9.880  20.790   8.320
 1606BOLB   GL238524   9.720  21.030   8.340
 1606BOLB   C1A38525   9.750  20.720   7.890
 1606BOLB   C2A38526   9.620  20.760   7.420
 1606BOLB   C3A38527   9.690  20.940   6.950
 1606BOLB   C4A38528   9.710  21.330   6.700
 1606BOLB   C1B38529   9.340  21.130   8.080
 1606BOLB   C2B38530   8.880  21.160   8.170
 1606BOLB   C3B38531   8.580  21.390   7.950
 1606BOLB   C4B38532   8.490  21.450   7.540
 1606BOLB   NC238533   7.610  20.850   4.980
 1606BOLB   PO238534   7.850  21.190   5.210
 1606BOLB   GL338535   8.250  21.240   5.420
 1606BOLB   GL438536   8.470  21.230   5.110
 1606BOLB   C1C38537   8.590  21.150   5.570
 1606BOLB   C2C38538   9.010  21.040   5.730
 1606BOLB   C3C38539   9.470  21.100   5.940
 1606BOLB   C4C38540   9.640  21.370   6.250
 1606BOLB   C1D38541   8.860  21.390   5.190
 1606BOLB   C2D38542   9.270  21.370   5.520
 1606BOLB   C3D38543   9.650  21.640   5.720
 1606BOLB   C4D38544  10.100  21.690   5.630
 1607BOLB   NC138545  17.070  17.300   5.370
 1607BOLB   PO138546  17.100  17.250   4.880
 1607BOLB   GL138547  17.050  17.330   4.480
 1607BOLB   GL238548  16.970  17.000   4.440
 1607BOLB   C1A38549  16.860  17.230   4.000
 1607BOLB   C2A38550  16.870  16.840   3.920
 1607BOLB   C3A38551  16.600  16.430   3.780
 1607BOLB   C4A38552  16.530  16.150   3.470
 1607BOLB   C1B38553  17.230  16.700   4.280
 1607BOLB   C2B38554  17.520  16.520   4.020
 1607BOLB   C3B38555  17.740  16.400   3.740
 1607BOLB   C4B38556  17.980  16.460   3.510
 1607BOLB   NC238557  16.220  15.670   1.000
 1607BOLB   PO238558  16.520  16.020   1.150
 1607BOLB   GL338559  16.280  16.160   1.490
 1607BOLB   GL438560  16.220  16.420   1.440
 1607BOLB   C1C38561  16.200  16.240   1.900
 1607BOLB   C2C38562  16.300  16.460   2.260
 1607BOLB   C3C38563  16.290  16.350   2.710
 1607BOLB   C4C38564  16.520  16.290   3.050
 1607BOLB   C1D38565  16.410  16.710   1.780
 1607BOLB   C2D38566  16.670  16.900   2.100
 1607BOLB   C3D38567  16.580  16.910   2.500
 1607BOLB   C4D38568  16.670  17.240   2.830
 1608BOLB   NC138569  22.230  20.040   7.310
 1608BOLB   PO138570  22.670  20.190   7.380
 1608BOLB   GL138571  22.990  19.980   7.010
 1608BOLB   GL238572  22.860  19.660   6.990
 1608BOLB   C1A38573  23.360  20.120   6.750
 1608BOLB   C2A38574  23.580  20.190   6.450
 1608BOLB   C3A38575  23.870  20.200   6.060
 1608BOLB   C4A38576  24.190  19.840   5.870
 1608BOLB   C1B38577  22.890  19.280   6.930
 1608BOLB   C2B38578  23.020  19.180   6.500
 1608BOLB   C3B38579  23.200  18.890   6.220
 1608BOLB   C4B38580  23.580  18.700   6.040
 1608BOLB   NC238581  26.590  19.680   4.440
 1608BOLB   PO238582  26.210  19.500   4.330
 1608BOLB   GL338583  25.880  19.520   4.620
 1608BOLB   GL438584  25.860  19.780   4.840
 1608BOLB   C1C38585  25.520  19.460   4.940
 1608BOLB   C2C38586  25.170  19.460   5.160
 1608BOLB   C3C38587  24.850  19.670   5.410
 1608BOLB   C4C38588  24.560  19.670   5.710
 1608BOLB   C1D38589  25.420  19.980   4.910
 1608BOLB   C2D38590  25.160  20.050   5.240
 1608BOLB   C3D38591  24.800  20.120   5.620
 1608BOLB   C4D38592  24.610  20.170   5.910
 1609BOLB   NC138593  12.370  26.830  11.320
 1609BOLB   PO138594  12.130  27.130  11.110
 1609BOLB   GL138595  11.870  27.330  11.130
 1609BOLB   GL238596  11.480  27.280  11.140
 1609BOLB   C1A38597  11.700  27.690  10.840
 1609BOLB   C2A38598  11.750  28.010  10.500
 1609BOLB   C3A38599  11.600  28.270  10.190
 1609BOLB   C4A38600  11.580  28.660   9.920
 1609BOLB   C1B38601  11.150  27.590  10.990
 1609BOLB   C2B38602  10.760  27.590  10.990
 1609BOLB   C3B38603  10.330  27.640  11.130
 1609BOLB   C4B38604   9.920  27.870  11.300
 1609BOLB   NC238605  10.460  30.360   9.470
 1609BOLB   PO238606  10.880  30.580   9.670
 1609BOLB   GL338607  11.170  30.400   9.760
 1609BOLB   GL438608  11.150  30.420  10.100
 1609BOLB   C1C38609  11.310  29.950   9.900
 1609BOLB   C2C38610  11.670  29.650   9.890
 1609BOLB   C3C38611  11.870  29.340   9.810
 1609BOLB   C4C38612  11.670  29.020   9.740
 1609BOLB   C1D38613  11.080  29.890  10.280
 1609BOLB   C2D38614  11.250  29.510  10.180
 1609BOLB   C3D38615  11.620  29.210  10.300
 1609BOLB   C4D38616  11.870  29.040  10.720
 1610BOLB   NC138617  22.370  21.600   7.260
 1610BOLB   PO138618  22.570  21.880   6.910
 1610BOLB   GL138619  22.860  21.700   6.490
 1610BOLB   GL238620  22.950  21.440   6.120
 1610BOLB   C1A38621  23.200  21.840   6.320
 1610BOLB   C2A38622  23.320  21.720   5.930
 1610BOLB   C3A38623  23.430  21.620   5.550
 1610BOLB   C4A38624  23.440  21.520   5.090
 1610BOLB   C1B38625  23.320  21.180   5.860
 1610BOLB   C2B38626  23.670  21.170   5.550
 1610BOLB   C3B38627  23.810  20.810   5.200
 1610BOLB   C4B38628  24.190  20.660   5.100
 1610BOLB   NC238629  24.220  21.290   2.860
 1610BOLB   PO238630  24.200  20.850   2.800
 1610BOLB   GL338631  24.000  20.880   3.130
 1610BOLB   GL438632  23.750  20.980   3.040
 1610BOLB   C1C38633  24.000  21.010   3.580
 1610BOLB   C2C38634  23.860  21.180   3.910
 1610BOLB   C3C38635  23.640  21.270   4.270
 1610BOLB   C4C38636  23.550  21.540   4.630
 1610BOLB   C1D38637  23.680  21.300   3.260
 1610BOLB   C2D38638  23.420  21.490   3.530
 1610BOLB   C3D38639  23.100  21.390   3.890
 1610BOLB   C4D38640  22.650  21.620   3.900
 1611BOLB   NC138641  23.180  19.800   8.470
 1611BOLB   PO138642  22.970  19.470   8.410
 1611BOLB   GL138643  23.110  19.320   7.990
 1611BOLB   GL238644  23.300  19.500   7.760
 1611BOLB   C1A38645  23.450  19.050   7.660
 1611BOLB   C2A38646  23.780  18.770   7.450
 1611BOLB   C3A38647  24.150  18.590   7.100
 1611BOLB   C4A38648  24.580  18.400   6.880
 1611BOLB   C1B38649  23.380  19.720   7.250
 1611BOLB   C2B38650  23.330  19.540   6.920
 1611BOLB   C3B38651  23.550  19.270   6.600
 1611BOLB   C4B38652  23.810  18.980   6.370
 1611BOLB   NC238653  26.180  17.750   5.130
 1611BOLB   PO238654  26.230  18.120   4.790
 1611BOLB   GL338655  25.940  18.250   5.150
 1611BOLB   GL438656  26.030  18.610   5.200
 1611BOLB   C1C38657  25.770  18.410   5.600
 1611BOLB   C2C38658  25.420  18.360   5.890
 1611BOLB   C3C38659  25.090  18.450   6.240
 1611BOLB   C4C38660  24.880  18.330   6.450
 1611BOLB   C1D38661  25.740  19.000   4.950
 1611BOLB   C2D38662  25.230  19.020   5.030
 1611BOLB   C3D38663  24.910  18.980   5.230
 1611BOLB   C4D38664  24.600  19.250   5.480
 1612BOLB   NC138665  10.940  25.070   9.790
 1612BOLB   PO138666  11.060  24.700   9.510
 1612BOLB   GL138667  10.690  25.000   9.390
 1612BOLB   GL238668  10.480  24.730   9.530
 1612BOLB   C1A38669  10.550  25.240   9.110
 1612BOLB   C2A38670  10.160  25.420   9.120
 1612BOLB   C3A38671   9.780  25.640   9.200
 1612BOLB   C4A38672   9.450  25.850   9.390
 1612BOLB   C1B38673  10.260  24.750   9.190
 1612BOLB   C2B38674  10.040  24.490   8.980
 1612BOLB   C3B38675   9.700  24.610   8.880
 1612BOLB   C4B38676   9.380  24.510   8.590
 1612BOLB   NC238677   7.010  26.880   8.080
 1612BOLB   PO238678   7.260  27.030   8.540
 1612BOLB   GL338679   7.550  26.840   8.910
 1612BOLB   GL438680   7.630  27.100   9.120
 1612BOLB   C1C38681   8.000  26.640   8.940
 1612BOLB   C2C38682   8.410  26.290   9.040
 1612BOLB   C3C38683   8.760  26.000   9.270
 1612BOLB   C4C38684   9.130  25.950   9.140
 1612BOLB   C1D38685   7.940  27.090   9.360
 1612BOLB   C2D38686   8.300  26.830   9.380
 1612BOLB   C3D38687   8.690  26.450   9.410
 1612BOLB   C4D38688   9.100  26.260   9.530
 1613BOLB   NC138689  22.170  26.110   7.950
 1613BOLB   PO138690  22.310  26.390   7.620
 1613BOLB   GL138691  22.520  26.830   7.580
 1613BOLB   GL238692  22.670  26.690   7.310
 1613BOLB   C1A38693  22.820  27.180   7.420
 1613BOLB   C2A38694  22.980  27.540   7.170
 1613BOLB   C3A38695  23.280  27.860   7.140
 1613BOLB   C4A38696  23.410  28.280   7.110
 1613BOLB   C1B38697  22.960  26.970   6.990
 1613BOLB   C2B38698  22.940  26.980   6.490
 1613BOLB   C3B38699  23.030  26.990   6.080
 1613BOLB   C4B38700  23.320  27.080   5.920
 1613BOLB   NC238701  23.570  30.430   6.560
 1613BOLB   PO238702  23.690  30.250   6.090
 1613BOLB   GL338703  23.570  29.960   6.380
 1613BOLB   GL438704  23.230  29.770   6.240
 1613BOLB   C1C38705  23.500  29.830   6.820
 1613BOLB   C2C38706  23.670  29.580   7.170
 1613BOLB   C3C38707  23.590  29.180   7.360
 1613BOLB   C4C38708  23.530  28.660   7.250
 1613BOLB   C1D38709  23.070  29.590   6.580
 1613BOLB   C2D38710  23.070  29.700   7.010
 1613BOLB   C3D38711  23.180  29.490   7.340
 1613BOLB   C4D38712  23.180  29.390   7.660
 1614BOLB   NC138713  10.580  24.610  13.080
 1614BOLB   PO138714  10.180  24.640  13.000
 1614BOLB   GL138715   9.790  24.870  13.000
 1614BOLB   GL238716   9.590  24.720  12.900
 1614BOLB   C1A38717   9.660  25.300  13.130
 1614BOLB   C2A38718   9.300  25.680  13.170
 1614BOLB   C3A38719   8.840  25.830  13.200
 1614BOLB   C4A38720   8.470  26.020  13.290
 1614BOLB   C1B38721   9.230  25.020  12.860
 1614BOLB   C2B38722   8.960  25.350  12.910
 1614BOLB   C3B38723   8.600  25.430  12.680
 1614BOLB   C4B38724   8.160  25.520  12.650
 1614BOLB   NC238725   6.110  26.980  13.630
 1614BOLB   PO238726   6.420  27.130  13.440
 1614BOLB   GL338727   6.780  26.950  13.380
 1614BOLB   GL438728   6.900  26.990  13.070
 1614BOLB   C1C38729   7.070  26.640  13.450
 1614BOLB   C2C38730   7.460  26.460  13.220
 1614BOLB   C3C38731   7.600  26.190  13.340
 1614BOLB   C4C38732   8.040  26.240  13.360
 1614BOLB   C1D38733   7.260  26.790  12.940
 1614BOLB   C2D38734   7.530  26.580  12.630
 1614BOLB   C3D38735   8.030  26.690  12.530
 1614BOLB   C4D38736   8.390  26.780  12.460
 1615BOLB   NC138737  12.470  27.550  11.320
 1615BOLB   PO138738  12.880  27.430  11.470
 1615BOLB   GL138739  12.920  27.850  11.490
 1615BOLB   GL238740  12.890  28.000  11.250
 1615BOLB   C1A38741  12.880  28.240  11.650
 1615BOLB   C2A38742  12.810  28.690  11.790
 1615BOLB   C3A38743  12.490  28.840  11.540
 1615BOLB   C4A38744  12.180  29.140  11.360
 1615BOLB   C1B38745  12.570  28.250  11.000
 1615BOLB   C2B38746  12.320  28.440  10.720
 1615BOLB   C3B38747  12.060  28.440  10.410
 1615BOLB   C4B38748  11.940  28.870  10.180
 1615BOLB   NC238749  11.020  30.990  10.130
 1615BOLB   PO238750  10.790  30.910  10.530
 1615BOLB   GL338751  11.120  30.680  10.620
 1615BOLB   GL438752  11.320  30.870  10.790
 1615BOLB   C1C38753  11.320  30.240  10.560
 1615BOLB   C2C38754  11.440  29.860  10.640
 1615BOLB   C3C38755  11.560  29.610  10.890
 1615BOLB   C4C38756  11.740  29.260  11.190
 1615BOLB   C1D38757  11.550  30.570  11.020
 1615BOLB   C2D38758  11.640  30.140  11.060
 1615BOLB   C3D38759  11.360  29.870  11.250
 1615BOLB   C4D38760  11.300  29.340  11.350
 1616BOLB   NC138761  14.890  28.940  10.470
 1616BOLB   PO138762  15.240  28.940  10.230
 1616BOLB   GL138763  14.900  29.220  10.000
 1616BOLB   GL238764  15.150  29.320   9.690
 1616BOLB   C1A38765  14.760  29.510  10.240
 1616BOLB   C2A38766  14.460  29.880  10.110
 1616BOLB   C3A38767  14.190  30.190  10.100
 1616BOLB   C4A38768  14.220  30.490   9.820
 1616BOLB   C1B38769  14.940  29.740   9.800
 1616BOLB   C2B38770  14.890  29.940   9.460
 1616BOLB   C3B38771  14.570  30.030   9.150
 1616BOLB   C4B38772  14.300  30.360   8.900
 1616BOLB   NC238773  15.100  32.820   8.840
 1616BOLB   PO238774  14.930  32.460   8.860
 1616BOLB   GL338775  14.870  32.030   8.730
 1616BOLB   GL438776  14.530  31.920   8.610
 1616BOLB   C1C38777  14.820  31.530   8.720
 1616BOLB   C2C38778  14.690  31.130   8.960
 1616BOLB   C3C38779  14.510  31.020   9.360
 1616BOLB   C4C38780  14.510  30.850   9.760
 1616BOLB   C1D38781  14.370  31.640   8.790
 1616BOLB   C2D38782  13.980  31.560   8.980
 1616BOLB   C3D38783  13.720  31.210   9.190
 1616BOLB   C4D38784  13.600  31.150   9.600
 1617BOLB   NC138785  24.180  20.780  18.580
 1617BOLB   PO138786  24.020  20.420  18.770
 1617BOLB   GL138787  24.400  20.430  18.910
 1617BOLB   GL238788  24.680  20.510  18.780
 1617BOLB   C1A38789  24.640  20.410  19.340
 1617BOLB   C2A38790  24.960  20.440  19.520
 1617BOLB   C3A38791  25.310  20.200  19.610
 1617BOLB   C4A38792  25.650  20.020  19.390
 1617BOLB   C1B38793  25.060  20.440  18.980
 1617BOLB   C2B38794  25.410  20.310  19.080
 1617BOLB   C3B38795  25.780  20.150  18.910
 1617BOLB   C4B38796  26.220  20.170  19.040
 1617BOLB   NC238797  27.820  19.010  19.860
 1617BOLB   PO238798  28.010  18.950  19.360
 1617BOLB   GL338799  27.630  19.060  19.300
 1617BOLB   GL438800  27.550  19.530  19.150
 1617BOLB   C1C38801  27.190  19.150  19.250
 1617BOLB   C2C38802  26.860  19.390  19.050
 1617BOLB   C3C38803  26.490  19.420  19.290
 1617BOLB   C4C38804  26.150  19.830  19.380
 1617BOLB   C1D38805  27.260  19.390  18.740
 1617BOLB   C2D38806  27.000  19.230  18.320
 1617BOLB   C3D38807  26.660  19.160  18.130
 1617BOLB   C4D38808  26.560  18.710  17.970
 1618BOLB   NC138809  20.760  29.420   9.710
 1618BOLB   PO138810  21.090  29.100   9.810
 1618BOLB   GL138811  21.350  29.420   9.650
 1618BOLB   GL238812  21.450  29.500   9.950
 1618BOLB   C1A38813  21.610  29.690   9.390
 1618BOLB   C2A38814  21.650  29.800   8.990
 1618BOLB   C3A38815  21.640  29.960   8.590
 1618BOLB   C4A38816  21.590  30.070   8.150
 1618BOLB   C1B38817  21.810  29.690   9.820
 1618BOLB   C2B38818  21.930  30.010   9.680
 1618BOLB   C3B38819  21.740  30.210   9.380
 1618BOLB   C4B38820  21.500  30.530   9.210
 1618BOLB   NC238821  22.430  31.260   6.320
 1618BOLB   PO238822  22.480  31.550   6.630
 1618BOLB   GL338823  22.370  31.260   6.930
 1618BOLB   GL438824  21.990  31.260   6.940
 1618BOLB   C1C38825  22.210  31.090   7.330
 1618BOLB   C2C38826  21.960  30.740   7.430
 1618BOLB   C3C38827  22.030  30.350   7.610
 1618BOLB   C4C38828  21.860  30.080   7.850
 1618BOLB   C1D38829  21.680  31.030   7.160
 1618BOLB   C2D38830  21.520  30.610   7.350
 1618BOLB   C3D38831  21.620  30.180   7.380
 1618BOLB   C4D38832  21.500  29.870   7.570
 1619BOLB   NC138833  18.460  26.420   6.840
 1619BOLB   PO138834  18.120  26.210   6.580
 1619BOLB   GL138835  18.150  26.720   6.470
 1619BOLB   GL238836  18.300  26.790   6.300
 1619BOLB   C1A38837  18.360  27.160   6.600
 1619BOLB   C2A38838  18.420  27.580   6.310
 1619BOLB   C3A38839  18.690  27.830   6.080
 1619BOLB   C4A38840  18.570  28.000   5.610
 1619BOLB   C1B38841  18.300  27.120   5.900
 1619BOLB   C2B38842  18.070  27.210   5.530
 1619BOLB   C3B38843  17.880  26.840   5.510
 1619BOLB   C4B38844  17.660  26.520   5.180
 1619BOLB   NC238845  17.490  29.380   3.770
 1619BOLB   PO238846  17.520  28.970   3.830
 1619BOLB   GL338847  17.530  28.730   4.210
 1619BOLB   GL438848  17.670  28.390   4.190
 1619BOLB   C1C38849  17.860  28.790   4.420
 1619BOLB   C2C38850  18.200  28.640   4.710
 1619BOLB   C3C38851  18.450  28.550   5.010
 1619BOLB   C4C38852  18.440  28.210   5.250
 1619BOLB   C1D38853  17.850  28.200   4.540
 1619BOLB   C2D38854  17.910  28.250   5.040
 1619BOLB   C3D38855  17.940  27.930   5.330
 1619BOLB   C4D38856  17.780  27.690   5.650
 1620BOLB   NC138857  24.840  20.490  10.370
 1620BOLB   PO138858  24.940  20.350  10.800
 1620BOLB   GL138859  25.090  19.890  10.710
 1620BOLB   GL238860  24.970  19.810  10.370
 1620BOLB   C1A38861  25.470  19.770  10.490
 1620BOLB   C2A38862  25.740  19.430  10.320
 1620BOLB   C3A38863  26.080  19.350  10.090
 1620BOLB   C4A38864  26.410  19.060   9.810
 1620BOLB   C1B38865  25.350  19.980  10.050
 1620BOLB   C2B38866  25.810  19.950  10.060
 1620BOLB   C3B38867  26.160  20.020   9.780
 1620BOLB   C4B38868  26.270  20.400   9.420
 1620BOLB   NC238869  28.790  17.710   9.220
 1620BOLB   PO238870  28.500  18.060   9.020
 1620BOLB   GL338871  28.130  18.250   8.890
 1620BOLB   GL438872  28.130  18.660   8.860
 1620BOLB   C1C38873  27.720  18.350   9.050
 1620BOLB   C2C38874  27.400  18.590   9.150
 1620BOLB   C3C38875  27.020  18.520   9.380
 1620BOLB   C4C38876  26.690  18.930   9.470
 1620BOLB   C1D38877  27.770  18.830   8.810
 1620BOLB   C2D38878  27.430  19.070   8.680
 1620BOLB   C3D38879  27.150  19.320   8.760
 1620BOLB   C4D38880  27.140  19.590   8.350
 1621BOLB   NC138881  15.790  15.420   6.650
 1621BOLB   PO138882  15.630  14.970   6.400
 1621BOLB   GL138883  15.660  14.540   6.110
 1621BOLB   GL238884  16.010  14.300   6.150
 1621BOLB   C1A38885  15.690  14.140   5.840
 1621BOLB   C2A38886  15.530  13.940   5.520
 1621BOLB   C3A38887  15.200  13.840   5.360
 1621BOLB   C4A38888  15.070  13.450   5.200
 1621BOLB   C1B38889  16.140  14.020   5.880
 1621BOLB   C2B38890  16.060  13.780   5.530
 1621BOLB   C3B38891  15.910  13.720   5.220
 1621BOLB   C4B38892  16.040  13.910   4.820
 1621BOLB   NC238893  14.910  11.500   4.530
 1621BOLB   PO238894  15.160  11.110   4.710
 1621BOLB   GL338895  15.280  11.520   4.860
 1621BOLB   GL438896  15.560  11.360   5.110
 1621BOLB   C1C38897  15.310  11.980   4.940
 1621BOLB   C2C38898  15.140  12.390   4.940
 1621BOLB   C3C38899  14.980  12.770   4.770
 1621BOLB   C4C38900  15.110  13.110   4.830
 1621BOLB   C1D38901  15.590  11.750   5.320
 1621BOLB   C2D38902  15.660  12.050   5.230
 1621BOLB   C3D38903  15.600  12.390   5.210
 1621BOLB   C4D38904  15.320  12.780   5.190
 1622BOLB   NC138905  12.840  16.940  19.430
 1622BOLB   PO138906  13.190  16.810  19.700
 1622BOLB   GL138907  12.790  16.560  19.910
 1622BOLB   GL238908  12.580  16.430  19.780
 1622BOLB   C1A38909  12.590  16.530  20.300
 1622BOLB   C2A38910  12.500  16.410  20.650
 1622BOLB   C3A38911  12.480  16.050  20.880
 1622BOLB   C4A38912  12.210  16.120  21.290
 1622BOLB   C1B38913  12.450  16.110  20.140
 1622BOLB   C2B38914  12.210  15.800  20.390
 1622BOLB   C3B38915  12.070  15.530  20.550
 1622BOLB   C4B38916  11.700  15.280  20.580
 1622BOLB   NC238917  11.200  15.290  22.960
 1622BOLB   PO238918  11.440  14.950  23.140
 1622BOLB   GL338919  11.700  15.140  22.780
 1622BOLB   GL438920  11.990  15.300  22.750
 1622BOLB   C1C38921  11.690  15.100  22.330
 1622BOLB   C2C38922  11.610  15.310  21.970
 1622BOLB   C3C38923  11.830  15.520  21.680
 1622BOLB   C4C38924  12.030  15.850  21.620
 1622BOLB   C1D38925  12.120  15.320  22.280
 1622BOLB   C2D38926  12.280  15.420  21.870
 1622BOLB   C3D38927  12.320  15.430  21.490
 1622BOLB   C4D38928  12.340  15.660  21.100
 1623BOLB   NC138929  18.560  14.950   1.330
 1623BOLB   PO138930  18.800  15.400   1.450
 1623BOLB   GL138931  18.480  15.400   1.740
 1623BOLB   GL238932  18.570  15.070   1.810
 1623BOLB   C1A38933  18.330  15.550   2.100
 1623BOLB   C2A38934  18.280  15.800   2.400
 1623BOLB   C3A38935  18.240  16.080   2.790
 1623BOLB   C4A38936  17.900  16.190   3.050
 1623BOLB   C1B38937  18.230  15.020   2.150
 1623BOLB   C2B38938  17.930  14.850   2.420
 1623BOLB   C3B38939  17.640  14.660   2.700
 1623BOLB   C4B38940  17.480  14.890   3.010
 1623BOLB   NC238941  16.290  16.400   4.840
 1623BOLB   PO238942  16.670  16.760   4.790
 1623BOLB   GL338943  16.720  16.560   4.380
 1623BOLB   GL438944  16.630  16.310   4.470
 1623BOLB   C1C38945  16.980  16.290   4.160
 1623BOLB   C2C38946  17.230  16.220   3.820
 1623BOLB   C3C38947  17.380  16.180   3.430
 1623BOLB   C4C38948  17.590  16.380   3.230
 1623BOLB   C1D38949  16.280  16.420   4.170
 1623BOLB   C2D38950  16.080  16.310   3.710
 1623BOLB   C3D38951  16.000  16.130   3.320
 1623BOLB   C4D38952  15.860  15.700   3.170
 1624BOLB   NC138953  13.770  16.660  18.930
 1624BOLB   PO138954  13.720  16.430  19.470
 1624BOLB   GL138955  13.850  16.060  19.650
 1624BOLB   GL238956  14.000  15.840  19.530
 1624BOLB   C1A38957  13.680  15.660  19.870
 1624BOLB   C2A38958  13.600  15.410  20.220
 1624BOLB   C3A38959  13.590  15.200  20.550
 1624BOLB   C4A38960  13.340  14.910  20.750
 1624BOLB   C1B38961  14.240  15.530  19.690
 1624BOLB   C2B38962  14.210  15.190  20.020
 1624BOLB   C3B38963  14.180  15.150  20.370
 1624BOLB   C4B38964  14.460  15.380  20.580
 1624BOLB   NC238965  13.160  12.820  22.310
 1624BOLB   PO238966  13.320  12.730  21.940
 1624BOLB   GL338967  13.490  13.020  21.720
 1624BOLB   GL438968  13.480  13.070  21.390
 1624BOLB   C1C38969  13.570  13.510  21.600
 1624BOLB   C2C38970  13.540  13.850  21.280
 1624BOLB   C3C38971  13.380  14.150  21.070
 1624BOLB   C4C38972  13.470  14.500  20.780
 1624BOLB   C1D38973  13.360  13.330  21.110
 1624BOLB   C2D38974  13.320  13.690  20.890
 1624BOLB   C3D38975  13.460  14.050  20.540
 1624BOLB   C4D38976  13.450  14.320  20.280
 1625BOLB   NC138977  17.830  13.450  10.200
 1625BOLB   PO138978  17.930  13.020  10.020
 1625BOLB   GL138979  18.220  12.710  10.000
 1625BOLB   GL238980  18.540  12.720  10.260
 1625BOLB   C1A38981  18.470  12.430   9.840
 1625BOLB   C2A38982  18.430  12.000   9.710
 1625BOLB   C3A38983  18.590  11.610   9.730
 1625BOLB   C4A38984  18.520  11.160   9.820
 1625BOLB   C1B38985  18.280  12.300  10.330
 1625BOLB   C2B38986  18.320  11.950  10.230
 1625BOLB   C3B38987  18.190  11.560  10.120
 1625BOLB   C4B38988  18.110  11.190  10.230
 1625BOLB   NC238989  19.020   8.830   9.050
 1625BOLB   PO238990  19.400   8.860   9.280
 1625BOLB   GL338991  19.240   9.280   9.350
 1625BOLB   GL438992  19.050   9.360   9.070
 1625BOLB   C1C38993  19.030   9.670   9.520
 1625BOLB   C2C38994  18.800  10.080   9.620
 1625BOLB   C3C38995  18.700  10.390   9.530
 1625BOLB   C4C38996  18.620  10.860   9.500
 1625BOLB   C1D38997  18.710   9.600   9.140
 1625BOLB   C2D38998  18.400  10.040   9.250
 1625BOLB   C3D38999  18.260  10.420   9.310
 1625BOLB   C4D39000  18.220  10.870   9.150
 1626BOLB   NC139001   9.480  15.490   7.550
 1626BOLB   PO139002   9.600  15.020   7.550
 1626BOLB   GL139003  10.020  15.160   7.580
 1626BOLB   GL239004  10.170  15.190   7.240
 1626BOLB   C1A39005  10.310  15.250   7.920
 1626BOLB   C2A39006  10.730  15.330   7.890
 1626BOLB   C3A39007  11.190  15.600   7.690
 1626BOLB   C4A39008  11.290  16.020   7.530
 1626BOLB   C1B39009  10.360  15.520   7.440
 1626BOLB   C2B39010  10.460  15.730   7.870
 1626BOLB   C3B39011  10.890  15.830   8.000
 1626BOLB   C4B39012  11.050  16.240   7.980
 1626BOLB   NC239013  12.940  17.780   7.290
 1626BOLB   PO239014  13.070  17.420   7.570
 1626BOLB   GL339015  12.820  17.090   7.710
 1626BOLB   GL439016  12.720  17.190   7.930
 1626BOLB   C1C39017  12.530  16.790   7.600
 1626BOLB   C2C39018  12.160  16.570   7.850
 1626BOLB   C3C39019  11.810  16.500   7.840
 1626BOLB   C4C39020  11.450  16.310   7.690
 1626BOLB   C1D39021  12.340  17.010   8.100
 1626BOLB   C2D39022  11.920  16.770   8.250
 1626BOLB   C3D39023  11.650  16.690   8.570
 1626BOLB   C4D39024  11.550  16.840   9.000
 1627BOLB   NC139025  15.990  11.670  14.500
 1627BOLB   PO139026  16.270  11.730  14.320
 1627BOLB   GL139027  16.300  11.340  14.120
 1627BOLB   GL239028  16.640  11.250  14.070
 1627BOLB   C1A39029  16.240  10.990  13.950
 1627BOLB   C2A39030  16.180  10.590  14.100
 1627BOLB   C3A39031  16.000  10.190  14.430
 1627BOLB   C4A39032  16.160   9.820  14.440
 1627BOLB   C1B39033  16.950  11.040  14.300
 1627BOLB   C2B39034  16.970  10.700  14.550
 1627BOLB   C3B39035  17.170  10.750  14.970
 1627BOLB   C4B39036  17.290  10.910  15.260
 1627BOLB   NC239037  14.880   7.820  15.490
 1627BOLB   PO239038  15.100   8.160  15.690
 1627BOLB   GL339039  15.170   8.520  15.550
 1627BOLB   GL439040  14.910   8.780  15.610
 1627BOLB   C1C39041  15.430   8.650  15.200
 1627BOLB   C2C39042  15.670   8.850  14.800
 1627BOLB   C3C39043  15.960   9.190  14.900
 1627BOLB   C4C39044  16.140   9.520  14.690
 1627BOLB   C1D39045  14.870   9.090  15.290
 1627BOLB   C2D39046  14.880   9.500  15.160
 1627BOLB   C3D39047  14.840   9.890  14.940
 1627BOLB   C4D39048  14.860  10.230  14.880
 1628BOLB   NC139049  10.990  14.950  16.760
 1628BOLB   PO139050  11.340  14.760  17.000
 1628BOLB   GL139051  11.100  14.360  17.100
 1628BOLB   GL239052  10.670  14.390  17.050
 1628BOLB   C1A39053  10.940  14.000  17.260
 1628BOLB   C2A39054  10.680  13.720  17.670
 1628BOLB   C3A39055  10.660  13.290  17.830
 1628BOLB   C4A39056  10.340  13.030  17.940
 1628BOLB   C1B39057  10.490  13.950  17.010
 1628BOLB   C2B39058  10.330  13.810  17.350
 1628BOLB   C3B39059  10.000  13.740  17.550
 1628BOLB   C4B39060   9.710  13.450  17.400
 1628BOLB   NC239061   8.090  12.420  17.890
 1628BOLB   PO239062   7.740  12.750  18.040
 1628BOLB   GL339063   8.130  12.980  18.160
 1628BOLB   GL439064   8.140  13.260  18.330
 1628BOLB   C1C39065   8.570  13.030  18.180
 1628BOLB   C2C39066   9.020  12.860  18.140
 1628BOLB   C3C39067   9.430  12.800  18.010
 1628BOLB   C4C39068   9.910  12.860  18.110
 1628BOLB   C1D39069   8.430  13.470  18.410
 1628BOLB   C2D39070   8.780  13.610  18.600
 1628BOLB   C3D39071   9.020  13.560  18.940
 1628BOLB   C4D39072   9.450  13.520  19.020
 1629BOLB   NC139073  21.600  10.710   6.950
 1629BOLB   PO139074  21.460  11.000   7.320
 1629BOLB   GL139075  21.400  11.390   7.510
 1629BOLB   GL239076  21.660  11.560   7.560
 1629BOLB   C1A39077  21.080  11.400   7.740
 1629BOLB   C2A39078  20.950  11.740   8.030
 1629BOLB   C3A39079  20.830  12.130   8.190
 1629BOLB   C4A39080  20.550  12.400   8.200
 1629BOLB   C1B39081  21.410  11.870   7.650
 1629BOLB   C2B39082  20.990  12.100   7.680
 1629BOLB   C3B39083  20.580  11.970   7.690
 1629BOLB   C4B39084  20.280  11.960   7.420
 1629BOLB   NC239085  20.920  11.230   6.310
 1629BOLB   PO239086  21.180  11.540   6.510
 1629BOLB   GL339087  20.830  11.780   6.620
 1629BOLB   GL439088  20.970  11.910   6.810
 1629BOLB   C1C39089  20.560  11.850   7.000
 1629BOLB   C2C39090  20.540  12.310   7.170
 1629BOLB   C3C39091  20.320  12.480   7.560
 1629BOLB   C4C39092  20.340  12.510   8.100
 1629BOLB   C1D39093  20.630  12.190   6.580
 1629BOLB   C2D39094  20.310  12.420   6.740
 1629BOLB   C3D39095  20.050  12.390   7.060
 1629BOLB   C4D39096  19.790  12.300   7.370
 1630BOLB   NC139097  19.740   8.220  11.200
 1630BOLB   PO139098  19.440   8.520  11.040
 1630BOLB   GL139099  19.340   8.970  11.160
 1630BOLB   GL239100  19.520   9.100  11.390
 1630BOLB   C1A39101  19.010   9.170  11.140
 1630BOLB   C2A39102  19.110   9.640  11.130
 1630BOLB   C3A39103  18.970  10.000  11.100
 1630BOLB   C4A39104  18.630  10.330  11.270
 1630BOLB   C1B39105  19.450   9.470  11.610
 1630BOLB   C2B39106  19.350   9.810  11.710
 1630BOLB   C3B39107  19.230  10.220  11.940
 1630BOLB   C4B39108  19.230  10.670  11.950
 1630BOLB   NC239109  18.300  12.640  11.600
 1630BOLB   PO239110  17.860  12.660  11.150
 1630BOLB   GL339111  18.200  12.360  11.080
 1630BOLB   GL439112  18.150  12.150  10.830
 1630BOLB   C1C39113  18.510  11.960  11.120
 1630BOLB   C2C39114  18.300  11.600  11.250
 1630BOLB   C3C39115  18.300  11.140  11.210
 1630BOLB   C4C39116  18.470  10.760  11.300
 1630BOLB   C1D39117  18.320  11.660  10.630
 1630BOLB   C2D39118  18.670  11.430  10.770
 1630BOLB   C3D39119  18.940  11.070  10.720
 1630BOLB   C4D39120  19.010  10.830  10.450
 1631BOLB   NC139121  14.540  13.520   8.150
 1631BOLB   PO139122  14.620  13.100   8.190
 1631BOLB   GL139123  14.720  13.170   7.760
 1631BOLB   GL239124  14.390  13.330   7.720
 1631BOLB   C1A39125  14.590  12.900   7.380
 1631BOLB   C2A39126  14.570  12.670   7.100
 1631BOLB   C3A39127  14.650  12.200   7.030
 1631BOLB   C4A39128  14.970  11.940   7.220
 1631BOLB   C1B39129  14.020  13.490   7.600
 1631BOLB   C2B39130  13.690  13.450   7.290
 1631BOLB   C3B39131  13.330  13.500   7.230
 1631BOLB   C4B39132  13.000  13.600   6.940
 1631BOLB   NC239133  15.890   9.540   6.160
 1631BOLB   PO239134  15.560   9.820   6.440
 1631BOLB   GL339135  15.350  10.200   6.540
 1631BOLB   GL439136  15.210  10.410   6.390
 1631BOLB   C1C39137  15.580  10.620   6.690
 1631BOLB   C2C39138  15.680  10.890   7.060
 1631BOLB   C3C39139  15.490  11.260   7.160
 1631BOLB   C4C39140  15.210  11.610   7.270
 1631BOLB   C1D39141  15.370  10.940   6.370
 1631BOLB   C2D39142  15.490  11.290   6.620
 1631BOLB   C3D39143  15.520  11.710   6.860
 1631BOLB   C4D39144  15.740  11.970   7.170
 1632BOLB   NC139145  12.470  11.080   5.800
 1632BOLB   PO139146  12.630  11.110   6.240
 1632BOLB   GL139147  12.860  11.430   6.200
 1632BOLB   GL239148  12.980  11.430   6.500
 1632BOLB   C1A39149  12.930  11.880   6.260
 1632BOLB   C2A39150  12.950  12.250   6.550
 1632BOLB   C3A39151  13.240  12.530   6.710
 1632BOLB   C4A39152  13.660  12.520   6.690
 1632BOLB   C1B39153  13.250  11.860   6.620
 1632BOLB   C2B39154  13.200  12.110   7.030
 1632BOLB   C3B39155  13.290  12.430   7.270
 1632BOLB   C4B39156  13.170  12.730   7.580
 1632BOLB   NC239157  14.870  14.420   7.900
 1632BOLB   PO239158  14.580  14.480   7.510
 1632BOLB   GL339159  14.550  14.070   7.440
 1632BOLB   GL439160  14.670  14.080   7.100
 1632BOLB   C1C39161  14.410  13.740   7.280
 1632BOLB   C2C39162  14.380  13.370   7.250
 1632BOLB   C3C39163  14.130  12.960   7.140
 1632BOLB   C4C39164  13.960  12.680   6.930
 1632BOLB   C1D39165  14.590  13.790   6.800
 1632BOLB   C2D39166  14.340  13.380   6.710
 1632BOLB   C3D39167  14.460  13.010   6.760
 1632BOLB   C4D39168  14.420  12.590   6.620
 1633BOLB   NC139169   9.920  20.740  22.380
 1633BOLB   PO139170  10.300  20.630  22.210
 1633BOLB   GL139171  10.390  20.490  21.810
 1633BOLB   GL239172  10.280  20.360  21.530
 1633BOLB   C1A39173  10.730  20.370  21.490
 1633BOLB   C2A39174  11.080  20.510  21.460
 1633BOLB   C3A39175  11.520  20.520  21.540
 1633BOLB   C4A39176  11.840  20.310  21.510
 1633BOLB   C1B39177  10.300  20.310  21.180
 1633BOLB   C2B39178  10.650  20.130  21.020
 1633BOLB   C3B39179  10.870  19.900  20.750
 1633BOLB   C4B39180  10.970  19.520  21.010
 1633BOLB   NC239181  12.590  20.300  18.710
 1633BOLB   PO239182  12.560  20.120  19.120
 1633BOLB   GL339183  12.370  20.270  19.570
 1633BOLB   GL439184  12.610  20.510  19.730
 1633BOLB   C1C39185  12.280  20.300  20.020
 1633BOLB   C2C39186  12.250  20.510  20.430
 1633BOLB   C3C39187  12.090  20.400  20.810
 1633BOLB   C4C39188  12.080  20.270  21.250
 1633BOLB   C1D39189  12.330  20.790  19.990
 1633BOLB   C2D39190  12.020  20.910  20.270
 1633BOLB   C3D39191  11.730  21.290  20.270
 1633BOLB   C4D39192  11.270  21.380  20.180
 1634BOLB   NC139193  13.060   9.470   9.890
 1634BOLB   PO139194  12.770   9.610  10.170
 1634BOLB   GL139195  12.860  10.030  10.040
 1634BOLB   GL239196  12.640  10.130   9.850
 1634BOLB   C1A39197  12.870  10.420  10.250
 1634BOLB   C2A39198  13.090  10.600  10.360
 1634BOLB   C3A39199  13.140  11.010  10.600
 1634BOLB   C4A39200  13.430  11.360  10.660
 1634BOLB   C1B39201  12.780  10.590   9.790
 1634BOLB   C2B39202  12.890  10.860   9.990
 1634BOLB   C3B39203  13.160  11.160  10.050
 1634BOLB   C4B39204  13.320  11.480  10.110
 1634BOLB   NC239205  14.690  12.950  11.620
 1634BOLB   PO239206  14.810  12.640  11.340
 1634BOLB   GL339207  14.610  12.220  11.130
 1634BOLB   GL439208  14.800  12.140  10.790
 1634BOLB   C1C39209  14.390  11.870  10.950
 1634BOLB   C2C39210  14.320  11.980  10.520
 1634BOLB   C3C39211  13.940  11.910  10.360
 1634BOLB   C4C39212  13.580  11.740  10.490
 1634BOLB   C1D39213  14.860  11.690  10.850
 1634BOLB   C2D39214  14.930  11.360  11.050
 1634BOLB   C3D39215  14.960  10.930  10.970
 1634BOLB   C4D39216  14.560  10.760  10.780
 1635BOLB   NC139217  14.530  16.610   5.600
 1635BOLB   PO139218  14.440  16.070   5.630
 1635BOLB   GL139219  14.350  15.680   5.430
 1635BOLB   GL239220  14.390  15.750   5.080
 1635BOLB   C1A39221  14.190  15.180   5.400
 1635BOLB   C2A39222  14.030  14.930   5.410
 1635BOLB   C3A39223  13.720  14.580   5.560
 1635BOLB   C4A39224  13.370  14.300   5.470
 1635BOLB   C1B39225  14.010  15.500   5.060
 1635BOLB   C2B39226  13.860  15.030   4.930
 1635BOLB   C3B39227  13.370  14.920   4.860
 1635BOLB   C4B39228  13.040  15.080   4.760
 1635BOLB   NC239229  11.970  13.000   4.470
 1635BOLB   PO239230  11.560  13.220   4.500
 1635BOLB   GL339231  11.930  13.530   4.610
 1635BOLB   GL439232  11.970  13.280   4.890
 1635BOLB   C1C39233  12.270  13.740   4.720
 1635BOLB   C2C39234  12.580  13.620   5.000
 1635BOLB   C3C39235  12.920  13.550   5.200
 1635BOLB   C4C39236  13.150  13.900   5.430
 1635BOLB   C1D39237  12.070  13.570   5.210
 1635BOLB   C2D39238  12.020  13.960   5.300
 1635BOLB   C3D39239  12.470  14.200   5.210
 1635BOLB   C4D39240  12.900  14.070   5.050
 1636BOLB   NC139241   9.840  10.700  15.990
 1636BOLB   PO139242   9.770  11.170  16.030
 1636BOLB   GL139243  10.000  11.340  15.830
 1636BOLB   GL239244   9.840  11.530  15.500
 1636BOLB   C1A39245  10.430  11.430  15.970
 1636BOLB   C2A39246  10.770  11.760  15.810
 1636BOLB   C3A39247  10.870  12.270  15.760
 1636BOLB   C4A39248  11.030  12.670  15.550
 1636BOLB   C1B39249  10.340  11.510  15.440
 1636BOLB   C2B39250  10.700  11.270  15.420
 1636BOLB   C3B39251  11.140  11.410  15.380
 1636BOLB   C4B39252  11.510  11.620  15.390
 1636BOLB   NC239253   9.120  12.320  13.850
 1636BOLB   PO239254   9.580  12.170  13.840
 1636BOLB   GL339255   9.820  12.380  14.010
 1636BOLB   GL439256  10.170  12.330  13.940
 1636BOLB   C1C39257  10.210  12.650  14.270
 1636BOLB   C2C39258  10.370  13.100  14.550
 1636BOLB   C3C39259  10.640  13.120  14.910
 1636BOLB   C4C39260  10.750  12.790  15.280
 1636BOLB   C1D39261  10.440  12.230  14.100
 1636BOLB   C2D39262  10.710  12.560  14.120
 1636BOLB   C3D39263  10.900  12.830  14.340
 1636BOLB   C4D39264  11.010  12.820  14.730
 1637BOLB   NC139265  16.840  14.140  17.760
 1637BOLB   PO139266  16.790  13.770  17.590
 1637BOLB   GL139267  16.650  13.340  17.890
 1637BOLB   GL239268  16.410  13.150  17.850
 1637BOLB   C1A39269  16.870  12.950  18.080
 1637BOLB   C2A39270  17.140  12.770  18.290
 1637BOLB   C3A39271  17.490  12.610  18.480
 1637BOLB   C4A39272  17.620  12.670  18.940
 1637BOLB   C1B39273  16.440  12.770  18.110
 1637BOLB   C2B39274  16.660  12.530  18.410
 1637BOLB   C3B39275  17.010  12.270  18.400
 1637BOLB   C4B39276  17.460  12.110  18.530
 1637BOLB   NC239277  18.510  11.770  20.790
 1637BOLB   PO239278  18.220  11.730  21.170
 1637BOLB   GL339279  17.960  11.750  20.860
 1637BOLB   GL439280  18.130  11.860  20.500
 1637BOLB   C1C39281  17.690  11.790  20.410
 1637BOLB   C2C39282  17.780  12.010  20.050
 1637BOLB   C3C39283  17.780  12.260  19.800
 1637BOLB   C4C39284  17.780  12.490  19.370
 1637BOLB   C1D39285  18.260  12.160  20.230
 1637BOLB   C2D39286  18.250  12.450  19.860
 1637BOLB   C3D39287  18.310  12.630  19.520
 1637BOLB   C4D39288  18.580  12.810  19.300
 1638BOLB   NC139289  21.000  14.490  15.330
 1638BOLB   PO139290  21.420  14.340  15.230
 1638BOLB   GL139291  21.690  14.140  15.540
 1638BOLB   GL239292  21.510  13.800  15.620
 1638BOLB   C1A39293  21.980  13.620  15.470
 1638BOLB   C2A39294  22.140  13.330  15.710
 1638BOLB   C3A39295  22.000  12.870  15.720
 1638BOLB   C4A39296  21.850  12.500  15.790
 1638BOLB   C1B39297  21.630  13.420  15.800
 1638BOLB   C2B39298  21.530  13.050  15.950
 1638BOLB   C3B39299  21.220  12.820  16.190
 1638BOLB   C4B39300  20.970  12.900  16.460
 1638BOLB   NC239301  22.530   9.950  17.330
 1638BOLB   PO239302  22.380  10.260  16.920
 1638BOLB   GL339303  22.220  10.860  16.880
 1638BOLB   GL439304  22.160  10.920  17.140
 1638BOLB   C1C39305  22.280  11.210  16.580
 1638BOLB   C2C39306  22.190  11.570  16.410
 1638BOLB   C3C39307  21.970  11.890  16.180
 1638BOLB   C4C39308  21.780  12.180  15.930
 1638BOLB   C1D39309  21.930  11.210  16.990
 1638BOLB   C2D39310  21.740  11.420  16.630
 1638BOLB   C3D39311  21.610  11.610  16.270
 1638BOLB   C4D39312  21.510  11.720  15.860
 1639BOLB   NC139313  14.720  12.800  10.210
 1639BOLB   PO139314  14.770  13.130  10.040
 1639BOLB   GL139315  14.560  12.860   9.750
 1639BOLB   GL239316  14.360  12.710   9.880
 1639BOLB   C1A39317  14.630  12.590   9.380
 1639BOLB   C2A39318  14.390  12.400   9.030
 1639BOLB   C3A39319  14.210  12.040   9.030
 1639BOLB   C4A39320  13.920  11.730   8.710
 1639BOLB   C1B39321  13.860  12.520   9.800
 1639BOLB   C2B39322  13.460  12.420   9.590
 1639BOLB   C3B39323  13.200  12.540   9.250
 1639BOLB   C4B39324  13.050  12.790   8.890
 1639BOLB   NC239325  13.640   9.420   7.850
 1639BOLB   PO239326  13.570   9.690   7.550
 1639BOLB   GL339327  13.750  10.090   7.490
 1639BOLB   GL439328  13.860  10.370   7.240
 1639BOLB   C1C39329  13.640  10.410   7.770
 1639BOLB   C2C39330  13.640  10.900   7.770
 1639BOLB   C3C39331  13.860  11.240   7.960
 1639BOLB   C4C39332  13.930  11.420   8.410
 1639BOLB   C1D39333  14.080  10.500   7.640
 1639BOLB   C2D39334  14.200  10.840   7.990
 1639BOLB   C3D39335  14.340  11.220   8.090
 1639BOLB   C4D39336  14.410  11.650   8.250
 1640BOLB   NC139337  18.290   8.070  12.600
 1640BOLB   PO139338  18.510   8.190  12.240
 1640BOLB   GL139339  18.280   8.550  12.240
 1640BOLB   GL239340  18.010   8.490  12.340
 1640BOLB   C1A39341  18.300   8.930  12.300
 1640BOLB   C2A39342  18.010   9.210  12.390
 1640BOLB   C3A39343  17.750   9.610  12.410
 1640BOLB   C4A39344  17.700   9.970  12.160
 1640BOLB   C1B39345  17.730   8.780  12.490
 1640BOLB   C2B39346  17.680   9.140  12.800
 1640BOLB   C3B39347  17.380   9.460  12.850
 1640BOLB   C4B39348  17.250   9.880  12.760
 1640BOLB   NC239349  16.570  11.890  12.290
 1640BOLB   PO239350  16.580  12.180  11.860
 1640BOLB   GL339351  16.740  11.770  11.860
 1640BOLB   GL439352  16.510  11.570  11.840
 1640BOLB   C1C39353  17.040  11.460  11.930
 1640BOLB   C2C39354  17.320  11.220  11.900
 1640BOLB   C3C39355  17.590  10.860  11.850
 1640BOLB   C4C39356  17.730  10.380  11.890
 1640BOLB   C1D39357  16.530  11.180  11.590
 1640BOLB   C2D39358  16.530  10.710  11.700
 1640BOLB   C3D39359  16.320  10.390  11.920
 1640BOLB   C4D39360  16.290   9.980  12.120
 1641BOLB   NC139361  22.510  12.440   5.660
 1641BOLB   PO139362  22.780  12.880   5.540
 1641BOLB   GL139363  22.620  12.950   6.010
 1641BOLB   GL239364  22.250  12.840   5.970
 1641BOLB   C1A39365  22.530  13.070   6.390
 1641BOLB   C2A39366  22.340  13.400   6.640
 1641BOLB   C3A39367  22.110  13.630   7.000
 1641BOLB   C4A39368  21.980  13.710   7.440
 1641BOLB   C1B39369  22.090  12.910   6.450
 1641BOLB   C2B39370  21.900  13.200   6.590
 1641BOLB   C3B39371  21.700  13.130   6.930
 1641BOLB   C4B39372  21.600  13.370   7.240
 1641BOLB   NC239373  19.860  15.050   8.270
 1641BOLB   PO239374  20.110  14.900   8.610
 1641BOLB   GL339375  20.460  14.820   8.380
 1641BOLB   GL439376  20.230  14.780   8.100
 1641BOLB   C1C39377  20.830  14.590   8.050
 1641BOLB   C2C39378  21.060  14.610   7.660
 1641BOLB   C3C39379  21.290  14.180   7.620
 1641BOLB   C4C39380  21.630  13.970   7.680
 1641BOLB   C1D39381  20.430  14.440   7.840
 1641BOLB   C2D39382  20.800  14.140   7.780
 1641BOLB   C3D39383  20.980  13.800   7.700
 1641BOLB   C4D39384  21.330  13.680   7.480
 1642BOLB   NC139385  19.950  21.450   5.430
 1642BOLB   PO139386  19.510  21.470   5.300
 1642BOLB   GL139387  19.280  21.470   4.880
 1642BOLB   GL239388  19.340  21.870   4.990
 1642BOLB   C1A39389  19.100  21.280   4.470
 1642BOLB   C2A39390  19.050  21.230   3.970
 1642BOLB   C3A39391  18.890  21.390   3.580
 1642BOLB   C4A39392  18.880  21.380   3.130
 1642BOLB   C1B39393  19.340  21.890   4.560
 1642BOLB   C2B39394  19.120  22.000   4.110
 1642BOLB   C3B39395  19.080  22.150   3.670
 1642BOLB   C4B39396  19.060  21.890   3.200
 1642BOLB   NC239397  19.160  22.750   1.270
 1642BOLB   PO239398  19.380  22.510   1.170
 1642BOLB   GL339399  19.610  22.430   1.630
 1642BOLB   GL439400  19.740  22.720   1.800
 1642BOLB   C1C39401  19.510  22.220   1.970
 1642BOLB   C2C39402  19.320  21.960   2.240
 1642BOLB   C3C39403  19.130  21.730   2.500
 1642BOLB   C4C39404  19.060  21.540   2.800
 1642BOLB   C1D39405  19.840  22.570   2.120
 1642BOLB   C2D39406  20.080  22.330   2.400
 1642BOLB   C3D39407  20.170  22.110   2.710
 1642BOLB   C4D39408  20.400  21.780   2.950
 1643BOLB   NC139409  15.350  11.500  20.830
 1643BOLB   PO139410  14.980  11.590  20.680
 1643BOLB   GL139411  14.860  12.030  20.500
 1643BOLB   GL239412  14.590  12.260  20.630
 1643BOLB   C1A39413  15.040  12.270  20.220
 1643BOLB   C2A39414  15.200  12.660  20.080
 1643BOLB   C3A39415  15.220  13.020  20.210
 1643BOLB   C4A39416  15.020  13.300  20.380
 1643BOLB   C1B39417  14.540  12.360  20.240
 1643BOLB   C2B39418  14.340  12.760  20.040
 1643BOLB   C3B39419  14.140  13.080  20.100
 1643BOLB   C4B39420  13.900  13.470  20.070
 1643BOLB   NC239421  15.320  14.070  22.750
 1643BOLB   PO239422  15.640  13.740  22.520
 1643BOLB   GL339423  15.590  13.770  22.100
 1643BOLB   GL439424  15.790  13.770  21.860
 1643BOLB   C1C39425  15.270  13.630  21.810
 1643BOLB   C2C39426  15.020  13.440  21.530
 1643BOLB   C3C39427  14.880  13.420  21.100
 1643BOLB   C4C39428  14.870  13.470  20.650
 1643BOLB   C1D39429  15.950  13.930  21.460
 1643BOLB   C2D39430  15.810  14.090  21.080
 1643BOLB   C3D39431  16.000  14.110  20.610
 1643BOLB   C4D39432  16.150  14.300  20.220
 1644BOLB   NC139433  16.190  12.310  13.100
 1644BOLB   PO139434  16.520  12.140  12.840
 1644BOLB   GL139435  16.640  11.710  12.760
 1644BOLB   GL239436  16.460  11.610  12.900
 1644BOLB   C1A39437  16.790  11.280  12.620
 1644BOLB   C2A39438  16.700  10.830  12.630
 1644BOLB   C3A39439  16.970  10.480  12.310
 1644BOLB   C4A39440  17.210  10.040  12.260
 1644BOLB   C1B39441  16.420  11.120  13.000
 1644BOLB   C2B39442  16.440  10.660  13.080
 1644BOLB   C3B39443  16.650  10.310  12.910
 1644BOLB   C4B39444  16.920  10.170  12.710
 1644BOLB   NC239445  17.320   7.760  12.760
 1644BOLB   PO239446  17.280   7.670  12.370
 1644BOLB   GL339447  17.460   7.970  12.110
 1644BOLB   GL439448  17.620   8.090  11.840
 1644BOLB   C1C39449  17.470   8.510  12.140
 1644BOLB   C2C39450  17.310   8.910  12.040
 1644BOLB   C3C39451  17.420   9.270  12.280
 1644BOLB   C4C39452  17.260   9.580  12.370
 1644BOLB   C1D39453  17.850   8.410  11.830
 1644BOLB   C2D39454  17.880   8.870  11.970
 1644BOLB   C3D39455  17.760   9.270  11.850
 1644BOLB   C4D39456  17.800   9.610  11.660
 1645BOLB   NC139457  15.990  12.700   9.760
 1645BOLB   PO139458  15.920  12.310   9.690
 1645BOLB   GL139459  15.980  11.850   9.430
 1645BOLB   GL239460  16.100  11.540   9.610
 1645BOLB   C1A39461  16.110  11.380   9.150
 1645BOLB   C2A39462  16.420  11.150   9.130
 1645BOLB   C3A39463  16.580  10.990   9.420
 1645BOLB   C4A39464  16.620  10.540   9.740
 1645BOLB   C1B39465  16.490  11.540   9.470
 1645BOLB   C2B39466  16.760  11.500   9.120
 1645BOLB   C3B39467  16.980  11.120   9.110
 1645BOLB   C4B39468  17.070  10.740   9.410
 1645BOLB   NC239469  15.650   7.930  10.310
 1645BOLB   PO239470  15.920   8.150   9.970
 1645BOLB   GL339471  16.030   8.440  10.070
 1645BOLB   GL439472  16.300   8.340  10.310
 1645BOLB   C1C39473  16.210   8.940  10.210
 1645BOLB   C2C39474  16.100   9.280  10.330
 1645BOLB   C3C39475  16.260   9.700  10.160
 1645BOLB   C4C39476  16.430  10.140   9.990
 1645BOLB   C1D39477  16.500   8.750  10.540
 1645BOLB   C2D39478  16.380   9.100  10.740
 1645BOLB   C3D39479  16.390   9.610  10.660
 1645BOLB   C4D39480  16.370  10.120  10.470
 1646BOLB   NC139481  20.860  23.140   5.800
 1646BOLB   PO139482  20.350  23.200   5.960
 1646BOLB   GL139483  20.230  23.350   5.580
 1646BOLB   GL239484  19.960  23.200   5.520
 1646BOLB   C1A39485  20.300  23.550   5.140
 1646BOLB   C2A39486  20.160  23.840   4.840
 1646BOLB   C3A39487  20.230  24.050   4.420
 1646BOLB   C4A39488  20.280  24.170   4.060
 1646BOLB   C1B39489  20.130  23.100   5.110
 1646BOLB   C2B39490  20.510  22.980   4.850
 1646BOLB   C3B39491  20.650  22.930   4.440
 1646BOLB   C4B39492  20.550  22.870   3.990
 1646BOLB   NC239493  21.280  25.830   2.230
 1646BOLB   PO239494  21.550  25.490   2.420
 1646BOLB   GL339495  21.190  25.170   2.550
 1646BOLB   GL439496  21.110  24.980   2.280
 1646BOLB   C1C39497  20.950  25.140   2.880
 1646BOLB   C2C39498  20.840  24.840   3.300
 1646BOLB   C3C39499  20.580  24.660   3.420
 1646BOLB   C4C39500  20.380  24.520   3.690
 1646BOLB   C1D39501  20.720  24.680   2.360
 1646BOLB   C2D39502  20.430  24.640   2.760
 1646BOLB   C3D39503  20.190  24.830   3.080
 1646BOLB   C4D39504  20.210  25.110   3.430
 1647BOLB   NC139505  18.150  20.740   5.270
 1647BOLB   PO139506  18.120  20.980   4.930
 1647BOLB   GL139507  18.380  21.190   4.590
 1647BOLB   GL239508  18.450  21.470   4.760
 1647BOLB   C1A39509  18.500  21.300   4.080
 1647BOLB   C2A39510  18.460  21.550   3.720
 1647BOLB   C3A39511  18.490  21.880   3.480
 1647BOLB   C4A39512  18.670  22.240   3.370
 1647BOLB   C1B39513  18.290  21.680   4.450
 1647BOLB   C2B39514  18.100  21.830   4.150
 1647BOLB   C3B39515  18.070  21.920   3.660
 1647BOLB   C4B39516  18.130  22.320   3.440
 1647BOLB   NC239517  18.490  22.860   0.760
 1647BOLB   PO239518  18.800  22.680   0.970
 1647BOLB   GL339519  18.830  22.360   1.310
 1647BOLB   GL439520  19.050  22.410   1.650
 1647BOLB   C1C39521  18.610  22.180   1.680
 1647BOLB   C2C39522  18.500  22.260   2.120
 1647BOLB   C3C39523  18.460  22.400   2.620
 1647BOLB   C4C39524  18.540  22.480   3.000
 1647BOLB   C1D39525  19.010  22.300   2.010
 1647BOLB   C2D39526  18.910  22.190   2.470
 1647BOLB   C3D39527  18.680  21.980   2.790
 1647BOLB   C4D39528  18.470  21.520   2.820
 1648BOLB   NC139529  19.860  15.290   8.960
 1648BOLB   PO139530  20.070  14.960   9.170
 1648BOLB   GL139531  20.330  14.580   8.980
 1648BOLB   GL239532  20.570  14.750   8.930
 1648BOLB   C1A39533  20.430  14.190   8.880
 1648BOLB   C2A39534  20.450  13.750   8.690
 1648BOLB   C3A39535  20.530  13.380   8.510
 1648BOLB   C4A39536  20.820  12.960   8.510
 1648BOLB   C1B39537  20.760  14.500   8.680
 1648BOLB   C2B39538  20.960  14.150   8.350
 1648BOLB   C3B39539  21.280  13.960   8.150
 1648BOLB   C4B39540  21.510  13.550   7.970
 1648BOLB   NC239541  21.800  10.510   8.390
 1648BOLB   PO239542  21.760  10.870   8.180
 1648BOLB   GL339543  21.780  11.310   8.190
 1648BOLB   GL439544  21.830  11.460   8.520
 1648BOLB   C1C39545  21.470  11.670   8.130
 1648BOLB   C2C39546  21.390  12.060   8.140
 1648BOLB   C3C39547  21.220  12.410   8.170
 1648BOLB   C4C39548  20.970  12.550   8.430
 1648BOLB   C1D39549  21.760  11.890   8.450
 1648BOLB   C2D39550  21.570  12.320   8.610
 1648BOLB   C3D39551  21.400  12.730   8.690
 1648BOLB   C4D39552  21.260  13.090   8.750
 1649BOLB   NC139553  22.090  22.570   6.260
 1649BOLB   PO139554  21.780  22.410   6.080
 1649BOLB   GL139555  22.040  22.160   5.880
 1649BOLB   GL239556  22.320  22.240   5.900
 1649BOLB   C1A39557  22.130  21.900   5.540
 1649BOLB   C2A39558  22.360  21.650   5.160
 1649BOLB   C3A39559  22.490  21.450   4.770
 1649BOLB   C4A39560  22.550  21.380   4.340
 1649BOLB   C1B39561  22.500  22.570   5.620
 1649BOLB   C2B39562  22.740  22.590   5.320
 1649BOLB   C3B39563  23.060  22.320   5.070
 1649BOLB   C4B39564  23.530  22.260   4.970
 1649BOLB   NC239565  22.880  20.010   2.340
 1649BOLB   PO239566  23.110  20.380   2.340
 1649BOLB   GL339567  22.880  20.530   2.640
 1649BOLB   GL439568  23.020  20.800   2.680
 1649BOLB   C1C39569  22.740  20.500   3.040
 1649BOLB   C2C39570  22.640  20.650   3.420
 1649BOLB   C3C39571  22.430  20.870   3.660
 1649BOLB   C4C39572  22.460  21.090   3.970
 1649BOLB   C1D39573  22.780  21.000   3.050
 1649BOLB   C2D39574  22.320  21.020   3.230
 1649BOLB   C3D39575  21.960  20.920   3.460
 1649BOLB   C4D39576  21.940  20.990   3.970
 1650BOLB   NC139577  16.640  12.990  16.640
 1650BOLB   PO139578  16.990  13.240  16.800
 1650BOLB   GL139579  17.030  12.840  16.950
 1650BOLB   GL239580  17.040  12.700  16.790
 1650BOLB   C1A39581  17.150  12.700  17.280
 1650BOLB   C2A39582  17.240  12.320  17.510
 1650BOLB   C3A39583  17.180  11.910  17.600
 1650BOLB   C4A39584  17.240  11.510  17.810
 1650BOLB   C1B39585  17.090  12.280  16.880
 1650BOLB   C2B39586  17.420  12.050  17.020
 1650BOLB   C3B39587  17.610  11.680  17.240
 1650BOLB   C4B39588  17.610  11.520  17.580
 1650BOLB   NC239589  17.910   9.740  19.290
 1650BOLB   PO239590  18.380   9.800  19.290
 1650BOLB   GL339591  18.170  10.140  18.980
 1650BOLB   GL439592  18.330  10.400  18.770
 1650BOLB   C1C39593  17.890  10.180  18.600
 1650BOLB   C2C39594  17.680  10.440  18.370
 1650BOLB   C3C39595  17.570  10.790  18.090
 1650BOLB   C4C39596  17.390  11.210  17.990
 1650BOLB   C1D39597  18.050  10.630  18.910
 1650BOLB   C2D39598  17.820  10.990  19.020
 1650BOLB   C3D39599  17.570  11.410  18.840
 1650BOLB   C4D39600  17.320  11.780  18.940
 1651BOLB   NC139601  13.870  12.690  21.980
 1651BOLB   PO139602  14.150  12.890  22.210
 1651BOLB   GL139603  14.420  13.230  22.060
 1651BOLB   GL239604  14.300  13.480  22.150
 1651BOLB   C1A39605  14.690  13.550  21.890
 1651BOLB   C2A39606  14.890  14.020  21.840
 1651BOLB   C3A39607  14.840  14.410  21.480
 1651BOLB   C4A39608  14.820  14.330  21.110
 1651BOLB   C1B39609  14.190  13.560  21.700
 1651BOLB   C2B39610  13.980  13.840  21.580
 1651BOLB   C3B39611  13.800  14.290  21.410
 1651BOLB   C4B39612  14.050  14.640  21.480
 1651BOLB   NC239613  13.690  12.070  21.540
 1651BOLB   PO239614  13.860  12.160  21.140
 1651BOLB   GL339615  13.790  12.580  21.130
 1651BOLB   GL439616  13.580  12.690  21.060
 1651BOLB   C1C39617  14.100  12.890  21.000
 1651BOLB   C2C39618  14.400  13.220  20.940
 1651BOLB   C3C39619  14.410  13.670  20.890
 1651BOLB   C4C39620  14.750  13.960  20.890
 1651BOLB   C1D39621  13.650  13.050  20.790
 1651BOLB   C2D39622  13.650  13.130  20.330
 1651BOLB   C3D39623  13.520  13.180  19.920
 1651BOLB   C4D39624  13.290  13.160  19.590
 1652BOLB   NC139625  15.470  11.690  13.320
 1652BOLB   PO139626  15.840  11.700  13.560
 1652BOLB   GL139627  15.700  11.240  13.420
 1652BOLB   GL239628  15.780  11.250  13.110
 1652BOLB   C1A39629  15.710  10.880  13.530
 1652BOLB   C2A39630  15.890  10.440  13.330
 1652BOLB   C3A39631  16.240  10.200  13.220
 1652BOLB   C4A39632  16.440   9.720  13.150
 1652BOLB   C1B39633  15.980  10.840  13.040
 1652BOLB   C2B39634  16.090  10.440  12.800
 1652BOLB   C3B39635  15.950  10.110  12.600
 1652BOLB   C4B39636  15.800   9.980  12.210
 1652BOLB   NC239637  16.620   7.140  12.550
 1652BOLB   PO239638  16.820   7.580  12.480
 1652BOLB   GL339639  16.920   7.980  12.580
 1652BOLB   GL439640  17.050   8.240  12.360
 1652BOLB   C1C39641  16.860   8.460  12.740
 1652BOLB   C2C39642  16.710   8.810  12.940
 1652BOLB   C3C39643  16.710   9.080  13.240
 1652BOLB   C4C39644  16.610   9.390  13.340
 1652BOLB   C1D39645  16.910   8.560  12.230
 1652BOLB   C2D39646  16.820   8.920  11.940
 1652BOLB   C3D39647  16.480   9.150  12.010
 1652BOLB   C4D39648  16.410   9.480  12.000
 1653BOLB   NC139649  13.100   8.570  11.250
 1653BOLB   PO139650  13.130   8.540  10.840
 1653BOLB   GL139651  13.050   9.000  10.900
 1653BOLB   GL239652  12.880   8.960  11.170
 1653BOLB   C1A39653  13.170   9.440  11.080
 1653BOLB   C2A39654  13.650   9.660  11.100
 1653BOLB   C3A39655  13.800   9.970  11.230
 1653BOLB   C4A39656  14.110   9.990  11.440
 1653BOLB   C1B39657  12.980   9.170  11.490
 1653BOLB   C2B39658  12.990   9.580  11.590
 1653BOLB   C3B39659  13.010  10.010  11.690
 1653BOLB   C4B39660  13.260  10.170  12.000
 1653BOLB   NC239661  15.330   7.830  11.080
 1653BOLB   PO239662  14.880   7.890  11.010
 1653BOLB   GL339663  14.950   8.370  10.940
 1653BOLB   GL439664  15.240   8.580  10.910
 1653BOLB   C1C39665  14.870   8.880  10.980
 1653BOLB   C2C39666  14.750   9.430  11.070
 1653BOLB   C3C39667  14.890   9.700  11.280
 1653BOLB   C4C39668  14.560   9.860  11.540
 1653BOLB   C1D39669  15.340   9.130  10.960
 1653BOLB   C2D39670  15.310   9.570  10.960
 1653BOLB   C3D39671  15.260  10.060  11.030
 1653BOLB   C4D39672  14.930  10.410  10.940
 1654BOLB   NC139673  18.390  18.180   5.510
 1654BOLB   PO139674  18.860  18.150   5.640
 1654BOLB   GL139675  19.040  17.880   5.220
 1654BOLB   GL239676  19.350  17.920   5.210
 1654BOLB   C1A39677  19.070  17.870   4.810
 1654BOLB   C2A39678  19.410  17.720   4.520
 1654BOLB   C3A39679  19.570  17.740   4.060
 1654BOLB   C4A39680  19.920  17.840   3.860
 1654BOLB   C1B39681  19.530  17.560   5.000
 1654BOLB   C2B39682  19.730  17.430   4.810
 1654BOLB   C3B39683  19.730  17.330   4.400
 1654BOLB   C4B39684  19.840  17.330   3.920
 1654BOLB   NC239685  20.750  18.200   1.930
 1654BOLB   PO239686  21.120  17.800   1.860
 1654BOLB   GL339687  21.080  17.820   2.320
 1654BOLB   GL439688  21.080  18.120   2.320
 1654BOLB   C1C39689  20.830  17.760   2.620
 1654BOLB   C2C39690  20.410  17.460   2.790
 1654BOLB   C3C39691  20.060  17.560   3.030
 1654BOLB   C4C39692  20.100  17.660   3.580
 1654BOLB   C1D39693  21.300  18.280   2.690
 1654BOLB   C2D39694  21.320  18.470   3.080
 1654BOLB   C3D39695  21.200  18.510   3.580
 1654BOLB   C4D39696  20.830  18.320   3.890
 1655BOLB   NC139697  14.980  14.950   9.580
 1655BOLB   PO139698  14.770  15.370   9.410
 1655BOLB   GL139699  14.610  15.810   9.600
 1655BOLB   GL239700  14.300  15.790   9.270
 1655BOLB   C1A39701  14.460  16.040   9.910
 1655BOLB   C2A39702  14.270  16.350  10.150
 1655BOLB   C3A39703  14.060  16.440  10.490
 1655BOLB   C4A39704  14.200  16.740  10.770
 1655BOLB   C1B39705  13.750  15.850   9.380
 1655BOLB   C2B39706  13.330  15.810   9.270
 1655BOLB   C3B39707  12.960  15.830   8.950
 1655BOLB   C4B39708  12.570  15.730   8.680
 1655BOLB   NC239709  14.080  17.700  12.010
 1655BOLB   PO239710  14.310  17.580  12.380
 1655BOLB   GL339711  14.620  17.530  12.050
 1655BOLB   GL439712  14.760  17.210  12.220
 1655BOLB   C1C39713  14.810  17.480  11.710
 1655BOLB   C2C39714  14.950  17.120  11.330
 1655BOLB   C3C39715  14.880  16.890  11.160
 1655BOLB   C4C39716  14.580  16.790  10.990
 1655BOLB   C1D39717  15.010  17.000  12.680
 1655BOLB   C2D39718  14.850  16.780  13.040
 1655BOLB   C3D39719  14.740  16.710  13.450
 1655BOLB   C4D39720  14.400  16.820  13.710
 1656BOLB   NC139721  16.480  13.370   8.060
 1656BOLB   PO139722  16.890  13.530   8.080
 1656BOLB   GL139723  16.900  13.170   8.120
 1656BOLB   GL239724  16.860  13.140   7.770
 1656BOLB   C1A39725  17.090  12.750   8.180
 1656BOLB   C2A39726  17.090  12.360   8.010
 1656BOLB   C3A39727  17.280  11.980   7.910
 1656BOLB   C4A39728  17.400  11.600   7.770
 1656BOLB   C1B39729  16.610  12.980   7.480
 1656BOLB   C2B39730  16.450  12.610   7.320
 1656BOLB   C3B39731  16.350  12.190   7.200
 1656BOLB   C4B39732  16.230  11.740   7.260
 1656BOLB   NC239733  17.370  10.470   5.120
 1656BOLB   PO239734  17.660  10.530   5.570
 1656BOLB   GL339735  17.570  10.680   5.930
 1656BOLB   GL439736  17.890  10.690   6.010
 1656BOLB   C1C39737  17.420  10.760   6.310
 1656BOLB   C2C39738  17.390  10.830   6.690
 1656BOLB   C3C39739  17.500  11.080   7.010
 1656BOLB   C4C39740  17.560  11.360   7.350
 1656BOLB   C1D39741  18.160  10.980   6.200
 1656BOLB   C2D39742  18.590  11.190   6.260
 1656BOLB   C3D39743  18.800  11.200   6.790
 1656BOLB   C4D39744  19.160  11.260   7.030
 1657BOLB   NC139745  14.820  15.890   5.320
 1657BOLB   PO139746  14.490  16.230   5.130
 1657BOLB   GL139747  14.050  16.050   5.080
 1657BOLB   GL239748  13.880  15.970   5.320
 1657BOLB   C1A39749  13.780  15.820   4.770
 1657BOLB   C2A39750  14.030  15.960   4.420
 1657BOLB   C3A39751  14.320  16.180   4.030
 1657BOLB   C4A39752  14.550  16.150   3.580
 1657BOLB   C1B39753  13.540  16.200   5.080
 1657BOLB   C2B39754  13.280  15.980   4.800
 1657BOLB   C3B39755  13.050  15.670   4.830
 1657BOLB   C4B39756  12.640  15.670   4.830
 1657BOLB   NC239757  14.270  16.410   1.160
 1657BOLB   PO239758  14.000  16.530   1.390
 1657BOLB   GL339759  14.170  16.540   1.810
 1657BOLB   GL439760  14.450  16.690   1.730
 1657BOLB   C1C39761  14.370  16.360   2.170
 1657BOLB   C2C39762  14.340  16.100   2.420
 1657BOLB   C3C39763  14.460  15.940   2.850
 1657BOLB   C4C39764  14.570  15.950   3.200
 1657BOLB   C1D39765  14.810  16.550   1.900
 1657BOLB   C2D39766  14.800  16.530   2.300
 1657BOLB   C3D39767  14.800  16.390   2.770
 1657BOLB   C4D39768  14.760  16.530   3.150
 1658BOLB   NC139769  20.330  22.570   6.100
 1658BOLB   PO139770  20.120  22.210   5.910
 1658BOLB   GL139771  19.990  22.380   5.510
 1658BOLB   GL239772  19.840  22.680   5.320
 1658BOLB   C1A39773  20.220  22.480   5.090
 1658BOLB   C2A39774  20.280  22.530   4.640
 1658BOLB   C3A39775  20.440  22.380   4.220
 1658BOLB   C4A39776  20.250  22.130   3.920
 1658BOLB   C1B39777  19.770  22.840   4.800
 1658BOLB   C2B39778  20.040  22.900   4.430
 1658BOLB   C3B39779  20.230  23.220   4.170
 1658BOLB   C4B39780  20.040  23.620   4.140
 1658BOLB   NC239781  20.850  22.760   1.610
 1658BOLB   PO239782  20.660  22.540   1.930
 1658BOLB   GL339783  20.380  22.690   2.250
 1658BOLB   GL439784  20.250  22.940   2.020
 1658BOLB   C1C39785  20.320  22.680   2.660
 1658BOLB   C2C39786  20.170  22.610   3.030
 1658BOLB   C3C39787  20.030  22.540   3.430
 1658BOLB   C4C39788  19.980  22.160   3.660
 1658BOLB   C1D39789  20.140  23.090   2.460
 1658BOLB   C2D39790  20.190  23.160   2.840
 1658BOLB   C3D39791  20.320  23.240   3.240
 1658BOLB   C4D39792  20.290  23.350   3.650
 1659BOLB   NC139793  12.360  17.800   1.420
 1659BOLB   PO139794  12.380  18.120   1.680
 1659BOLB   GL139795  12.670  18.270   1.960
 1659BOLB   GL239796  12.670  18.480   1.960
 1659BOLB   C1A39797  12.960  18.300   2.340
 1659BOLB   C2A39798  13.140  18.580   2.680
 1659BOLB   C3A39799  13.160  18.780   3.090
 1659BOLB   C4A39800  12.900  18.760   3.430
 1659BOLB   C1B39801  13.000  18.770   2.130
 1659BOLB   C2B39802  13.020  19.020   2.520
 1659BOLB   C3B39803  12.930  19.490   2.510
 1659BOLB   C4B39804  12.730  19.710   2.800
 1659BOLB   NC239805  12.760  19.840   5.570
 1659BOLB   PO239806  12.920  19.480   5.600
 1659BOLB   GL339807  12.750  19.440   5.200
 1659BOLB   GL439808  12.390  19.530   5.360
 1659BOLB   C1C39809  12.630  19.320   4.800
 1659BOLB   C2C39810  12.610  19.450   4.300
 1659BOLB   C3C39811  12.590  19.310   3.770
 1659BOLB   C4C39812  12.850  19.160   3.490
 1659BOLB   C1D39813  12.350  19.760   4.980
 1659BOLB   C2D39814  12.060  20.000   4.880
 1659BOLB   C3D39815  11.920  20.350   4.740
 1659BOLB   C4D39816  11.580  20.430   4.470
 1660BOLB   NC139817  13.740  12.870  15.520
 1660BOLB   PO139818  14.140  12.580  15.570
 1660BOLB   GL139819  14.140  12.090  15.730
 1660BOLB   GL239820  13.790  11.970  15.630
 1660BOLB   C1A39821  14.020  11.650  15.950
 1660BOLB   C2A39822  13.840  11.180  15.970
 1660BOLB   C3A39823  13.460  10.900  16.070
 1660BOLB   C4A39824  13.040  10.820  15.930
 1660BOLB   C1B39825  13.770  11.560  15.550
 1660BOLB   C2B39826  13.860  11.150  15.380
 1660BOLB   C3B39827  13.990  10.810  15.430
 1660BOLB   C4B39828  14.280  10.420  15.370
 1660BOLB   NC239829  10.840   9.490  16.880
 1660BOLB   PO239830  11.180   9.620  16.720
 1660BOLB   GL339831  11.490   9.910  16.650
 1660BOLB   GL439832  11.780   9.920  16.760
 1660BOLB   C1C39833  11.630  10.120  16.300
 1660BOLB   C2C39834  11.870  10.410  16.100
 1660BOLB   C3C39835  12.260  10.510  15.840
 1660BOLB   C4C39836  12.620  10.720  15.790
 1660BOLB   C1D39837  12.080  10.130  16.550
 1660BOLB   C2D39838  12.460  10.300  16.350
 1660BOLB   C3D39839  12.750  10.250  16.020
 1660BOLB   C4D39840  13.120  10.380  15.730
 1661BOLB   NC139841  14.730  12.700  10.770
 1661BOLB   PO139842  14.480  13.090  10.640
 1661BOLB   GL139843  14.290  12.630  10.420
 1661BOLB   GL239844  13.970  12.540  10.580
 1661BOLB   C1A39845  14.160  12.330  10.160
 1661BOLB   C2A39846  14.250  12.140   9.800
 1661BOLB   C3A39847  14.250  11.690   9.620
 1661BOLB   C4A39848  14.200  11.250   9.670
 1661BOLB   C1B39849  13.500  12.280  10.660
 1661BOLB   C2B39850  13.030  12.190  10.860
 1661BOLB   C3B39851  12.590  11.990  10.920
 1661BOLB   C4B39852  12.200  11.730  11.130
 1661BOLB   NC239853  13.820   9.120   9.660
 1661BOLB   PO239854  13.420   9.170   9.710
 1661BOLB   GL339855  13.450   9.540   9.620
 1661BOLB   GL439856  13.700   9.650   9.750
 1661BOLB   C1C39857  13.770   9.880   9.320
 1661BOLB   C2C39858  13.840  10.290   9.470
 1661BOLB   C3C39859  14.220  10.500   9.570
 1661BOLB   C4C39860  14.440  10.840   9.650
 1661BOLB   C1D39861  13.770  10.050  10.000
 1661BOLB   C2D39862  13.960  10.100  10.410
 1661BOLB   C3D39863  14.340   9.900  10.490
 1661BOLB   C4D39864  14.510   9.600  10.610
 1662BOLB   NC139865  25.560  19.740  13.940
 1662BOLB   PO139866  25.260  19.840  13.640
 1662BOLB   GL139867  25.620  19.540  13.510
 1662BOLB   GL239868  25.930  19.710  13.660
 1662BOLB   C1A39869  25.970  19.190  13.520
 1662BOLB   C2A39870  26.260  18.960  13.510
 1662BOLB   C3A39871  26.610  18.650  13.440
 1662BOLB   C4A39872  26.710  18.220  13.650
 1662BOLB   C1B39873  26.400  19.450  13.640
 1662BOLB   C2B39874  26.820  19.480  13.750
 1662BOLB   C3B39875  27.150  19.620  13.920
 1662BOLB   C4B39876  27.330  19.830  14.140
 1662BOLB   NC239877  28.940  16.880  12.880
 1662BOLB   PO239878  29.070  17.340  13.070
 1662BOLB   GL339879  28.610  17.730  13.080
 1662BOLB   GL439880  28.550  18.040  12.920
 1662BOLB   C1C39881  28.170  17.800  13.130
 1662BOLB   C2C39882  27.720  17.950  13.460
 1662BOLB   C3C39883  27.350  17.910  13.680
 1662BOLB   C4C39884  27.020  17.930  13.610
 1662BOLB   C1D39885  28.130  18.290  12.910
 1662BOLB   C2D39886  27.700  18.320  13.010
 1662BOLB   C3D39887  27.420  18.280  13.340
 1662BOLB   C4D39888  27.130  18.460  13.550
 1663BOLB   NC139889  17.220  15.510   6.690
 1663BOLB   PO139890  17.150  15.320   6.280
 1663BOLB   GL139891  17.240  14.950   5.950
 1663BOLB   GL239892  17.150  14.840   5.670
 1663BOLB   C1A39893  17.580  14.650   5.670
 1663BOLB   C2A39894  17.620  14.190   5.520
 1663BOLB   C3A39895  17.720  13.820   5.670
 1663BOLB   C4A39896  17.940  13.440   5.530
 1663BOLB   C1B39897  17.070  14.650   5.340
 1663BOLB   C2B39898  16.960  14.470   4.950
 1663BOLB   C3B39899  16.980  14.110   4.640
 1663BOLB   C4B39900  17.460  13.870   4.660
 1663BOLB   NC239901  17.440  11.240   4.830
 1663BOLB   PO239902  17.160  11.450   4.550
 1663BOLB   GL339903  17.420  11.750   4.800
 1663BOLB   GL439904  17.560  11.740   5.110
 1663BOLB   C1C39905  17.800  12.030   4.650
 1663BOLB   C2C39906  18.000  12.340   4.730
 1663BOLB   C3C39907  17.920  12.640   5.000
 1663BOLB   C4C39908  17.800  13.070   5.240
 1663BOLB   C1D39909  17.590  12.070   5.350
 1663BOLB   C2D39910  17.490  12.490   5.310
 1663BOLB   C3D39911  17.380  12.830   5.340
 1663BOLB   C4D39912  17.030  13.040   5.300
 1664BOLB   NC139913  13.220  12.560  14.970
 1664BOLB   PO139914  13.070  12.590  15.300
 1664BOLB   GL139915  12.760  12.720  15.490
 1664BOLB   GL239916  12.500  12.910  15.400
 1664BOLB   C1A39917  12.440  12.430  15.660
 1664BOLB   C2A39918  12.350  12.040  15.890
 1664BOLB   C3A39919  12.200  11.630  16.050
 1664BOLB   C4A39920  12.030  11.400  16.390
 1664BOLB   C1B39921  12.250  12.860  15.800
 1664BOLB   C2B39922  12.250  12.670  16.170
 1664BOLB   C3B39923  12.030  12.350  16.320
 1664BOLB   C4B39924  12.120  11.930  16.520
 1664BOLB   NC239925  11.190   9.640  18.550
 1664BOLB   PO239926  11.080   9.880  18.280
 1664BOLB   GL339927  11.450  10.010  17.870
 1664BOLB   GL439928  11.490  10.170  18.190
 1664BOLB   C1C39929  11.610  10.350  17.630
 1664BOLB   C2C39930  11.670  10.800  17.540
 1664BOLB   C3C39931  11.840  11.090  17.290
 1664BOLB   C4C39932  12.000  11.220  16.920
 1664BOLB   C1D39933  11.870  10.480  18.060
 1664BOLB   C2D39934  12.110  10.800  17.820
 1664BOLB   C3D39935  12.240  11.200  17.630
 1664BOLB   C4D39936  12.090  11.530  17.300
 1665BOLB   NC139937  19.160  13.580   9.810
 1665BOLB   PO139938  18.880  13.280   9.820
 1665BOLB   GL139939  18.880  12.800   9.880
 1665BOLB   GL239940  19.120  12.750   9.560
 1665BOLB   C1A39941  18.930  12.450  10.140
 1665BOLB   C2A39942  18.790  12.120  10.210
 1665BOLB   C3A39943  18.740  11.660  10.210
 1665BOLB   C4A39944  18.740  11.250  10.220
 1665BOLB   C1B39945  18.890  12.340   9.630
 1665BOLB   C2B39946  18.980  11.900   9.770
 1665BOLB   C3B39947  19.000  11.420   9.790
 1665BOLB   C4B39948  19.080  11.180   9.500
 1665BOLB   NC239949  19.730   9.170  10.210
 1665BOLB   PO239950  19.460   9.080  10.590
 1665BOLB   GL339951  19.410   9.540  10.460
 1665BOLB   GL439952  19.410   9.820  10.660
 1665BOLB   C1C39953  19.100   9.840  10.150
 1665BOLB   C2C39954  18.720  10.030  10.130
 1665BOLB   C3C39955  18.540  10.440  10.360
 1665BOLB   C4C39956  18.530  10.880  10.270
 1665BOLB   C1D39957  19.280  10.260  10.760
 1665BOLB   C2D39958  19.360  10.690  10.800
 1665BOLB   C3D39959  19.680  10.930  10.860
 1665BOLB   C4D39960  19.960  11.020  11.110
 1666BOLB   NC139961  17.520  15.590   5.870
 1666BOLB   PO139962  17.040  15.350   5.630
 1666BOLB   GL139963  16.940  15.130   5.270
 1666BOLB   GL239964  16.500  15.060   5.220
 1666BOLB   C1A39965  17.300  14.910   4.960
 1666BOLB   C2A39966  17.400  14.540   4.730
 1666BOLB   C3A39967  17.770  14.400   4.470
 1666BOLB   C4A39968  18.220  14.490   4.320
 1666BOLB   C1B39969  16.280  14.650   5.200
 1666BOLB   C2B39970  16.320  14.330   4.890
 1666BOLB   C3B39971  16.500  13.980   4.610
 1666BOLB   C4B39972  16.720  13.680   4.340
 1666BOLB   NC239973  19.190  14.380   2.260
 1666BOLB   PO239974  19.350  14.340   2.600
 1666BOLB   GL339975  19.180  14.390   2.990
 1666BOLB   GL439976  19.240  14.150   3.140
 1666BOLB   C1C39977  18.830  14.560   3.040
 1666BOLB   C2C39978  18.480  14.780   3.190
 1666BOLB   C3C39979  18.360  14.840   3.560
 1666BOLB   C4C39980  18.420  14.710   3.980
 1666BOLB   C1D39981  19.270  14.450   3.440
 1666BOLB   C2D39982  19.170  14.520   3.820
 1666BOLB   C3D39983  19.130  14.580   4.210
 1666BOLB   C4D39984  18.760  14.470   4.370
 1667BOLB   NC139985  15.660  15.540   5.650
 1667BOLB   PO139986  15.720  15.580   5.250
 1667BOLB   GL139987  15.680  15.350   4.940
 1667BOLB   GL239988  15.520  15.260   4.770
 1667BOLB   C1A39989  15.920  15.360   4.540
 1667BOLB   C2A39990  15.940  15.440   4.050
 1667BOLB   C3A39991  15.950  15.410   3.550
 1667BOLB   C4A39992  15.770  15.220   3.140
 1667BOLB   C1B39993  15.100  15.450   4.510
 1667BOLB   C2B39994  14.710  15.320   4.420
 1667BOLB   C3B39995  14.550  14.900   4.440
 1667BOLB   C4B39996  14.350  14.630   4.160
 1667BOLB   NC239997  14.890  13.260   2.170
 1667BOLB   PO239998  14.620  13.040   2.510
 1667BOLB   GL339999  14.850  13.310   2.840
 1667BOLB   GL440000  15.160  13.250   2.970
 1667BOLB   C1C40001  14.990  13.760   2.980
 1667BOLB   C2C40002  15.230  14.090   3.010
 1667BOLB   C3C40003  15.330  14.470   3.070
 1667BOLB   C4C40004  15.560  14.870   3.080
 1667BOLB   C1D40005  15.350  13.540   2.740
 1667BOLB   C2D40006  15.640  13.760   2.560
 1667BOLB   C3D40007  15.860  14.060   2.260
 1667BOLB   C4D40008  15.850  14.480   1.990
 1668BOLB   NC140009  15.640  15.470  18.690
 1668BOLB   PO140010  15.970  15.220  18.720
 1668BOLB   GL140011  15.990  14.910  18.910
 1668BOLB   GL240012  16.020  14.910  19.210
 1668BOLB   C1A40013  16.170  14.470  19.210
 1668BOLB   C2A40014  16.180  14.270  19.500
 1668BOLB   C3A40015  16.400  14.040  19.840
 1668BOLB   C4A40016  16.430  13.880  20.150
 1668BOLB   C1B40017  16.090  14.750  19.620
 1668BOLB   C2B40018  15.860  14.460  19.840
 1668BOLB   C3B40019  15.710  14.090  20.020
 1668BOLB   C4B40020  15.600  13.980  20.380
 1668BOLB   NC240021  17.220  12.780  21.810
 1668BOLB   PO240022  16.840  12.540  21.750
 1668BOLB   GL340023  16.970  12.660  21.360
 1668BOLB   GL440024  17.090  12.310  21.380
 1668BOLB   C1C40025  16.950  12.830  21.060
 1668BOLB   C2C40026  16.650  13.170  20.950
 1668BOLB   C3C40027  16.420  13.530  20.820
 1668BOLB   C4C40028  16.560  13.810  20.540
 1668BOLB   C1D40029  17.250  12.400  20.980
 1668BOLB   C2D40030  17.080  12.570  20.520
 1668BOLB   C3D40031  16.770  12.600  20.120
 1668BOLB   C4D40032  16.800  12.890  19.740
 1669BOLB   NC140033  14.950  12.300  12.160
 1669BOLB   PO140034  15.260  12.030  12.350
 1669BOLB   GL140035  15.370  11.620  12.210
 1669BOLB   GL240036  15.240  11.500  12.010
 1669BOLB   C1A40037  15.690  11.180  12.280
 1669BOLB   C2A40038  15.710  10.900  11.940
 1669BOLB   C3A40039  15.700  10.440  11.910
 1669BOLB   C4A40040  15.410  10.150  11.960
 1669BOLB   C1B40041  15.230  11.080  12.060
 1669BOLB   C2B40042  15.190  10.620  11.800
 1669BOLB   C3B40043  15.020  10.200  11.540
 1669BOLB   C4B40044  15.050   9.750  11.720
 1669BOLB   NC240045  14.980   7.930  12.350
 1669BOLB   PO240046  15.070   7.840  12.810
 1669BOLB   GL340047  15.080   8.180  12.820
 1669BOLB   GL440048  15.310   8.320  12.710
 1669BOLB   C1C40049  14.890   8.600  12.680
 1669BOLB   C2C40050  15.110   8.980  12.510
 1669BOLB   C3C40051  15.270   9.350  12.330
 1669BOLB   C4C40052  15.330   9.750  12.130
 1669BOLB   C1D40053  15.330   8.690  12.900
 1669BOLB   C2D40054  15.330   9.230  12.850
 1669BOLB   C3D40055  15.390   9.720  12.670
 1669BOLB   C4D40056  15.460  10.170  12.510
 1670BOLB   NC140057   9.720  11.360  16.690
 1670BOLB   PO140058   9.770  10.930  16.480
 1670BOLB   GL140059  10.140  10.990  16.490
 1670BOLB   GL240060  10.180  11.320  16.360
 1670BOLB   C1A40061  10.630  11.030  16.360
 1670BOLB   C2A40062  10.830  11.400  16.390
 1670BOLB   C3A40063  11.230  11.780  16.590
 1670BOLB   C4A40064  11.290  12.090  16.930
 1670BOLB   C1B40065  10.360  11.570  16.580
 1670BOLB   C2B40066  10.610  11.650  16.910
 1670BOLB   C3B40067  10.790  12.020  17.230
 1670BOLB   C4B40068  10.740  12.430  17.100
 1670BOLB   NC240069  10.700  10.180  19.160
 1670BOLB   PO240070  11.040  10.420  19.020
 1670BOLB   GL340071  11.250  10.850  18.790
 1670BOLB   GL440072  11.410  11.180  19.030
 1670BOLB   C1C40073  11.330  11.140  18.390
 1670BOLB   C2C40074  11.370  11.300  17.990
 1670BOLB   C3C40075  11.250  11.650  17.740
 1670BOLB   C4C40076  11.240  11.890  17.380
 1670BOLB   C1D40077  11.620  11.390  18.720
 1670BOLB   C2D40078  11.490  11.660  18.370
 1670BOLB   C3D40079  11.640  11.780  17.920
 1670BOLB   C4D40080  11.760  11.880  17.530
 1671BOLB   NC140081  17.640  18.100   5.130
 1671BOLB   PO140082  18.000  18.060   5.140
 1671BOLB   GL140083  17.890  17.830   4.780
 1671BOLB   GL240084  17.760  18.110   4.620
 1671BOLB   C1A40085  17.880  17.600   4.380
 1671BOLB   C2A40086  17.800  17.530   4.010
 1671BOLB   C3A40087  17.840  17.450   3.600
 1671BOLB   C4A40088  17.760  17.170   3.240
 1671BOLB   C1B40089  18.040  18.060   4.280
 1671BOLB   C2B40090  18.230  17.900   3.950
 1671BOLB   C3B40091  18.550  18.150   3.680
 1671BOLB   C4B40092  18.840  18.390   3.400
 1671BOLB   NC240093  17.990  16.620   1.010
 1671BOLB   PO240094  18.410  16.690   1.230
 1671BOLB   GL340095  18.010  16.560   1.490
 1671BOLB   GL440096  18.050  16.840   1.600
 1671BOLB   C1C40097  17.740  16.320   1.680
 1671BOLB   C2C40098  17.660  16.460   2.090
 1671BOLB   C3C40099  17.570  16.580   2.490
 1671BOLB   C4C40100  17.650  16.910   2.850
 1671BOLB   C1D40101  18.270  16.870   1.980
 1671BOLB   C2D40102  18.470  17.040   2.370
 1671BOLB   C3D40103  18.770  17.460   2.280
 1671BOLB   C4D40104  19.100  17.530   2.000
 1672BOLB   NC140105  19.010  12.870   2.290
 1672BOLB   PO140106  18.840  12.900   2.670
 1672BOLB   GL140107  18.750  13.280   2.990
 1672BOLB   GL240108  18.600  13.020   3.200
 1672BOLB   C1A40109  18.400  13.530   3.130
 1672BOLB   C2A40110  18.080  13.560   3.190
 1672BOLB   C3A40111  17.670  13.600   3.340
 1672BOLB   C4A40112  17.590  13.310   3.560
 1672BOLB   C1B40113  18.650  13.160   3.620
 1672BOLB   C2B40114  18.900  13.330   3.930
 1672BOLB   C3B40115  18.670  13.560   4.220
 1672BOLB   C4B40116  18.610  14.020   4.420
 1672BOLB   NC240117  16.970  11.810   4.140
 1672BOLB   PO240118  16.610  11.510   4.330
 1672BOLB   GL340119  16.670  11.990   4.500
 1672BOLB   GL440120  17.030  11.950   4.620
 1672BOLB   C1C40121  16.870  12.380   4.210
 1672BOLB   C2C40122  17.180  12.640   4.310
 1672BOLB   C3C40123  17.490  12.930   4.160
 1672BOLB   C4C40124  17.680  13.070   3.920
 1672BOLB   C1D40125  16.680  12.110   4.970
 1672BOLB   C2D40126  16.600  12.200   5.390
 1672BOLB   C3D40127  16.710  12.380   5.750
 1672BOLB   C4D40128  16.550  12.730   6.130
 1673BOLB   NC140129  20.860  15.640  17.730
 1673BOLB   PO140130  20.660  15.390  18.120
 1673BOLB   GL140131  21.030  15.150  18.050
 1673BOLB   GL240132  21.290  15.340  18.050
 1673BOLB   C1A40133  21.320  14.910  18.290
 1673BOLB   C2A40134  21.410  14.680  18.700
 1673BOLB   C3A40135  21.630  14.720  19.080
 1673BOLB   C4A40136  21.950  14.430  19.100
 1673BOLB   C1B40137  21.440  15.430  18.490
 1673BOLB   C2B40138  21.610  15.190  18.730
 1673BOLB   C3B40139  22.010  15.120  18.990
 1673BOLB   C4B40140  22.250  15.160  19.420
 1673BOLB   NC240141  23.590  12.620  18.920
 1673BOLB   PO240142  23.310  12.550  19.320
 1673BOLB   GL340143  23.240  13.000  19.380
 1673BOLB   GL440144  23.280  13.270  19.690
 1673BOLB   C1C40145  22.990  13.270  19.200
 1673BOLB   C2C40146  22.790  13.690  19.320
 1673BOLB   C3C40147  22.590  13.980  19.290
 1673BOLB   C4C40148  22.280  14.150  19.340
 1673BOLB   C1D40149  23.240  13.670  19.470
 1673BOLB   C2D40150  23.050  14.120  19.470
 1673BOLB   C3D40151  22.820  14.490  19.520
 1673BOLB   C4D40152  22.730  15.020  19.650
 1674BOLB   NC140153  20.030  13.680  14.300
 1674BOLB   PO140154  20.410  13.640  14.550
 1674BOLB   GL140155  20.670  13.350  14.750
 1674BOLB   GL240156  21.020  13.390  14.880
 1674BOLB   C1A40157  20.700  12.890  14.770
 1674BOLB   C2A40158  20.890  12.480  14.620
 1674BOLB   C3A40159  21.180  12.150  14.750
 1674BOLB   C4A40160  21.330  11.770  15.000
 1674BOLB   C1B40161  21.430  13.070  14.890
 1674BOLB   C2B40162  21.780  12.870  14.890
 1674BOLB   C3B40163  22.270  12.720  14.930
 1674BOLB   C4B40164  22.610  12.560  15.030
 1674BOLB   NC240165  22.040   9.150  15.280
 1674BOLB   PO240166  22.240   9.580  15.070
 1674BOLB   GL340167  22.060   9.960  14.860
 1674BOLB   GL440168  22.090  10.160  14.660
 1674BOLB   C1C40169  21.690  10.230  15.070
 1674BOLB   C2C40170  21.380  10.480  15.040
 1674BOLB   C3C40171  21.310  10.970  15.160
 1674BOLB   C4C40172  21.200  11.450  15.120
 1674BOLB   C1D40173  22.240  10.460  14.910
 1674BOLB   C2D40174  22.390  10.810  15.120
 1674BOLB   C3D40175  22.770  11.090  15.060
 1674BOLB   C4D40176  23.140  11.260  14.950
 1675BOLB   NC140177  18.930   9.990   6.390
 1675BOLB   PO140178  18.920   9.830   6.800
 1675BOLB   GL140179  18.690  10.300   6.760
 1675BOLB   GL240180  18.360  10.190   6.840
 1675BOLB   C1A40181  18.520  10.610   7.000
 1675BOLB   C2A40182  18.380  11.000   7.210
 1675BOLB   C3A40183  18.110  11.190   7.470
 1675BOLB   C4A40184  17.980  11.460   7.740
 1675BOLB   C1B40185  18.050  10.490   7.040
 1675BOLB   C2B40186  17.940  10.780   7.090
 1675BOLB   C3B40187  17.630  10.810   7.420
 1675BOLB   C4B40188  17.200  10.640   7.590
 1675BOLB   NC240189  17.280  12.560   9.400
 1675BOLB   PO240190  17.500  12.960   9.260
 1675BOLB   GL340191  17.680  12.710   9.010
 1675BOLB   GL440192  17.570  12.730   8.750
 1675BOLB   C1C40193  18.090  12.390   8.950
 1675BOLB   C2C40194  18.170  12.240   8.590
 1675BOLB   C3C40195  18.000  11.870   8.450
 1675BOLB   C4C40196  17.750  11.660   8.080
 1675BOLB   C1D40197  17.320  12.440   8.490
 1675BOLB   C2D40198  17.140  12.110   8.470
 1675BOLB   C3D40199  17.300  11.640   8.320
 1675BOLB   C4D40200  17.160  11.160   8.380
 1676BOLB   NC140201  20.920  13.850  14.590
 1676BOLB   PO140202  21.060  13.910  14.230
 1676BOLB   GL140203  21.180  13.460  14.330
 1676BOLB   GL240204  21.400  13.550  14.600
 1676BOLB   C1A40205  21.340  13.010  14.360
 1676BOLB   C2A40206  21.390  12.650  14.610
 1676BOLB   C3A40207  21.650  12.420  14.560
 1676BOLB   C4A40208  21.760  12.190  14.250
 1676BOLB   C1B40209  21.740  13.340  14.580
 1676BOLB   C2B40210  22.120  13.210  14.690
 1676BOLB   C3B40211  22.390  13.120  14.400
 1676BOLB   C4B40212  22.800  13.130  14.380
 1676BOLB   NC240213  22.960   9.760  13.540
 1676BOLB   PO240214  22.840   9.980  13.870
 1676BOLB   GL340215  22.540  10.240  13.790
 1676BOLB   GL440216  22.430  10.380  13.470
 1676BOLB   C1C40217  22.380  10.700  13.810
 1676BOLB   C2C40218  22.250  11.160  13.810
 1676BOLB   C3C40219  22.040  11.530  13.890
 1676BOLB   C4C40220  21.920  11.950  13.870
 1676BOLB   C1D40221  22.270  10.750  13.300
 1676BOLB   C2D40222  22.150  11.160  13.300
 1676BOLB   C3D40223  22.250  11.610  13.350
 1676BOLB   C4D40224  22.210  12.040  13.220
 1677BOLB   NC140225  19.470  15.120   7.420
 1677BOLB   PO140226  19.840  15.060   7.790
 1677BOLB   GL140227  20.140  14.820   7.440
 1677BOLB   GL240228  19.960  14.900   7.130
 1677BOLB   C1A40229  20.130  14.440   7.040
 1677BOLB   C2A40230  20.610  14.280   6.910
 1677BOLB   C3A40231  21.050  14.270   6.860
 1677BOLB   C4A40232  21.340  14.020   7.050
 1677BOLB   C1B40233  20.050  14.850   6.760
 1677BOLB   C2B40234  20.170  14.420   6.540
 1677BOLB   C3B40235  20.250  14.040   6.670
 1677BOLB   C4B40236  20.400  13.840   6.980
 1677BOLB   NC240237  22.490  12.730   5.140
 1677BOLB   PO240238  22.100  12.670   5.300
 1677BOLB   GL340239  21.770  12.850   5.660
 1677BOLB   GL440240  21.410  12.940   5.530
 1677BOLB   C1C40241  21.720  12.870   6.140
 1677BOLB   C2C40242  21.500  13.070   6.330
 1677BOLB   C3C40243  21.460  13.410   6.600
 1677BOLB   C4C40244  21.620  13.730   6.830
 1677BOLB   C1D40245  21.360  13.300   5.860
 1677BOLB   C2D40246  21.270  13.580   6.130
 1677BOLB   C3D40247  21.040  13.630   6.350
 1677BOLB   C4D40248  20.800  13.880   6.680
 1678BOLB   NC140249  19.780  14.580   8.860
 1678BOLB   PO140250  19.650  14.670   8.540
 1678BOLB   GL140251  19.930  14.290   8.420
 1678BOLB   GL240252  20.220  14.410   8.530
 1678BOLB   C1A40253  20.120  14.030   7.980
 1678BOLB   C2A40254  20.300  13.820   7.810
 1678BOLB   C3A40255  20.620  13.390   7.810
 1678BOLB   C4A40256  20.530  13.010   7.580
 1678BOLB   C1B40257  20.430  14.160   8.360
 1678BOLB   C2B40258  20.740  13.710   8.240
 1678BOLB   C3B40259  21.020  13.350   8.270
 1678BOLB   C4B40260  21.250  12.930   8.190
 1678BOLB   NC240261  21.960  11.530   5.710
 1678BOLB   PO240262  21.750  11.880   5.810
 1678BOLB   GL340263  21.490  12.100   5.990
 1678BOLB   GL440264  21.390  12.440   5.820
 1678BOLB   C1C40265  21.170  12.220   6.270
 1678BOLB   C2C40266  21.070  12.500   6.520
 1678BOLB   C3C40267  20.930  12.660   6.940
 1678BOLB   C4C40268  20.760  12.760   7.310
 1678BOLB   C1D40269  21.160  12.830   6.030
 1678BOLB   C2D40270  21.020  13.010   6.560
 1678BOLB   C3D40271  20.790  13.320   6.730
 1678BOLB   C4D40272  20.430  13.350   7.050
 1679BOLB   NC140273  18.650   8.310  11.300
 1679BOLB   PO140274  18.190   8.210  11.160
 1679BOLB   GL140275  18.150   8.590  11.420
 1679BOLB   GL240276  18.370   8.660  11.730
 1679BOLB   C1A40277  18.050   9.030  11.470
 1679BOLB   C2A40278  18.040   9.430  11.160
 1679BOLB   C3A40279  17.870   9.770  11.170
 1679BOLB   C4A40280  17.440   9.880  11.040
 1679BOLB   C1B40281  18.600   8.960  11.420
 1679BOLB   C2B40282  18.480   9.380  11.460
 1679BOLB   C3B40283  18.460   9.640  11.720
 1679BOLB   C4B40284  18.760   9.830  12.070
 1679BOLB   NC240285  16.480   8.010   9.940
 1679BOLB   PO240286  16.940   7.960  10.070
 1679BOLB   GL340287  17.050   8.300  10.170
 1679BOLB   GL440288  16.750   8.450  10.170
 1679BOLB   C1C40289  17.040   8.580  10.560
 1679BOLB   C2C40290  16.950   8.980  10.640
 1679BOLB   C3C40291  16.900   9.400  10.640
 1679BOLB   C4C40292  17.110   9.760  10.910
 1679BOLB   C1D40293  16.760   8.950  10.170
 1679BOLB   C2D40294  16.580   9.310  10.190
 1679BOLB   C3D40295  16.740   9.720  10.210
 1679BOLB   C4D40296  16.840  10.000  10.510
 1680BOLB   NC140297  16.580  12.900  10.020
 1680BOLB   PO140298  16.830  12.620   9.650
 1680BOLB   GL140299  16.990  12.270   9.700
 1680BOLB   GL240300  16.960  12.120   9.370
 1680BOLB   C1A40301  16.870  11.820   9.720
 1680BOLB   C2A40302  16.970  11.440   9.560
 1680BOLB   C3A40303  17.340  11.250   9.460
 1680BOLB   C4A40304  17.510  10.940   9.300
 1680BOLB   C1B40305  17.210  11.760   9.200
 1680BOLB   C2B40306  17.410  11.840   8.820
 1680BOLB   C3B40307  17.750  11.500   8.590
 1680BOLB   C4B40308  17.730  11.220   8.310
 1680BOLB   NC240309  18.670   8.680   9.910
 1680BOLB   PO240310  18.520   8.700   9.460
 1680BOLB   GL340311  18.620   9.150   9.510
 1680BOLB   GL440312  18.770   9.290   9.790
 1680BOLB   C1C40313  18.300   9.430   9.440
 1680BOLB   C2C40314  17.940   9.780   9.460
 1680BOLB   C3C40315  17.770  10.130   9.280
 1680BOLB   C4C40316  17.660  10.610   9.310
 1680BOLB   C1D40317  18.540   9.690   9.830
 1680BOLB   C2D40318  18.340  10.120   9.800
 1680BOLB   C3D40319  18.330  10.550   9.820
 1680BOLB   C4D40320  18.010  10.790   9.620
 1681BOLB   NC140321  16.410  12.370   9.740
 1681BOLB   PO140322  16.660  12.420  10.050
 1681BOLB   GL140323  16.530  12.020  10.170
 1681BOLB   GL240324  16.270  11.950   9.990
 1681BOLB   C1A40325  16.810  11.710  10.350
 1681BOLB   C2A40326  16.950  11.260  10.420
 1681BOLB   C3A40327  17.160  10.900  10.210
 1681BOLB   C4A40328  17.420  10.800   9.870
 1681BOLB   C1B40329  16.520  11.550   9.980
 1681BOLB   C2B40330  16.770  11.130   9.940
 1681BOLB   C3B40331  16.670  10.850  10.140
 1681BOLB   C4B40332  16.730  10.440  10.260
 1681BOLB   NC240333  17.510   8.180   9.060
 1681BOLB   PO240334  17.660   8.260   9.410
 1681BOLB   GL340335  17.810   8.630   9.500
 1681BOLB   GL440336  17.690   8.760   9.910
 1681BOLB   C1C40337  17.460   8.950   9.560
 1681BOLB   C2C40338  17.370   9.420   9.530
 1681BOLB   C3C40339  17.370   9.840   9.490
 1681BOLB   C4C40340  17.310  10.360   9.630
 1681BOLB   C1D40341  17.670   9.270   9.930
 1681BOLB   C2D40342  17.400   9.690   9.960
 1681BOLB   C3D40343  17.170  10.060  10.160
 1681BOLB   C4D40344  17.410  10.410  10.260
 1682BOLB   NC140345  10.370  10.930  12.550
 1682BOLB   PO140346  10.470  10.810  12.060
 1682BOLB   GL140347  10.760  10.670  12.190
 1682BOLB   GL240348  10.860  10.650  12.440
 1682BOLB   C1A40349  11.200  10.630  11.980
 1682BOLB   C2A40350  11.590  10.670  11.960
 1682BOLB   C3A40351  11.900  10.810  12.310
 1682BOLB   C4A40352  12.340  10.860  12.380
 1682BOLB   C1B40353  11.090  10.730  12.780
 1682BOLB   C2B40354  11.280  10.750  13.210
 1682BOLB   C3B40355  11.600  11.040  13.330
 1682BOLB   C4B40356  12.000  11.420  13.490
 1682BOLB   NC240357  12.010   8.260  11.960
 1682BOLB   PO240358  12.050   8.650  12.240
 1682BOLB   GL340359  12.350   8.890  12.410
 1682BOLB   GL440360  12.710   8.940  12.370
 1682BOLB   C1C40361  12.560   9.390  12.450
 1682BOLB   C2C40362  12.700   9.820  12.410
 1682BOLB   C3C40363  12.770  10.270  12.560
 1682BOLB   C4C40364  12.680  10.650  12.490
 1682BOLB   C1D40365  12.630   9.000  12.810
 1682BOLB   C2D40366  12.840   9.280  12.950
 1682BOLB   C3D40367  12.990   9.570  13.250
 1682BOLB   C4D40368  12.950   9.980  13.480
 1683BOLB   NC140369  17.530  14.520   7.000
 1683BOLB   PO140370  17.850  14.200   6.910
 1683BOLB   GL140371  17.810  14.070   6.410
 1683BOLB   GL240372  17.760  14.390   6.240
 1683BOLB   C1A40373  17.960  13.990   6.090
 1683BOLB   C2A40374  18.260  13.660   5.850
 1683BOLB   C3A40375  18.460  13.520   5.460
 1683BOLB   C4A40376  18.790  13.580   5.130
 1683BOLB   C1B40377  18.060  14.420   5.850
 1683BOLB   C2B40378  18.270  14.110   5.670
 1683BOLB   C3B40379  18.740  13.900   5.820
 1683BOLB   C4B40380  19.120  13.750   5.650
 1683BOLB   NC240381  20.510  12.750   4.170
 1683BOLB   PO240382  20.930  12.940   4.190
 1683BOLB   GL340383  20.640  13.420   4.220
 1683BOLB   GL440384  20.830  13.660   4.350
 1683BOLB   C1C40385  20.260  13.560   4.350
 1683BOLB   C2C40386  19.850  13.720   4.460
 1683BOLB   C3C40387  19.600  13.860   4.830
 1683BOLB   C4C40388  19.250  13.720   5.130
 1683BOLB   C1D40389  20.470  13.980   4.510
 1683BOLB   C2D40390  20.110  14.070   4.690
 1683BOLB   C3D40391  19.770  14.330   4.780
 1683BOLB   C4D40392  19.530  14.610   4.950
 1684BOLB   NC140393   6.570  15.520  19.430
 1684BOLB   PO140394   6.990  15.460  19.180
 1684BOLB   GL140395   7.390  15.530  18.970
 1684BOLB   GL240396   7.560  15.750  19.220
 1684BOLB   C1A40397   7.840  15.350  18.850
 1684BOLB   C2A40398   8.110  15.550  18.690
 1684BOLB   C3A40399   8.540  15.420  18.790
 1684BOLB   C4A40400   8.940  15.250  18.810
 1684BOLB   C1B40401   7.930  15.910  19.460
 1684BOLB   C2B40402   8.220  15.740  19.680
 1684BOLB   C3B40403   8.620  15.750  19.530
 1684BOLB   C4B40404   9.010  15.530  19.590
 1684BOLB   NC240405   7.870  13.410  19.370
 1684BOLB   PO240406   7.880  13.760  19.600
 1684BOLB   GL340407   8.260  13.920  19.700
 1684BOLB   GL440408   8.260  13.930  19.300
 1684BOLB   C1C40409   8.530  14.310  19.760
 1684BOLB   C2C40410   8.950  14.340  19.450
 1684BOLB   C3C40411   9.250  14.590  19.110
 1684BOLB   C4C40412   9.130  14.900  18.890
 1684BOLB   C1D40413   8.410  14.430  19.230
 1684BOLB   C2D40414   8.750  14.540  19.040
 1684BOLB   C3D40415   9.090  14.410  18.720
 1684BOLB   C4D40416   9.330  14.290  18.370
 1685BOLB   NC140417  14.090   9.360   8.580
 1685BOLB   PO140418  14.440   9.280   8.330
 1685BOLB   GL140419  14.460   9.630   8.660
 1685BOLB   GL240420  14.790   9.680   8.810
 1685BOLB   C1A40421  14.570  10.100   8.830
 1685BOLB   C2A40422  14.990  10.370   9.030
 1685BOLB   C3A40423  15.310  10.410   8.920
 1685BOLB   C4A40424  15.450  10.670   8.650
 1685BOLB   C1B40425  15.120   9.930   8.720
 1685BOLB   C2B40426  15.580  10.080   8.610
 1685BOLB   C3B40427  15.930  10.420   8.580
 1685BOLB   C4B40428  16.230  10.810   8.750
 1685BOLB   NC240429  16.210   9.270   7.060
 1685BOLB   PO240430  15.930   9.560   7.260
 1685BOLB   GL340431  16.030   9.670   7.550
 1685BOLB   GL440432  15.840   9.500   7.840
 1685BOLB   C1C40433  16.030  10.020   7.780
 1685BOLB   C2C40434  16.140  10.260   8.120
 1685BOLB   C3C40435  16.170  10.710   8.200
 1685BOLB   C4C40436  15.800  10.930   8.470
 1685BOLB   C1D40437  15.880   9.690   8.330
 1685BOLB   C2D40438  16.000   9.930   8.690
 1685BOLB   C3D40439  16.330  10.240   8.990
 1685BOLB   C4D40440  16.700  10.650   9.090
 1686BOLB   NC140441  20.330  16.480   7.500
 1686BOLB   PO140442  20.570  16.690   7.130
 1686BOLB   GL140443  20.500  16.420   6.810
 1686BOLB   GL240444  20.240  16.430   6.660
 1686BOLB   C1A40445  20.720  16.180   6.520
 1686BOLB   C2A40446  20.940  15.650   6.520
 1686BOLB   C3A40447  21.200  15.330   6.230
 1686BOLB   C4A40448  21.390  14.910   6.020
 1686BOLB   C1B40449  20.290  16.270   6.260
 1686BOLB   C2B40450  20.370  16.100   5.870
 1686BOLB   C3B40451  20.680  15.940   5.560
 1686BOLB   C4B40452  20.840  15.590   5.190
 1686BOLB   NC240453  21.100  13.870   3.980
 1686BOLB   PO240454  21.420  13.700   4.090
 1686BOLB   GL340455  21.550  13.810   4.490
 1686BOLB   GL440456  21.320  14.000   4.560
 1686BOLB   C1C40457  21.760  13.920   4.900
 1686BOLB   C2C40458  21.590  13.940   5.310
 1686BOLB   C3C40459  21.420  14.220   5.460
 1686BOLB   C4C40460  21.300  14.610   5.700
 1686BOLB   C1D40461  20.870  13.840   4.800
 1686BOLB   C2D40462  20.430  13.800   5.000
 1686BOLB   C3D40463  20.020  13.890   5.220
 1686BOLB   C4D40464  19.760  13.790   5.540
 1687BOLB   NC140465  18.740  20.160   5.060
 1687BOLB   PO140466  18.310  20.260   5.020
 1687BOLB   GL140467  18.510  20.040   4.630
 1687BOLB   GL240468  18.280  20.240   4.460
 1687BOLB   C1A40469  18.620  19.770   4.340
 1687BOLB   C2A40470  18.670  19.490   3.940
 1687BOLB   C3A40471  18.980  19.510   3.660
 1687BOLB   C4A40472  19.160  19.560   3.380
 1687BOLB   C1B40473  18.720  20.300   4.300
 1687BOLB   C2B40474  18.780  20.410   3.900
 1687BOLB   C3B40475  18.640  20.450   3.490
 1687BOLB   C4B40476  18.380  20.740   3.150
 1687BOLB   NC240477  20.110  18.330   1.450
 1687BOLB   PO240478  20.490  18.470   1.480
 1687BOLB   GL340479  20.270  18.650   1.780
 1687BOLB   GL440480  19.940  18.620   1.820
 1687BOLB   C1C40481  20.240  18.810   2.160
 1687BOLB   C2C40482  19.980  18.870   2.530
 1687BOLB   C3C40483  19.700  19.090   2.880
 1687BOLB   C4C40484  19.510  19.400   3.130
 1687BOLB   C1D40485  19.640  18.810   2.110
 1687BOLB   C2D40486  19.400  18.820   2.500
 1687BOLB   C3D40487  19.170  19.140   2.720
 1687BOLB   C4D40488  19.010  19.270   3.010
 1688BOLB   NC140489  13.950  15.020  23.140
 1688BOLB   PO140490  13.600  15.090  22.880
 1688BOLB   GL140491  13.460  15.110  22.430
 1688BOLB   GL240492  13.410  15.390  22.510
 1688BOLB   C1A40493  13.590  15.090  21.960
 1688BOLB   C2A40494  13.710  15.240  21.490
 1688BOLB   C3A40495  13.970  15.140  21.190
 1688BOLB   C4A40496  14.010  14.990  20.800
 1688BOLB   C1B40497  13.350  15.530  22.070
 1688BOLB   C2B40498  13.400  15.660  21.670
 1688BOLB   C3B40499  13.750  15.960  21.490
 1688BOLB   C4B40500  14.020  16.300  21.230
 1688BOLB   NC240501  13.340  15.500  18.460
 1688BOLB   PO240502  13.270  15.670  18.830
 1688BOLB   GL340503  13.320  15.450  19.220
 1688BOLB   GL440504  13.740  15.350  19.330
 1688BOLB   C1C40505  13.330  15.340  19.670
 1688BOLB   C2C40506  13.330  15.060  20.000
 1688BOLB   C3C40507  13.380  14.820  20.260
 1688BOLB   C4C40508  13.820  14.690  20.410
 1688BOLB   C1D40509  13.820  15.130  19.760
 1688BOLB   C2D40510  13.770  14.800  19.920
 1688BOLB   C3D40511  13.740  14.430  19.960
 1688BOLB   C4D40512  13.750  14.000  20.040
 1689BOLB   NC140513  16.720  14.030   7.970
 1689BOLB   PO140514  16.290  13.780   7.920
 1689BOLB   GL140515  16.150  13.350   7.720
 1689BOLB   GL240516  16.200  13.280   7.350
 1689BOLB   C1A40517  16.160  12.880   7.590
 1689BOLB   C2A40518  16.100  12.450   7.640
 1689BOLB   C3A40519  15.930  12.050   7.620
 1689BOLB   C4A40520  15.860  11.530   7.520
 1689BOLB   C1B40521  16.330  13.130   7.000
 1689BOLB   C2B40522  16.120  13.360   6.630
 1689BOLB   C3B40523  16.060  13.210   6.220
 1689BOLB   C4B40524  15.780  13.100   5.960
 1689BOLB   NC240525  14.940   9.470   8.310
 1689BOLB   PO240526  15.170   9.330   8.000
 1689BOLB   GL340527  15.440   9.720   8.100
 1689BOLB   GL440528  15.210   9.860   8.280
 1689BOLB   C1C40529  15.660  10.120   8.090
 1689BOLB   C2C40530  15.640  10.490   8.190
 1689BOLB   C3C40531  15.660  10.920   7.970
 1689BOLB   C4C40532  15.710  11.170   7.640
 1689BOLB   C1D40533  15.220  10.250   8.320
 1689BOLB   C2D40534  15.120  10.680   8.170
 1689BOLB   C3D40535  15.150  10.860   7.850
 1689BOLB   C4D40536  15.220  10.800   7.320
 1690BOLB   NC140537  20.810  21.100   5.830
 1690BOLB   PO140538  20.830  20.680   5.870
 1690BOLB   GL140539  20.950  20.760   5.450
 1690BOLB   GL240540  20.830  21.010   5.310
 1690BOLB   C1A40541  21.280  20.770   5.180
 1690BOLB   C2A40542  21.360  20.970   4.790
 1690BOLB   C3A40543  21.490  20.710   4.420
 1690BOLB   C4A40544  21.710  20.510   4.070
 1690BOLB   C1B40545  20.860  21.380   5.010
 1690BOLB   C2B40546  20.710  21.540   4.590
 1690BOLB   C3B40547  20.920  21.540   4.160
 1690BOLB   C4B40548  21.250  21.410   3.950
 1690BOLB   NC240549  22.140  18.630   2.250
 1690BOLB   PO240550  21.970  18.950   2.150
 1690BOLB   GL340551  21.860  19.200   2.480
 1690BOLB   GL440552  22.030  18.980   2.640
 1690BOLB   C1C40553  21.840  19.360   3.000
 1690BOLB   C2C40554  21.560  19.390   3.300
 1690BOLB   C3C40555  21.600  19.750   3.710
 1690BOLB   C4C40556  21.720  20.040   3.990
 1690BOLB   C1D40557  22.030  18.770   3.030
 1690BOLB   C2D40558  22.250  18.870   3.360
 1690BOLB   C3D40559  22.110  18.670   3.770
 1690BOLB   C4D40560  22.170  18.640   4.200
 1691BOLB   NC140561  18.560  13.150  16.280
 1691BOLB   PO140562  18.920  13.300  16.140
 1691BOLB   GL140563  19.060  12.930  16.150
 1691BOLB   GL240564  19.320  12.740  16.020
 1691BOLB   C1A40565  18.900  12.500  16.330
 1691BOLB   C2A40566  18.840  12.110  16.640
 1691BOLB   C3A40567  18.990  11.810  16.970
 1691BOLB   C4A40568  19.050  11.420  17.150
 1691BOLB   C1B40569  19.480  12.470  16.240
 1691BOLB   C2B40570  19.310  12.050  16.390
 1691BOLB   C3B40571  19.200  11.680  16.510
 1691BOLB   C4B40572  19.340  11.300  16.730
 1691BOLB   NC240573  19.260   8.640  17.470
 1691BOLB   PO240574  19.070   8.950  17.160
 1691BOLB   GL340575  18.890   9.280  17.220
 1691BOLB   GL440576  18.620   9.210  16.940
 1691BOLB   C1C40577  18.900   9.670  17.060
 1691BOLB   C2C40578  19.050  10.080  17.090
 1691BOLB   C3C40579  19.040  10.550  17.030
 1691BOLB   C4C40580  19.200  10.940  17.200
 1691BOLB   C1D40581  18.190   9.240  16.850
 1691BOLB   C2D40582  17.860   9.610  16.710
 1691BOLB   C3D40583  17.540   9.740  16.370
 1691BOLB   C4D40584  17.370   9.750  15.970
 1692BOLB   NC140585  19.890  14.340  10.430
 1692BOLB   PO140586  19.820  14.080  10.210
 1692BOLB   GL140587  20.120  13.850  10.030
 1692BOLB   GL240588  20.170  13.500  10.050
 1692BOLB   C1A40589  20.540  13.820   9.770
 1692BOLB   C2A40590  20.930  13.670   9.830
 1692BOLB   C3A40591  21.290  13.320   9.740
 1692BOLB   C4A40592  21.580  13.020   9.530
 1692BOLB   C1B40593  20.320  13.350   9.690
 1692BOLB   C2B40594  20.430  12.980   9.410
 1692BOLB   C3B40595  20.850  12.710   9.460
 1692BOLB   C4B40596  21.160  12.790   9.810
 1692BOLB   NC240597  23.400  11.530   9.160
 1692BOLB   PO240598  23.750  11.750   9.310
 1692BOLB   GL340599  23.490  12.100   9.380
 1692BOLB   GL440600  23.140  12.040   9.240
 1692BOLB   C1C40601  23.210  12.490   9.360
 1692BOLB   C2C40602  22.880  12.780   9.560
 1692BOLB   C3C40603  22.480  13.080   9.470
 1692BOLB   C4C40604  22.020  12.940   9.420
 1692BOLB   C1D40605  23.070  12.240   8.940
 1692BOLB   C2D40606  22.870  12.580   8.960
 1692BOLB   C3D40607  22.770  13.000   9.060
 1692BOLB   C4D40608  22.850  13.460   9.040
 1693BOLB   NC140609  20.340  20.750   5.550
 1693BOLB   PO140610  20.430  21.240   5.580
 1693BOLB   GL140611  20.430  21.170   5.120
 1693BOLB   GL240612  20.270  20.790   5.010
 1693BOLB   C1A40613  20.430  21.170   4.710
 1693BOLB   C2A40614  20.430  21.040   4.290
 1693BOLB   C3A40615  20.410  20.760   4.000
 1693BOLB   C4A40616  20.400  20.850   3.480
 1693BOLB   C1B40617  20.770  20.740   4.910
 1693BOLB   C2B40618  20.900  21.030   4.600
 1693BOLB   C3B40619  21.070  20.950   4.220
 1693BOLB   C4B40620  20.870  20.830   3.830
 1693BOLB   NC240621  21.750  19.850   1.250
 1693BOLB   PO240622  21.830  20.040   1.660
 1693BOLB   GL340623  21.780  19.920   2.140
 1693BOLB   GL440624  21.480  19.710   2.300
 1693BOLB   C1C40625  21.460  20.160   2.500
 1693BOLB   C2C40626  21.120  20.340   2.820
 1693BOLB   C3C40627  20.830  20.380   2.950
 1693BOLB   C4C40628  20.520  20.670   3.110
 1693BOLB   C1D40629  21.250  19.790   2.740
 1693BOLB   C2D40630  21.040  19.720   3.150
 1693BOLB   C3D40631  20.830  19.790   3.490
 1693BOLB   C4D40632  20.450  20.110   3.610
 1694BOLB   NC140633  18.500  13.030  12.800
 1694BOLB   PO140634  18.630  12.770  13.180
 1694BOLB   GL140635  18.520  12.310  13.140
 1694BOLB   GL240636  18.510  12.270  12.800
 1694BOLB   C1A40637  18.850  12.020  13.390
 1694BOLB   C2A40638  19.080  11.640  13.420
 1694BOLB   C3A40639  19.310  11.250  13.490
 1694BOLB   C4A40640  19.420  10.940  13.680
 1694BOLB   C1B40641  18.400  12.110  12.400
 1694BOLB   C2B40642  18.210  11.760  12.230
 1694BOLB   C3B40643  18.300  11.370  12.210
 1694BOLB   C4B40644  18.320  11.000  12.080
 1694BOLB   NC240645  21.020   8.970  14.120
 1694BOLB   PO240646  20.610   9.110  13.820
 1694BOLB   GL340647  20.210   9.420  13.790
 1694BOLB   GL440648  19.970   9.290  13.860
 1694BOLB   C1C40649  20.160   9.730  13.910
 1694BOLB   C2C40650  20.000  10.050  14.020
 1694BOLB   C3C40651  20.100  10.510  14.040
 1694BOLB   C4C40652  19.650  10.820  14.050
 1694BOLB   C1D40653  19.680   9.570  13.940
 1694BOLB   C2D40654  19.370   9.720  13.720
 1694BOLB   C3D40655  19.030   9.990  13.800
 1694BOLB   C4D40656  18.820  10.160  14.120
 1695BOLB   NC140657  22.190  11.690   6.650
 1695BOLB   PO140658  22.470  11.970   6.910
 1695BOLB   GL140659  22.050  12.170   7.180
 1695BOLB   GL240660  21.900  12.190   6.970
 1695BOLB   C1A40661  21.640  11.790   7.120
 1695BOLB   C2A40662  21.230  11.790   7.210
 1695BOLB   C3A40663  20.870  11.750   7.360
 1695BOLB   C4A40664  20.550  11.470   7.500
 1695BOLB   C1B40665  21.750  12.560   7.300
 1695BOLB   C2B40666  21.310  12.790   7.270
 1695BOLB   C3B40667  21.210  13.120   7.020
 1695BOLB   C4B40668  21.140  13.600   6.950
 1695BOLB   NC240669  20.980  11.300   5.330
 1695BOLB   PO240670  20.990  11.310   5.690
 1695BOLB   GL340671  20.770  11.680   5.620
 1695BOLB   GL440672  20.340  11.890   5.490
 1695BOLB   C1C40673  20.460  11.730   5.890
 1695BOLB   C2C40674  20.450  11.620   6.380
 1695BOLB   C3C40675  20.260  11.530   6.760
 1695BOLB   C4C40676  20.230  11.500   7.170
 1695BOLB   C1D40677  20.030  12.090   5.730
 1695BOLB   C2D40678  19.820  12.430   5.680
 1695BOLB   C3D40679  19.610  12.740   5.820
 1695BOLB   C4D40680  19.260  13.070   5.880
 1696BOLB   NC140681   8.110  12.450  18.850
 1696BOLB   PO140682   7.990  12.880  18.630
 1696BOLB   GL140683   8.400  12.930  18.670
 1696BOLB   GL240684   8.560  12.680  18.830
 1696BOLB   C1A40685   8.860  13.140  18.610
 1696BOLB   C2A40686   9.260  13.350  18.540
 1696BOLB   C3A40687   9.560  13.600  18.570
 1696BOLB   C4A40688   9.930  13.680  18.890
 1696BOLB   C1B40689   8.860  12.620  18.530
 1696BOLB   C2B40690   9.180  12.380  18.470
 1696BOLB   C3B40691   9.580  12.180  18.550
 1696BOLB   C4B40692   9.980  11.940  18.500
 1696BOLB   NC240693  11.010  12.490  21.110
 1696BOLB   PO240694  10.740  12.190  20.990
 1696BOLB   GL340695  10.710  12.570  20.730
 1696BOLB   GL440696  10.870  12.610  20.520
 1696BOLB   C1C40697  10.480  12.880  20.510
 1696BOLB   C2C40698  10.420  13.170  20.160
 1696BOLB   C3C40699  10.410  13.460  19.740
 1696BOLB   C4C40700  10.230  13.650  19.300
 1696BOLB   C1D40701  10.980  12.910  20.270
 1696BOLB   C2D40702  10.940  13.310  20.030
 1696BOLB   C3D40703  10.990  13.680  19.760
 1696BOLB   C4D40704  11.250  14.020  19.490
 1697BOLB   NC140705  15.920  12.800   8.670
 1697BOLB   PO140706  15.530  12.840   8.360
 1697BOLB   GL140707  15.690  12.410   8.490
 1697BOLB   GL240708  15.810  12.340   8.850
 1697BOLB   C1A40709  16.050  12.030   8.460
 1697BOLB   C2A40710  16.400  11.660   8.260
 1697BOLB   C3A40711  16.840  11.490   8.150
 1697BOLB   C4A40712  17.110  11.210   7.820
 1697BOLB   C1B40713  15.710  11.990   8.730
 1697BOLB   C2B40714  15.820  11.590   8.610
 1697BOLB   C3B40715  15.750  11.310   8.800
 1697BOLB   C4B40716  15.340  11.130   8.810
 1697BOLB   NC240717  18.530   8.990   7.230
 1697BOLB   PO240718  18.220   9.230   7.340
 1697BOLB   GL340719  18.310   9.690   7.610
 1697BOLB   GL440720  18.320   9.610   7.890
 1697BOLB   C1C40721  18.280  10.130   7.500
 1697BOLB   C2C40722  18.140  10.650   7.620
 1697BOLB   C3C40723  17.810  10.950   7.850
 1697BOLB   C4C40724  17.490  10.970   7.930
 1697BOLB   C1D40725  17.960   9.850   7.920
 1697BOLB   C2D40726  17.620   9.990   8.250
 1697BOLB   C3D40727  17.370  10.320   8.300
 1697BOLB   C4D40728  17.530  10.730   8.330
 1698BOLB   NC140729  13.870  14.990  18.370
 1698BOLB   PO140730  14.090  14.760  18.560
 1698BOLB   GL140731  14.110  14.460  18.890
 1698BOLB   GL240732  13.840  14.480  18.970
 1698BOLB   C1A40733  14.300  14.230  19.230
 1698BOLB   C2A40734  14.380  14.210  19.630
 1698BOLB   C3A40735  14.660  14.110  20.010
 1698BOLB   C4A40736  14.460  13.900  20.400
 1698BOLB   C1B40737  13.740  14.150  19.090
 1698BOLB   C2B40738  13.780  13.820  19.230
 1698BOLB   C3B40739  14.120  13.640  19.390
 1698BOLB   C4B40740  14.200  13.310  19.700
 1698BOLB   NC240741  12.810  12.380  21.270
 1698BOLB   PO240742  13.240  12.300  21.170
 1698BOLB   GL340743  13.000  12.680  20.890
 1698BOLB   GL440744  13.310  12.700  20.660
 1698BOLB   C1C40745  12.910  13.110  20.530
 1698BOLB   C2C40746  13.230  13.350  20.460
 1698BOLB   C3C40747  13.640  13.590  20.480
 1698BOLB   C4C40748  14.050  13.790  20.450
 1698BOLB   C1D40749  13.220  12.630  20.270
 1698BOLB   C2D40750  13.110  12.770  19.840
 1698BOLB   C3D40751  12.970  12.740  19.430
 1698BOLB   C4D40752  12.700  12.740  19.080
 1699BOLB   NC140753  22.500  29.430  11.060
 1699BOLB   PO140754  21.980  29.520  11.140
 1699BOLB   GL140755  22.050  29.950  11.020
 1699BOLB   GL240756  22.090  30.100  11.280
 1699BOLB   C1A40757  21.850  30.180  10.710
 1699BOLB   C2A40758  21.970  30.580  10.550
 1699BOLB   C3A40759  22.390  30.780  10.340
 1699BOLB   C4A40760  22.470  31.140  10.100
 1699BOLB   C1B40761  22.280  30.400  10.870
 1699BOLB   C2B40762  22.370  30.750  10.890
 1699BOLB   C3B40763  22.660  31.050  11.130
 1699BOLB   C4B40764  22.910  31.000  11.450
 1699BOLB   NC240765  24.090  32.420   8.710
 1699BOLB   PO240766  23.610  32.510   8.610
 1699BOLB   GL340767  23.420  32.250   8.910
 1699BOLB   GL440768  23.460  32.300   9.260
 1699BOLB   C1C40769  23.280  31.870   9.090
 1699BOLB   C2C40770  23.380  31.720   9.450
 1699BOLB   C3C40771  23.180  31.390   9.700
 1699BOLB   C4C40772  22.730  31.260   9.760
 1699BOLB   C1D40773  23.780  32.020   9.100
 1699BOLB   C2D40774  24.160  31.770   9.050
 1699BOLB   C3D40775  24.410  31.600   9.380
 1699BOLB   C4D40776  24.450  31.690   9.780
 1700BOLB   NC140777  30.170  24.080  12.310
 1700BOLB   PO140778  30.470  23.880  12.000
 1700BOLB   GL140779  30.220  23.600  11.940
 1700BOLB   GL240780  30.230  23.310  11.650
 1700BOLB   C1A40781  29.820  23.500  11.800
 1700BOLB   C2A40782  29.400  23.700  11.750
 1700BOLB   C3A40783  29.170  23.780  11.970
 1700BOLB   C4A40784  28.870  23.960  12.340
 1700BOLB   C1B40785  29.900  23.030  11.860
 1700BOLB   C2B40786  29.490  22.880  12.150
 1700BOLB   C3B40787  29.100  22.710  12.350
 1700BOLB   C4B40788  28.940  22.550  12.630
 1700BOLB   NC240789  29.840  25.750  11.240
 1700BOLB   PO240790  29.720  25.590  11.610
 1700BOLB   GL340791  29.430  25.440  11.810
 1700BOLB   GL440792  29.320  25.820  11.890
 1700BOLB   C1C40793  29.150  25.120  12.030
 1700BOLB   C2C40794  28.750  24.870  12.110
 1700BOLB   C3C40795  28.520  24.730  12.460
 1700BOLB   C4C40796  28.630  24.240  12.570
 1700BOLB   C1D40797  29.000  26.070  12.290
 1700BOLB   C2D40798  28.550  25.830  12.330
 1700BOLB   C3D40799  28.330  25.600  12.680
 1700BOLB   C4D40800  28.310  25.170  12.690
 1701BOLB   NC140801  26.610  23.380  12.720
 1701BOLB   PO140802  26.250  23.390  12.380
 1701BOLB   GL140803  26.630  23.540  12.270
 1701BOLB   GL240804  26.660  23.840  12.530
 1701BOLB   C1A40805  27.050  23.550  12.280
 1701BOLB   C2A40806  27.340  23.860  12.230
 1701BOLB   C3A40807  27.490  24.030  12.000
 1701BOLB   C4A40808  27.880  24.330  11.920
 1701BOLB   C1B40809  27.000  24.100  12.600
 1701BOLB   C2B40810  27.390  24.260  12.650
 1701BOLB   C3B40811  27.710  24.460  12.900
 1701BOLB   C4B40812  28.030  24.470  13.190
 1701BOLB   NC240813  29.820  25.630  12.090
 1701BOLB   PO240814  29.710  25.480  12.600
 1701BOLB   GL340815  29.370  25.460  12.320
 1701BOLB   GL440816  29.370  25.830  12.410
 1701BOLB   C1C40817  28.910  25.520  12.270
 1701BOLB   C2C40818  28.570  25.330  12.280
 1701BOLB   C3C40819  28.300  25.080  12.040
 1701BOLB   C4C40820  28.010  24.760  12.000
 1701BOLB   C1D40821  29.110  25.600  12.750
 1701BOLB   C2D40822  28.700  25.280  12.900
 1701BOLB   C3D40823  28.290  25.340  13.130
 1701BOLB   C4D40824  27.880  25.440  12.920
 1702BOLB   NC140825  25.610  20.590  12.740
 1702BOLB   PO140826  25.780  20.970  12.650
 1702BOLB   GL140827  26.170  20.980  12.510
 1702BOLB   GL240828  26.300  20.720  12.460
 1702BOLB   C1A40829  26.540  21.200  12.520
 1702BOLB   C2A40830  26.940  21.210  12.510
 1702BOLB   C3A40831  27.360  21.160  12.410
 1702BOLB   C4A40832  27.580  20.880  12.140
 1702BOLB   C1B40833  26.730  20.700  12.650
 1702BOLB   C2B40834  26.970  20.430  12.900
 1702BOLB   C3B40835  27.340  20.260  12.710
 1702BOLB   C4B40836  27.550  20.000  12.390
 1702BOLB   NC240837  29.550  20.560  10.600
 1702BOLB   PO240838  29.510  20.260  10.880
 1702BOLB   GL340839  29.160  20.120  11.140
 1702BOLB   GL440840  28.980  19.920  11.000
 1702BOLB   C1C40841  28.630  20.220  11.180
 1702BOLB   C2C40842  28.340  20.330  11.080
 1702BOLB   C3C40843  27.980  20.390  11.340
 1702BOLB   C4C40844  27.790  20.690  11.760
 1702BOLB   C1D40845  28.540  20.000  10.760
 1702BOLB   C2D40846  28.150  20.210  10.690
 1702BOLB   C3D40847  27.760  20.080  10.790
 1702BOLB   C4D40848  27.390  19.840  11.020
 1703BOLB   NC140849  23.270  12.490   5.710
 1703BOLB   PO140850  22.850  12.490   6.060
 1703BOLB   GL140851  22.850  12.650   6.450
 1703BOLB   GL240852  22.650  12.560   6.740
 1703BOLB   C1A40853  23.050  13.020   6.580
 1703BOLB   C2A40854  22.890  13.400   6.870
 1703BOLB   C3A40855  22.740  13.820   6.960
 1703BOLB   C4A40856  22.430  14.190   7.070
 1703BOLB   C1B40857  22.550  12.980   6.930
 1703BOLB   C2B40858  22.200  13.170   7.200
 1703BOLB   C3B40859  22.030  13.220   7.580
 1703BOLB   C4B40860  21.630  13.100   7.780
 1703BOLB   NC240861  23.100  13.450   5.180
 1703BOLB   PO240862  23.400  13.890   5.300
 1703BOLB   GL340863  23.050  13.910   5.590
 1703BOLB   GL440864  23.220  13.900   5.830
 1703BOLB   C1C40865  22.740  13.960   5.890
 1703BOLB   C2C40866  22.550  14.270   6.130
 1703BOLB   C3C40867  22.230  14.410   6.430
 1703BOLB   C4C40868  22.090  14.300   6.810
 1703BOLB   C1D40869  23.110  14.020   6.220
 1703BOLB   C2D40870  22.890  14.280   6.440
 1703BOLB   C3D40871  22.590  14.080   6.600
 1703BOLB   C4D40872  22.250  13.890   6.640
 1704BOLB   NC140873  24.500  19.180  10.390
 1704BOLB   PO140874  24.960  19.300  10.400
 1704BOLB   GL140875  25.300  19.140  10.360
 1704BOLB   GL240876  25.310  18.760  10.220
 1704BOLB   C1A40877  25.580  19.030  10.580
 1704BOLB   C2A40878  25.820  18.760  10.790
 1704BOLB   C3A40879  26.210  18.590  10.710
 1704BOLB   C4A40880  26.560  18.830  10.650
 1704BOLB   C1B40881  25.780  18.720  10.190
 1704BOLB   C2B40882  26.100  18.920  10.300
 1704BOLB   C3B40883  26.620  18.880  10.160
 1704BOLB   C4B40884  26.970  18.670   9.960
 1704BOLB   NC240885  29.080  18.150  10.230
 1704BOLB   PO240886  28.780  18.270   9.960
 1704BOLB   GL340887  28.410  18.270  10.040
 1704BOLB   GL440888  28.090  18.290   9.800
 1704BOLB   C1C40889  28.010  18.240  10.340
 1704BOLB   C2C40890  27.610  18.260  10.260
 1704BOLB   C3C40891  27.230  18.470  10.480
 1704BOLB   C4C40892  26.940  18.860  10.560
 1704BOLB   C1D40893  27.790  18.600   9.990
 1704BOLB   C2D40894  27.520  18.880  10.180
 1704BOLB   C3D40895  27.400  18.960  10.600
 1704BOLB   C4D40896  27.740  18.960  10.790
 1705BOLB   NC140897  13.170  13.700  16.800
 1705BOLB   PO140898  13.380  13.360  17.100
 1705BOLB   GL140899  13.430  13.100  17.500
 1705BOLB   GL240900  13.180  13.150  17.750
 1705BOLB   C1A40901  13.760  12.870  17.610
 1705BOLB   C2A40902  13.960  12.480  17.770
 1705BOLB   C3A40903  14.270  12.200  17.970
 1705BOLB   C4A40904  14.570  11.830  18.000
 1705BOLB   C1B40905  13.110  13.030  18.090
 1705BOLB   C2B40906  13.310  12.910  18.490
 1705BOLB   C3B40907  13.130  12.590  18.800
 1705BOLB   C4B40908  13.490  12.400  18.990
 1705BOLB   NC240909  14.180  10.230  19.470
 1705BOLB   PO240910  14.650  10.130  19.460
 1705BOLB   GL340911  14.680  10.200  19.070
 1705BOLB   GL440912  14.360  10.300  19.000
 1705BOLB   C1C40913  14.860  10.560  19.010
 1705BOLB   C2C40914  14.730  10.980  18.890
 1705BOLB   C3C40915  14.760  11.360  18.640
 1705BOLB   C4C40916  14.750  11.720  18.370
 1705BOLB   C1D40917  14.220  10.710  18.940
 1705BOLB   C2D40918  14.190  11.170  18.890
 1705BOLB   C3D40919  14.230  11.580  18.720
 1705BOLB   C4D40920  14.310  11.960  18.500
 1706BOLB   NC140921  25.120  20.720  11.130
 1706BOLB   PO140922  25.180  21.150  10.990
 1706BOLB   GL140923  25.500  21.180  10.630
 1706BOLB   GL240924  25.490  21.130  10.280
 1706BOLB   C1A40925  25.930  21.200  10.520
 1706BOLB   C2A40926  26.270  21.130  10.240
 1706BOLB   C3A40927  26.650  21.180  10.080
 1706BOLB   C4A40928  27.120  21.240  10.010
 1706BOLB   C1B40929  25.740  20.890  10.120
 1706BOLB   C2B40930  25.650  20.540   9.760
 1706BOLB   C3B40931  25.820  20.200   9.500
 1706BOLB   C4B40932  25.970  19.950   9.290
 1706BOLB   NC240933  28.750  20.330   8.810
 1706BOLB   PO240934  28.430  20.100   8.480
 1706BOLB   GL340935  28.240  20.430   8.710
 1706BOLB   GL440936  28.450  20.650   8.510
 1706BOLB   C1C40937  28.010  20.730   8.850
 1706BOLB   C2C40938  27.770  20.920   9.150
 1706BOLB   C3C40939  27.430  21.050   9.280
 1706BOLB   C4C40940  27.360  21.270   9.630
 1706BOLB   C1D40941  28.160  20.860   8.350
 1706BOLB   C2D40942  27.850  21.050   8.580
 1706BOLB   C3D40943  27.440  21.120   8.740
 1706BOLB   C4D40944  27.260  21.400   9.000
 1707BOLB   NC140945  19.820  14.060  16.690
 1707BOLB   PO140946  20.160  13.870  16.310
 1707BOLB   GL140947  20.230  13.780  16.730
 1707BOLB   GL240948  19.940  13.680  16.940
 1707BOLB   C1A40949  20.580  13.680  17.030
 1707BOLB   C2A40950  20.920  13.380  17.260
 1707BOLB   C3A40951  21.390  13.230  17.470
 1707BOLB   C4A40952  21.410  12.920  17.910
 1707BOLB   C1B40953  20.080  13.320  17.170
 1707BOLB   C2B40954  20.230  13.130  17.590
 1707BOLB   C3B40955  20.680  13.120  17.580
 1707BOLB   C4B40956  21.010  13.310  17.810
 1707BOLB   NC240957  23.390  13.260  20.180
 1707BOLB   PO240958  23.110  12.950  20.090
 1707BOLB   GL340959  22.870  12.980  19.680
 1707BOLB   GL440960  22.800  13.380  19.700
 1707BOLB   C1C40961  22.630  12.930  19.170
 1707BOLB   C2C40962  22.150  12.800  18.970
 1707BOLB   C3C40963  21.740  12.910  18.650
 1707BOLB   C4C40964  21.660  12.780  18.240
 1707BOLB   C1D40965  22.440  13.330  19.450
 1707BOLB   C2D40966  22.210  13.630  19.190
 1707BOLB   C3D40967  21.820  13.970  19.030
 1707BOLB   C4D40968  21.530  14.010  18.670
 1708BOLB   NC140969  28.450  25.380  20.130
 1708BOLB   PO140970  28.290  25.400  19.770
 1708BOLB   GL140971  27.990  25.250  19.440
 1708BOLB   GL240972  28.030  24.980  19.500
 1708BOLB   C1A40973  27.850  25.490  19.020
 1708BOLB   C2A40974  27.870  25.660  18.570
 1708BOLB   C3A40975  27.610  25.660  18.300
 1708BOLB   C4A40976  27.260  25.670  17.980
 1708BOLB   C1B40977  27.560  24.940  19.710
 1708BOLB   C2B40978  27.130  25.060  19.620
 1708BOLB   C3B40979  26.960  24.870  19.240
 1708BOLB   C4B40980  26.600  24.740  19.050
 1708BOLB   NC240981  25.200  24.830  16.810
 1708BOLB   PO240982  25.360  25.240  16.820
 1708BOLB   GL340983  25.590  25.400  17.020
 1708BOLB   GL440984  25.550  25.610  17.250
 1708BOLB   C1C40985  26.010  25.450  17.230
 1708BOLB   C2C40986  26.480  25.380  17.260
 1708BOLB   C3C40987  26.800  25.520  17.510
 1708BOLB   C4C40988  26.860  25.700  17.830
 1708BOLB   C1D40989  25.830  25.730  17.660
 1708BOLB   C2D40990  25.870  25.700  17.970
 1708BOLB   C3D40991  25.910  25.780  18.420
 1708BOLB   C4D40992  26.140  25.980  18.700
 1709BOLB   NC140993  25.820  20.960  12.150
 1709BOLB   PO140994  25.970  21.350  12.060
 1709BOLB   GL140995  26.320  21.170  11.980
 1709BOLB   GL240996  26.520  21.430  11.820
 1709BOLB   C1A40997  26.760  20.910  12.070
 1709BOLB   C2A40998  27.110  20.720  12.380
 1709BOLB   C3A40999  27.360  20.450  12.170
 1709BOLB   C4A41000  27.540  20.230  11.770
 1709BOLB   C1B41001  26.690  21.500  12.120
 1709BOLB   C2B41002  27.060  21.650  12.260
 1709BOLB   C3B41003  27.520  21.620  12.250
 1709BOLB   C4B41004  27.830  21.480  12.430
 1709BOLB   NC241005  25.830  20.890  11.630
 1709BOLB   PO241006  25.610  20.770  11.260
 1709BOLB   GL341007  25.970  20.720  11.120
 1709BOLB   GL441008  26.200  20.640  11.380
 1709BOLB   C1C41009  26.260  20.660  10.900
 1709BOLB   C2C41010  26.740  20.590  10.870
 1709BOLB   C3C41011  27.200  20.470  10.860
 1709BOLB   C4C41012  27.460  20.240  11.280
 1709BOLB   C1D41013  26.550  20.400  11.270
 1709BOLB   C2D41014  26.790  20.110  10.880
 1709BOLB   C3D41015  26.980  19.860  10.590
 1709BOLB   C4D41016  27.340  20.060  10.390
 1710BOLB   NC141017  28.170  18.850   8.140
 1710BOLB   PO141018  27.950  19.240   8.350
 1710BOLB   GL141019  27.750  19.490   8.560
 1710BOLB   GL241020  27.610  19.560   8.950
 1710BOLB   C1A41021  27.490  19.860   8.570
 1710BOLB   C2A41022  26.990  19.870   8.700
 1710BOLB   C3A41023  26.710  20.100   8.770
 1710BOLB   C4A41024  26.550  20.050   9.170
 1710BOLB   C1B41025  27.340  19.520   9.210
 1710BOLB   C2B41026  26.870  19.520   9.110
 1710BOLB   C3B41027  26.310  19.560   8.950
 1710BOLB   C4B41028  26.020  19.830   8.730
 1710BOLB   NC241029  28.320  18.330   9.350
 1710BOLB   PO241030  28.490  18.510   9.620
 1710BOLB   GL341031  28.140  18.790   9.540
 1710BOLB   GL441032  27.990  18.750   9.390
 1710BOLB   C1C41033  27.690  19.010   9.710
 1710BOLB   C2C41034  27.230  19.090   9.670
 1710BOLB   C3C41035  26.850  19.430   9.570
 1710BOLB   C4C41036  26.470  19.740   9.380
 1710BOLB   C1D41037  27.690  18.470   9.520
 1710BOLB   C2D41038  27.780  17.960   9.630
 1710BOLB   C3D41039  27.610  17.450   9.610
 1710BOLB   C4D41040  27.340  16.990   9.850
 1711BOLB   NC141041  25.390  12.040  15.030
 1711BOLB   PO141042  25.620  12.250  15.300
 1711BOLB   GL141043  25.610  12.520  14.820
 1711BOLB   GL241044  25.420  12.370  14.570
 1711BOLB   C1A41045  25.660  12.830  14.530
 1711BOLB   C2A41046  25.380  13.150  14.450
 1711BOLB   C3A41047  24.980  13.320  14.450
 1711BOLB   C4A41048  24.730  13.550  14.300
 1711BOLB   C1B41049  25.150  12.680  14.500
 1711BOLB   C2B41050  24.830  12.810  14.220
 1711BOLB   C3B41051  24.560  13.080  13.910
 1711BOLB   C4B41052  24.140  13.390  13.810
 1711BOLB   NC241053  25.980  12.580  13.030
 1711BOLB   PO241054  26.170  12.990  13.020
 1711BOLB   GL341055  25.780  13.160  12.970
 1711BOLB   GL441056  25.630  13.040  12.760
 1711BOLB   C1C41057  25.380  13.040  13.170
 1711BOLB   C2C41058  25.100  13.140  13.450
 1711BOLB   C3C41059  24.720  13.370  13.540
 1711BOLB   C4C41060  24.620  13.640  13.910
 1711BOLB   C1D41061  25.330  13.390  12.860
 1711BOLB   C2D41062  24.970  13.560  13.090
 1711BOLB   C3D41063  24.490  13.630  13.130
 1711BOLB   C4D41064  24.140  13.520  13.260
 1712BOLB   NC141065  22.930  15.820  12.820
 1712BOLB   PO141066  23.270  16.010  12.510
 1712BOLB   GL141067  23.490  15.630  12.670
 1712BOLB   GL241068  23.630  15.670  12.930
 1712BOLB   C1A41069  23.620  15.300  12.420
 1712BOLB   C2A41070  23.490  14.910  12.260
 1712BOLB   C3A41071  23.470  14.420  12.310
 1712BOLB   C4A41072  23.610  14.070  12.110
 1712BOLB   C1B41073  23.890  15.310  13.010
 1712BOLB   C2B41074  23.800  14.960  12.730
 1712BOLB   C3B41075  23.900  14.660  12.470
 1712BOLB   C4B41076  24.100  14.220  12.410
 1712BOLB   NC241077  25.140  12.190  10.930
 1712BOLB   PO241078  24.680  12.120  10.790
 1712BOLB   GL341079  24.500  12.560  10.970
 1712BOLB   GL441080  24.780  12.650  10.800
 1712BOLB   C1C41081  24.150  12.730  11.140
 1712BOLB   C2C41082  24.000  12.930  11.490
 1712BOLB   C3C41083  23.810  13.250  11.630
 1712BOLB   C4C41084  23.690  13.680  11.830
 1712BOLB   C1D41085  24.470  12.970  10.820
 1712BOLB   C2D41086  24.150  13.240  11.010
 1712BOLB   C3D41087  23.830  13.610  11.020
 1712BOLB   C4D41088  23.440  13.850  10.800
 1713BOLB   NC141089  26.520  30.340   8.210
 1713BOLB   PO141090  26.090  30.400   8.430
 1713BOLB   GL141091  25.770  30.230   8.330
 1713BOLB   GL241092  25.430  30.220   8.530
 1713BOLB   C1A41093  25.720  29.850   8.370
 1713BOLB   C2A41094  25.490  29.530   8.460
 1713BOLB   C3A41095  25.120  29.320   8.630
 1713BOLB   C4A41096  24.800  29.160   8.960
 1713BOLB   C1B41097  25.300  29.870   8.750
 1713BOLB   C2B41098  25.530  29.490   8.960
 1713BOLB   C3B41099  25.900  29.160   8.980
 1713BOLB   C4B41100  25.950  28.740   8.840
 1713BOLB   NC241101  25.690  30.110   7.690
 1713BOLB   PO241102  25.660  30.600   7.910
 1713BOLB   GL341103  25.340  30.280   8.060
 1713BOLB   GL441104  25.380  30.020   8.060
 1713BOLB   C1C41105  24.990  30.210   8.400
 1713BOLB   C2C41106  24.850  30.040   8.810
 1713BOLB   C3C41107  24.550  29.720   8.970
 1713BOLB   C4C41108  24.640  29.350   9.290
 1713BOLB   C1D41109  25.280  29.530   8.020
 1713BOLB   C2D41110  25.340  29.130   8.150
 1713BOLB   C3D41111  25.500  28.660   8.060
 1713BOLB   C4D41112  25.630  28.200   8.150
 1714BOLB   NC141113  26.020  22.940  12.520
 1714BOLB   PO141114  26.340  22.880  12.760
 1714BOLB   GL141115  26.760  22.920  12.770
 1714BOLB   GL241116  26.910  23.040  12.480
 1714BOLB   C1A41117  27.170  22.670  12.650
 1714BOLB   C2A41118  27.470  22.820  12.370
 1714BOLB   C3A41119  27.790  22.760  12.030
 1714BOLB   C4A41120  28.220  22.710  11.940
 1714BOLB   C1B41121  27.190  23.250  12.640
 1714BOLB   C2B41122  27.480  23.310  12.880
 1714BOLB   C3B41123  27.960  23.380  12.870
 1714BOLB   C4B41124  28.350  23.320  12.670
 1714BOLB   NC241125  30.180  23.890  11.230
 1714BOLB   PO241126  30.260  23.670  10.920
 1714BOLB   GL341127  29.850  23.550  11.030
 1714BOLB   GL441128  29.660  23.560  10.770
 1714BOLB   C1C41129  29.700  23.340  11.350
 1714BOLB   C2C41130  29.390  23.140  11.650
 1714BOLB   C3C41131  29.110  22.950  11.750
 1714BOLB   C4C41132  28.720  22.750  11.970
 1714BOLB   C1D41133  29.220  23.570  10.630
 1714BOLB   C2D41134  28.820  23.550  10.960
 1714BOLB   C3D41135  28.530  23.340  11.250
 1714BOLB   C4D41136  28.080  23.280  11.190
 1715BOLB   NC141137  24.840  20.030  17.440
 1715BOLB   PO141138  25.210  20.240  17.270
 1715BOLB   GL141139  25.280  19.960  17.700
 1715BOLB   GL241140  25.530  20.100  17.720
 1715BOLB   C1A41141  25.340  19.990  18.160
 1715BOLB   C2A41142  25.440  19.740  18.520
 1715BOLB   C3A41143  25.680  19.680  18.840
 1715BOLB   C4A41144  26.080  19.710  18.820
 1715BOLB   C1B41145  25.790  19.860  17.970
 1715BOLB   C2B41146  25.760  19.490  18.240
 1715BOLB   C3B41147  25.880  19.300  18.510
 1715BOLB   C4B41148  25.920  19.230  18.970
 1715BOLB   NC241149  28.450  19.170  19.170
 1715BOLB   PO241150  28.530  19.560  19.280
 1715BOLB   GL341151  28.210  19.820  19.170
 1715BOLB   GL441152  27.970  19.760  18.950
 1715BOLB   C1C41153  27.690  19.960  19.250
 1715BOLB   C2C41154  27.370  20.060  19.060
 1715BOLB   C3C41155  27.020  19.900  18.840
 1715BOLB   C4C41156  26.500  19.810  18.770
 1715BOLB   C1D41157  27.520  19.830  18.640
 1715BOLB   C2D41158  27.170  19.690  18.350
 1715BOLB   C3D41159  26.720  19.650  18.210
 1715BOLB   C4D41160  26.370  19.620  17.840
 1716BOLB   NC141161  23.860  22.880  18.210
 1716BOLB   PO141162  24.030  22.930  18.710
 1716BOLB   GL141163  24.180  22.780  19.030
 1716BOLB   GL241164  24.230  23.090  19.370
 1716BOLB   C1A41165  24.390  22.600  19.410
 1716BOLB   C2A41166  24.310  22.430  19.740
 1716BOLB   C3A41167  24.280  22.440  20.160
 1716BOLB   C4A41168  24.370  22.260  20.510
 1716BOLB   C1B41169  24.500  23.040  19.680
 1716BOLB   C2B41170  24.610  23.180  20.020
 1716BOLB   C3B41171  24.930  23.220  20.360
 1716BOLB   C4B41172  25.290  23.160  20.440
 1716BOLB   NC241173  25.150  22.020  22.680
 1716BOLB   PO241174  25.600  21.740  22.550
 1716BOLB   GL341175  25.580  21.880  22.100
 1716BOLB   GL441176  25.810  22.010  21.880
 1716BOLB   C1C41177  25.310  21.740  21.780
 1716BOLB   C2C41178  24.960  21.870  21.490
 1716BOLB   C3C41179  24.640  21.800  21.160
 1716BOLB   C4C41180  24.590  22.000  20.740
 1716BOLB   C1D41181  25.640  22.130  21.570
 1716BOLB   C2D41182  25.230  22.300  21.350
 1716BOLB   C3D41183  24.900  22.300  21.110
 1716BOLB   C4D41184  24.750  22.510  20.720
 1717BOLB   NC141185  26.020  17.310  21.360
 1717BOLB   PO141186  25.710  17.440  21.680
 1717BOLB   GL141187  25.510  17.510  21.320
 1717BOLB   GL241188  25.720  17.530  20.990
 1717BOLB   C1A41189  25.150  17.630  21.220
 1717BOLB   C2A41190  25.060  17.690  20.790
 1717BOLB   C3A41191  25.080  17.730  20.350
 1717BOLB   C4A41192  25.030  17.830  20.060
 1717BOLB   C1B41193  25.500  17.970  20.640
 1717BOLB   C2B41194  25.380  18.160  20.280
 1717BOLB   C3B41195  25.240  18.380  19.930
 1717BOLB   C4B41196  25.290  18.510  19.600
 1717BOLB   NC241197  27.240  18.100  20.430
 1717BOLB   PO241198  26.820  18.120  20.750
 1717BOLB   GL341199  26.820  18.220  20.180
 1717BOLB   GL441200  26.950  18.630  20.080
 1717BOLB   C1C41201  26.450  18.050  19.950
 1717BOLB   C2C41202  26.030  17.980  19.760
 1717BOLB   C3C41203  25.670  18.130  19.690
 1717BOLB   C4C41204  25.320  17.910  19.790
 1717BOLB   C1D41205  26.670  18.450  19.750
 1717BOLB   C2D41206  26.260  18.500  19.680
 1717BOLB   C3D41207  25.870  18.590  19.470
 1717BOLB   C4D41208  25.660  18.950  19.340
 1718BOLB   NC141209  25.420  21.710  10.840
 1718BOLB   PO141210  25.280  21.650  10.450
 1718BOLB   GL141211  25.660  21.640  10.190
 1718BOLB   GL241212  25.830  21.710  10.470
 1718BOLB   C1A41213  25.910  21.350   9.980
 1718BOLB   C2A41214  26.080  20.960   9.780
 1718BOLB   C3A41215  26.440  20.830   9.730
 1718BOLB   C4A41216  26.710  20.520   9.580
 1718BOLB   C1B41217  26.210  21.660  10.210
 1718BOLB   C2B41218  26.660  21.600  10.300
 1718BOLB   C3B41219  27.130  21.770  10.260
 1718BOLB   C4B41220  27.510  21.980  10.200
 1718BOLB   NC241221  29.250  19.610   8.930
 1718BOLB   PO241222  29.040  19.940   9.090
 1718BOLB   GL341223  28.700  19.980   9.360
 1718BOLB   GL441224  28.650  19.700   9.510
 1718BOLB   C1C41225  28.330  20.300   9.340
 1718BOLB   C2C41226  27.960  20.390   9.340
 1718BOLB   C3C41227  27.530  20.500   9.400
 1718BOLB   C4C41228  27.100  20.560   9.380
 1718BOLB   C1D41229  28.230  19.760   9.600
 1718BOLB   C2D41230  27.910  20.020   9.700
 1718BOLB   C3D41231  27.620  20.330   9.950
 1718BOLB   C4D41232  27.320  20.550  10.210
 1719BOLB   NC141233  20.730  13.750  15.090
 1719BOLB   PO141234  20.970  14.140  14.990
 1719BOLB   GL141235  21.310  13.870  14.960
 1719BOLB   GL241236  21.640  13.980  15.040
 1719BOLB   C1A41237  21.600  13.450  15.210
 1719BOLB   C2A41238  21.740  13.080  15.310
 1719BOLB   C3A41239  21.670  12.690  15.340
 1719BOLB   C4A41240  21.830  12.400  15.020
 1719BOLB   C1B41241  21.940  13.620  14.960
 1719BOLB   C2B41242  22.170  13.190  15.170
 1719BOLB   C3B41243  22.500  12.980  15.460
 1719BOLB   C4B41244  22.400  12.590  15.800
 1719BOLB   NC241245  23.080  10.070  14.890
 1719BOLB   PO241246  22.780  10.170  14.680
 1719BOLB   GL341247  22.640  10.560  14.570
 1719BOLB   GL441248  22.760  10.480  14.270
 1719BOLB   C1C41249  22.330  10.890  14.650
 1719BOLB   C2C41250  22.370  11.330  14.740
 1719BOLB   C3C41251  22.330  11.790  14.900
 1719BOLB   C4C41252  22.170  12.200  14.960
 1719BOLB   C1D41253  22.510  10.950  14.210
 1719BOLB   C2D41254  22.280  11.330  14.260
 1719BOLB   C3D41255  21.990  11.710  14.440
 1719BOLB   C4D41256  21.830  11.900  14.820
 1720BOLB   NC141257  14.960  29.770   5.020
 1720BOLB   PO141258  15.240  29.560   5.180
 1720BOLB   GL141259  15.680  29.390   5.360
 1720BOLB   GL241260  15.880  29.640   5.490
 1720BOLB   C1A41261  15.860  29.020   5.490
 1720BOLB   C2A41262  15.980  28.560   5.660
 1720BOLB   C3A41263  16.350  28.410   5.780
 1720BOLB   C4A41264  16.700  28.330   5.900
 1720BOLB   C1B41265  15.830  29.390   5.840
 1720BOLB   C2B41266  16.140  29.090   5.880
 1720BOLB   C3B41267  16.460  28.830   5.970
 1720BOLB   C4B41268  16.500  28.630   6.370
 1720BOLB   NC241269  17.320  27.430   7.880
 1720BOLB   PO241270  17.040  27.020   7.870
 1720BOLB   GL341271  16.850  27.330   7.610
 1720BOLB   GL441272  16.760  27.160   7.300
 1720BOLB   C1C41273  16.950  27.660   7.310
 1720BOLB   C2C41274  17.060  27.830   6.860
 1720BOLB   C3C41275  17.170  27.880   6.340
 1720BOLB   C4C41276  16.990  28.110   6.000
 1720BOLB   C1D41277  16.610  27.360   6.930
 1720BOLB   C2D41278  16.320  27.570   6.660
 1720BOLB   C3D41279  16.070  27.720   6.340
 1720BOLB   C4D41280  15.710  27.890   6.030
 1721BOLB   NC141281  26.850  24.170  15.250
 1721BOLB   PO141282  26.690  23.950  14.900
 1721BOLB   GL141283  27.180  24.010  14.940
 1721BOLB   GL241284  27.390  23.730  15.060
 1721BOLB   C1A41285  27.630  24.150  14.880
 1721BOLB   C2A41286  27.880  23.790  14.820
 1721BOLB   C3A41287  28.180  23.810  14.840
 1721BOLB   C4A41288  28.670  23.740  14.930
 1721BOLB   C1B41289  27.660  23.310  15.000
 1721BOLB   C2B41290  28.120  23.220  15.020
 1721BOLB   C3B41291  28.520  23.170  14.900
 1721BOLB   C4B41292  28.910  22.880  14.980
 1721BOLB   NC241293  30.610  22.920  14.900
 1721BOLB   PO241294  30.280  23.260  14.910
 1721BOLB   GL341295  30.070  23.040  15.100
 1721BOLB   GL441296  29.830  22.910  14.970
 1721BOLB   C1C41297  29.970  23.220  15.550
 1721BOLB   C2C41298  29.620  23.370  15.760
 1721BOLB   C3C41299  29.270  23.520  15.480
 1721BOLB   C4C41300  28.960  23.550  15.170
 1721BOLB   C1D41301  29.400  22.660  15.020
 1721BOLB   C2D41302  29.010  22.390  14.890
 1721BOLB   C3D41303  28.550  22.440  15.080
 1721BOLB   C4D41304  28.360  22.800  15.240
 1722BOLB   NC141305  22.620  18.170   9.670
 1722BOLB   PO141306  22.970  17.760   9.580
 1722BOLB   GL141307  23.200  17.470   9.340
 1722BOLB   GL241308  23.400  17.380   9.580
 1722BOLB   C1A41309  23.440  17.230   8.990
 1722BOLB   C2A41310  23.760  17.030   8.900
 1722BOLB   C3A41311  24.070  16.710   8.650
 1722BOLB   C4A41312  24.300  16.850   8.350
 1722BOLB   C1B41313  23.770  17.420   9.420
 1722BOLB   C2B41314  24.030  17.460   9.030
 1722BOLB   C3B41315  24.180  17.360   8.680
 1722BOLB   C4B41316  24.140  17.510   8.310
 1722BOLB   NC241317  26.780  16.950   7.360
 1722BOLB   PO241318  26.510  16.920   7.060
 1722BOLB   GL341319  26.070  16.860   7.150
 1722BOLB   GL441320  25.850  16.690   6.990
 1722BOLB   C1C41321  25.810  16.650   7.460
 1722BOLB   C2C41322  25.370  16.820   7.650
 1722BOLB   C3C41323  24.960  17.010   7.690
 1722BOLB   C4C41324  24.590  16.820   7.910
 1722BOLB   C1D41325  25.570  17.000   7.170
 1722BOLB   C2D41326  25.300  17.320   7.460
 1722BOLB   C3D41327  25.260  17.760   7.350
 1722BOLB   C4D41328  25.020  18.040   7.150
 1723BOLB   NC141329  16.130  21.550   0.370
 1723BOLB   PO141330  15.810  21.830   0.660
 1723BOLB   GL141331  15.880  22.010   1.160
 1723BOLB   GL241332  15.960  21.810   1.420
 1723BOLB   C1A41333  15.970  22.310   1.540
 1723BOLB   C2A41334  15.990  22.220   1.970
 1723BOLB   C3A41335  15.890  22.260   2.310
 1723BOLB   C4A41336  15.640  22.320   2.710
 1723BOLB   C1B41337  16.070  21.580   1.830
 1723BOLB   C2B41338  16.150  21.550   2.220
 1723BOLB   C3B41339  16.160  21.730   2.640
 1723BOLB   C4B41340  16.270  21.660   3.140
 1723BOLB   NC241341  14.110  23.260   1.980
 1723BOLB   PO241342  14.530  23.460   2.010
 1723BOLB   GL341343  14.550  23.530   2.470
 1723BOLB   GL441344  14.200  23.480   2.440
 1723BOLB   C1C41345  14.620  23.300   2.800
 1723BOLB   C2C41346  14.810  23.170   3.170
 1723BOLB   C3C41347  14.930  22.790   3.210
 1723BOLB   C4C41348  15.430  22.630   3.110
 1723BOLB   C1D41349  14.260  23.650   2.880
 1723BOLB   C2D41350  14.050  23.530   3.240
 1723BOLB   C3D41351  13.860  23.210   3.460
 1723BOLB   C4D41352  13.570  22.880   3.430
 1724BOLB   NC141353  24.940  27.050  13.200
 1724BOLB   PO141354  25.130  27.170  13.600
 1724BOLB   GL141355  25.500  27.480  13.780
 1724BOLB   GL241356  25.770  27.330  13.880
 1724BOLB   C1A41357  25.630  27.830  13.880
 1724BOLB   C2A41358  25.910  28.030  14.010
 1724BOLB   C3A41359  26.340  27.940  13.810
 1724BOLB   C4A41360  26.640  28.050  13.730
 1724BOLB   C1B41361  26.170  27.470  14.000
 1724BOLB   C2B41362  26.500  27.490  14.140
 1724BOLB   C3B41363  26.990  27.500  14.260
 1724BOLB   C4B41364  27.360  27.140  14.460
 1724BOLB   NC241365  28.870  29.150  14.310
 1724BOLB   PO241366  28.860  29.170  14.790
 1724BOLB   GL341367  28.430  29.290  14.620
 1724BOLB   GL441368  28.370  29.480  14.840
 1724BOLB   C1C41369  28.170  29.000  14.370
 1724BOLB   C2C41370  27.740  28.760  14.330
 1724BOLB   C3C41371  27.470  28.430  13.990
 1724BOLB   C4C41372  27.130  28.210  13.760
 1724BOLB   C1D41373  27.960  29.360  14.720
 1724BOLB   C2D41374  27.720  29.270  14.310
 1724BOLB   C3D41375  27.390  29.150  14.170
 1724BOLB   C4D41376  27.210  28.790  14.270
 1725BOLB   NC141377  22.460  24.820   6.800
 1725BOLB   PO141378  22.350  24.410   6.610
 1725BOLB   GL141379  22.570  24.660   6.320
 1725BOLB   GL241380  22.580  24.510   6.070
 1725BOLB   C1A41381  22.830  25.060   6.190
 1725BOLB   C2A41382  22.910  25.460   6.100
 1725BOLB   C3A41383  23.280  25.580   6.010
 1725BOLB   C4A41384  23.710  25.500   5.860
 1725BOLB   C1B41385  22.750  24.410   5.610
 1725BOLB   C2B41386  23.090  24.530   5.370
 1725BOLB   C3B41387  23.290  24.860   5.240
 1725BOLB   C4B41388  23.620  25.150   4.890
 1725BOLB   NC241389  25.310  26.890   4.170
 1725BOLB   PO241390  25.280  26.380   4.230
 1725BOLB   GL341391  25.130  26.010   4.520
 1725BOLB   GL441392  25.390  25.710   4.650
 1725BOLB   C1C41393  24.890  25.850   4.790
 1725BOLB   C2C41394  24.680  25.810   5.200
 1725BOLB   C3C41395  24.500  25.740   5.630
 1725BOLB   C4C41396  24.080  25.510   5.730
 1725BOLB   C1D41397  25.160  25.500   5.010
 1725BOLB   C2D41398  24.860  25.290   5.250
 1725BOLB   C3D41399  24.390  25.200   5.420
 1725BOLB   C4D41400  23.970  24.940   5.280
 1726BOLB   NC141401  20.780  15.600   9.430
 1726BOLB   PO141402  21.060  15.350   9.700
 1726BOLB   GL141403  21.370  15.200   9.320
 1726BOLB   GL241404  21.640  15.390   9.230
 1726BOLB   C1A41405  21.690  14.960   9.060
 1726BOLB   C2A41406  21.790  14.680   8.850
 1726BOLB   C3A41407  22.060  14.370   8.550
 1726BOLB   C4A41408  22.330  14.370   8.200
 1726BOLB   C1B41409  22.020  15.360   8.960
 1726BOLB   C2B41410  22.380  15.090   8.850
 1726BOLB   C3B41411  22.830  15.170   8.860
 1726BOLB   C4B41412  23.210  14.930   8.720
 1726BOLB   NC241413  24.720  13.700   6.800
 1726BOLB   PO241414  24.300  13.710   7.060
 1726BOLB   GL341415  23.970  13.730   7.370
 1726BOLB   GL441416  24.070  14.110   7.360
 1726BOLB   C1C41417  23.580  13.890   7.570
 1726BOLB   C2C41418  23.450  14.130   7.840
 1726BOLB   C3C41419  23.110  14.390   7.910
 1726BOLB   C4C41420  22.710  14.540   8.060
 1726BOLB   C1D41421  23.990  14.510   7.090
 1726BOLB   C2D41422  23.750  14.480   6.820
 1726BOLB   C3D41423  23.480  14.850   6.870
 1726BOLB   C4D41424  23.490  15.080   7.240
 1727BOLB   NC141425  28.930  26.930  19.210
 1727BOLB   PO141426  28.800  26.550  19.080
 1727BOLB   GL141427  28.520  26.370  18.730
 1727BOLB   GL241428  28.530  26.050  18.660
 1727BOLB   C1A41429  28.090  26.310  18.530
 1727BOLB   C2A41430  27.840  26.120  18.170
 1727BOLB   C3A41431  27.740  25.960  17.780
 1727BOLB   C4A41432  27.380  25.820  17.570
 1727BOLB   C1B41433  28.330  25.790  18.440
 1727BOLB   C2B41434  28.160  25.640  18.180
 1727BOLB   C3B41435  27.850  25.470  17.910
 1727BOLB   C4B41436  27.500  25.280  17.730
 1727BOLB   NC241437  25.530  25.370  16.180
 1727BOLB   PO241438  25.780  25.240  16.570
 1727BOLB   GL341439  26.200  25.190  16.660
 1727BOLB   GL441440  26.360  25.120  16.270
 1727BOLB   C1C41441  26.510  25.070  16.860
 1727BOLB   C2C41442  26.900  24.990  16.860
 1727BOLB   C3C41443  27.110  25.140  17.140
 1727BOLB   C4C41444  27.250  25.560  17.300
 1727BOLB   C1D41445  26.760  25.220  16.420
 1727BOLB   C2D41446  26.840  25.460  16.910
 1727BOLB   C3D41447  26.930  25.930  17.060
 1727BOLB   C4D41448  27.090  26.120  17.330
 1728BOLB   NC141449  28.000  15.390  13.160
 1728BOLB   PO141450  27.950  15.350  13.690
 1728BOLB   GL141451  27.550  15.530  13.420
 1728BOLB   GL241452  27.470  15.440  13.140
 1728BOLB   C1A41453  26.990  15.490  13.340
 1728BOLB   C2A41454  26.740  15.860  13.490
 1728BOLB   C3A41455  26.380  15.880  13.490
 1728BOLB   C4A41456  26.140  16.270  13.400
 1728BOLB   C1B41457  27.140  15.510  12.840
 1728BOLB   C2B41458  26.780  15.760  12.660
 1728BOLB   C3B41459  26.430  15.980  12.520
 1728BOLB   C4B41460  26.090  16.270  12.310
 1728BOLB   NC241461  28.900  16.240  12.730
 1728BOLB   PO241462  28.530  16.120  12.750
 1728BOLB   GL341463  28.160  16.230  13.010
 1728BOLB   GL441464  28.080  16.250  13.310
 1728BOLB   C1C41465  27.750  16.490  13.000
 1728BOLB   C2C41466  27.230  16.450  12.980
 1728BOLB   C3C41467  26.760  16.570  12.950
 1728BOLB   C4C41468  26.350  16.620  13.100
 1728BOLB   C1D41469  27.610  16.160  13.460
 1728BOLB   C2D41470  27.160  16.160  13.470
 1728BOLB   C3D41471  26.630  16.360  13.400
 1728BOLB   C4D41472  26.520  16.550  13.760
 1729BOLB   NC141473  25.610  20.390  15.820
 1729BOLB   PO141474  25.710  20.820  15.920
 1729BOLB   GL141475  26.030  20.950  16.230
 1729BOLB   GL241476  26.080  20.860  16.560
 1729BOLB   C1A41477  26.480  20.750  16.360
 1729BOLB   C2A41478  26.840  20.730  16.630
 1729BOLB   C3A41479  27.220  20.580  16.650
 1729BOLB   C4A41480  27.540  20.260  16.740
 1729BOLB   C1B41481  26.450  20.620  16.860
 1729BOLB   C2B41482  26.850  20.690  17.130
 1729BOLB   C3B41483  26.980  20.690  17.490
 1729BOLB   C4B41484  27.330  20.800  17.700
 1729BOLB   NC241485  29.520  19.510  17.490
 1729BOLB   PO241486  29.670  19.930  17.320
 1729BOLB   GL341487  29.350  20.080  17.160
 1729BOLB   GL441488  29.440  20.370  17.010
 1729BOLB   C1C41489  29.030  19.950  16.810
 1729BOLB   C2C41490  28.640  19.830  16.560
 1729BOLB   C3C41491  28.240  19.880  16.300
 1729BOLB   C4C41492  27.890  20.000  16.450
 1729BOLB   C1D41493  29.090  20.680  17.140
 1729BOLB   C2D41494  28.750  20.910  17.350
 1729BOLB   C3D41495  28.320  21.140  17.460
 1729BOLB   C4D41496  28.020  21.450  17.400
 1730BOLB   NC141497  23.710  16.390  13.800
 1730BOLB   PO141498  23.600  16.170  13.420
 1730BOLB   GL141499  23.820  15.840  13.650
 1730BOLB   GL241500  23.960  15.640  13.380
 1730BOLB   C1A41501  24.170  15.590  13.850
 1730BOLB   C2A41502  24.570  15.310  13.770
 1730BOLB   C3A41503  24.730  14.850  13.700
 1730BOLB   C4A41504  24.870  14.520  13.410
 1730BOLB   C1B41505  24.290  15.220  13.400
 1730BOLB   C2B41506  24.680  15.110  13.230
 1730BOLB   C3B41507  24.940  14.790  12.950
 1730BOLB   C4B41508  25.100  14.410  12.740
 1730BOLB   NC241509  25.700  12.200  13.920
 1730BOLB   PO241510  26.010  12.490  13.830
 1730BOLB   GL341511  25.740  12.800  13.910
 1730BOLB   GL441512  25.480  12.660  14.120
 1730BOLB   C1C41513  25.710  13.120  13.640
 1730BOLB   C2C41514  25.550  13.450  13.420
 1730BOLB   C3C41515  25.400  13.830  13.210
 1730BOLB   C4C41516  25.160  14.150  13.310
 1730BOLB   C1D41517  25.240  12.970  13.900
 1730BOLB   C2D41518  25.020  13.320  13.950
 1730BOLB   C3D41519  25.100  13.680  13.620
 1730BOLB   C4D41520  24.760  13.910  13.480
 1731BOLB   NC141521  18.260  16.630  18.780
 1731BOLB   PO141522  18.500  16.440  19.080
 1731BOLB   GL141523  18.750  16.400  19.500
 1731BOLB   GL241524  18.900  16.590  19.730
 1731BOLB   C1A41525  18.600  16.090  19.910
 1731BOLB   C2A41526  18.420  15.760  20.200
 1731BOLB   C3A41527  18.690  15.450  20.450
 1731BOLB   C4A41528  18.870  15.570  20.870
 1731BOLB   C1B41529  19.020  16.300  20.200
 1731BOLB   C2B41530  19.290  15.950  20.440
 1731BOLB   C3B41531  19.290  15.480  20.510
 1731BOLB   C4B41532  19.390  15.380  20.910
 1731BOLB   NC241533  19.550  14.710  22.950
 1731BOLB   PO241534  19.490  15.110  23.080
 1731BOLB   GL341535  19.550  15.160  22.720
 1731BOLB   GL441536  19.350  15.450  22.710
 1731BOLB   C1C41537  19.270  15.090  22.330
 1731BOLB   C2C41538  19.030  15.300  22.000
 1731BOLB   C3C41539  18.760  15.350  21.700
 1731BOLB   C4C41540  18.800  15.430  21.340
 1731BOLB   C1D41541  19.390  15.560  22.370
 1731BOLB   C2D41542  19.480  15.560  21.940
 1731BOLB   C3D41543  19.440  15.870  21.590
 1731BOLB   C4D41544  19.340  16.170  21.380
 1732BOLB   NC141545  23.810  17.380  11.350
 1732BOLB   PO141546  23.940  16.910  11.260
 1732BOLB   GL141547  24.050  16.630  10.900
 1732BOLB   GL241548  24.290  16.530  11.080
 1732BOLB   C1A41549  24.380  16.450  10.620
 1732BOLB   C2A41550  24.680  16.630  10.440
 1732BOLB   C3A41551  25.000  16.560  10.350
 1732BOLB   C4A41552  25.180  16.430  10.020
 1732BOLB   C1B41553  24.450  16.200  11.210
 1732BOLB   C2B41554  24.540  15.780  11.240
 1732BOLB   C3B41555  24.920  15.580  10.970
 1732BOLB   C4B41556  25.340  15.510  11.090
 1732BOLB   NC241557  27.000  14.360   9.640
 1732BOLB   PO241558  26.850  14.900   9.760
 1732BOLB   GL341559  26.550  14.960   9.480
 1732BOLB   GL441560  26.510  15.260   9.410
 1732BOLB   C1C41561  26.080  15.280   9.660
 1732BOLB   C2C41562  25.800  15.680   9.540
 1732BOLB   C3C41563  25.470  15.970   9.630
 1732BOLB   C4C41564  25.430  16.250   9.820
 1732BOLB   C1D41565  26.130  15.180   9.150
 1732BOLB   C2D41566  25.720  15.090   9.290
 1732BOLB   C3D41567  25.280  15.260   9.470
 1732BOLB   C4D41568  25.510  15.300   9.830
 1733BOLB   NC141569  16.590  15.930   5.650
 1733BOLB   PO141570  16.740  15.800   5.270
 1733BOLB   GL141571  16.720  15.420   4.930
 1733BOLB   GL241572  16.500  15.400   4.710
 1733BOLB   C1A41573  16.860  15.020   4.750
 1733BOLB   C2A41574  17.030  14.730   4.480
 1733BOLB   C3A41575  17.180  14.390   4.300
 1733BOLB   C4A41576  16.870  14.280   3.810
 1733BOLB   C1B41577  16.470  15.500   4.250
 1733BOLB   C2B41578  16.360  15.340   3.870
 1733BOLB   C3B41579  16.620  15.540   3.400
 1733BOLB   C4B41580  16.300  15.760   3.160
 1733BOLB   NC241581  17.090  12.030   3.200
 1733BOLB   PO241582  16.890  12.480   3.010
 1733BOLB   GL341583  16.840  12.810   3.180
 1733BOLB   GL441584  16.870  12.950   3.390
 1733BOLB   C1C41585  16.750  13.190   2.980
 1733BOLB   C2C41586  16.840  13.610   3.050
 1733BOLB   C3C41587  16.910  13.920   3.140
 1733BOLB   C4C41588  16.810  14.240   3.370
 1733BOLB   C1D41589  16.720  12.880   3.900
 1733BOLB   C2D41590  16.720  12.940   4.430
 1733BOLB   C3D41591  16.760  13.110   4.800
 1733BOLB   C4D41592  16.990  13.550   4.740
 1734BOLB   NC141593  19.490  14.410   9.310
 1734BOLB   PO141594  19.450  13.900   9.280
 1734BOLB   GL141595  19.510  13.490   9.350
 1734BOLB   GL241596  19.810  13.460   9.300
 1734BOLB   C1A41597  19.390  13.140   9.060
 1734BOLB   C2A41598  19.480  12.710   9.060
 1734BOLB   C3A41599  19.670  12.300   9.060
 1734BOLB   C4A41600  19.870  12.110   9.010
 1734BOLB   C1B41601  19.950  13.060   9.250
 1734BOLB   C2B41602  20.010  12.650   9.120
 1734BOLB   C3B41603  20.150  12.370   9.300
 1734BOLB   C4B41604  20.470  12.400   9.660
 1734BOLB   NC241605  21.120  10.040   8.550
 1734BOLB   PO241606  21.180  10.120   8.140
 1734BOLB   GL341607  20.850  10.400   8.220
 1734BOLB   GL441608  20.850  10.490   8.440
 1734BOLB   C1C41609  20.450  10.660   8.160
 1734BOLB   C2C41610  20.120  10.920   8.450
 1734BOLB   C3C41611  20.110  11.380   8.590
 1734BOLB   C4C41612  19.990  11.780   8.800
 1734BOLB   C1D41613  20.580  10.700   8.660
 1734BOLB   C2D41614  20.360  10.890   8.920
 1734BOLB   C3D41615  20.080  11.020   9.200
 1734BOLB   C4D41616  20.130  10.780   9.650
 1735BOLB   NC141617  22.700  16.350   3.440
 1735BOLB   PO141618  22.920  16.600   3.160
 1735BOLB   GL141619  22.770  16.800   3.590
 1735BOLB   GL241620  22.380  16.920   3.550
 1735BOLB   C1A41621  22.440  16.660   4.020
 1735BOLB   C2A41622  22.220  16.720   4.350
 1735BOLB   C3A41623  22.190  16.860   4.790
 1735BOLB   C4A41624  22.540  16.990   5.060
 1735BOLB   C1B41625  22.160  17.120   3.900
 1735BOLB   C2B41626  21.730  17.390   4.110
 1735BOLB   C3B41627  21.500  17.430   4.520
 1735BOLB   C4B41628  21.480  17.600   4.860
 1735BOLB   NC241629  24.150  16.150   4.310
 1735BOLB   PO241630  24.360  16.490   4.200
 1735BOLB   GL341631  24.090  16.680   4.480
 1735BOLB   GL441632  24.320  16.640   4.700
 1735BOLB   C1C41633  23.840  16.820   4.730
 1735BOLB   C2C41634  23.630  16.690   5.060
 1735BOLB   C3C41635  23.410  16.970   5.350
 1735BOLB   C4C41636  22.880  17.050   5.340
 1735BOLB   C1D41637  24.140  16.860   5.090
 1735BOLB   C2D41638  23.910  17.040   5.440
 1735BOLB   C3D41639  24.050  17.390   5.510
 1735BOLB   C4D41640  24.210  17.510   5.910
 1736BOLB   NC141641  25.870  25.390  12.830
 1736BOLB   PO141642  26.010  25.430  13.260
 1736BOLB   GL141643  26.490  25.430  13.360
 1736BOLB   GL241644  26.570  25.100  13.480
 1736BOLB   C1A41645  26.760  25.440  13.040
 1736BOLB   C2A41646  26.990  25.470  12.730
 1736BOLB   C3A41647  27.400  25.590  12.540
 1736BOLB   C4A41648  27.790  25.830  12.610
 1736BOLB   C1B41649  26.970  25.360  13.540
 1736BOLB   C2B41650  27.350  25.760  13.540
 1736BOLB   C3B41651  27.750  25.760  13.870
 1736BOLB   C4B41652  28.270  25.780  13.990
 1736BOLB   NC241653  29.510  27.060  11.710
 1736BOLB   PO241654  29.620  27.300  12.140
 1736BOLB   GL341655  29.330  27.010  12.250
 1736BOLB   GL441656  29.170  27.230  12.490
 1736BOLB   C1C41657  29.000  26.840  12.130
 1736BOLB   C2C41658  28.680  26.520  12.220
 1736BOLB   C3C41659  28.410  26.270  12.340
 1736BOLB   C4C41660  28.110  26.050  12.430
 1736BOLB   C1D41661  29.120  26.970  12.860
 1736BOLB   C2D41662  28.860  26.890  13.300
 1736BOLB   C3D41663  28.590  27.150  13.630
 1736BOLB   C4D41664  28.520  27.410  13.980
 1737BOLB   NC141665  21.870  24.350   6.520
 1737BOLB   PO141666  21.860  24.660   6.780
 1737BOLB   GL141667  22.080  24.790   6.410
 1737BOLB   GL241668  22.170  25.120   6.370
 1737BOLB   C1A41669  22.150  24.850   5.960
 1737BOLB   C2A41670  22.550  24.880   5.760
 1737BOLB   C3A41671  22.790  24.990   5.400
 1737BOLB   C4A41672  23.050  25.250   5.140
 1737BOLB   C1B41673  22.450  25.270   6.060
 1737BOLB   C2B41674  22.550  25.480   5.650
 1737BOLB   C3B41675  22.550  25.360   5.180
 1737BOLB   C4B41676  22.670  25.320   4.790
 1737BOLB   NC241677  24.380  26.460   3.110
 1737BOLB   PO241678  24.120  26.560   3.510
 1737BOLB   GL341679  23.740  26.450   3.580
 1737BOLB   GL441680  23.830  26.380   3.930
 1737BOLB   C1C41681  23.370  26.270   3.850
 1737BOLB   C2C41682  23.330  25.940   4.040
 1737BOLB   C3C41683  23.240  25.550   4.280
 1737BOLB   C4C41684  23.190  25.380   4.660
 1737BOLB   C1D41685  23.800  26.130   4.280
 1737BOLB   C2D41686  23.570  25.900   4.600
 1737BOLB   C3D41687  23.090  25.920   4.640
 1737BOLB   C4D41688  22.800  26.310   4.700
 1738BOLB   NC141689  23.010  25.610  18.520
 1738BOLB   PO141690  23.150  25.380  18.830
 1738BOLB   GL141691  23.060  25.650  19.160
 1738BOLB   GL241692  23.030  25.970  18.930
 1738BOLB   C1A41693  23.140  25.830  19.530
 1738BOLB   C2A41694  23.260  26.000  19.960
 1738BOLB   C3A41695  23.470  26.180  20.310
 1738BOLB   C4A41696  23.850  26.450  20.520
 1738BOLB   C1B41697  23.200  26.220  19.190
 1738BOLB   C2B41698  23.090  26.390  19.640
 1738BOLB   C3B41699  23.340  26.510  20.030
 1738BOLB   C4B41700  23.420  26.640  20.550
 1738BOLB   NC241701  24.880  27.030  22.340
 1738BOLB   PO241702  24.770  27.440  22.390
 1738BOLB   GL341703  24.580  27.380  22.030
 1738BOLB   GL441704  24.770  27.400  21.840
 1738BOLB   C1C41705  24.200  27.200  21.860
 1738BOLB   C2C41706  23.940  27.320  21.520
 1738BOLB   C3C41707  23.730  27.070  21.200
 1738BOLB   C4C41708  23.770  26.840  20.880
 1738BOLB   C1D41709  24.570  27.200  21.480
 1738BOLB   C2D41710  24.500  26.980  21.080
 1738BOLB   C3D41711  24.510  27.020  20.620
 1738BOLB   C4D41712  24.120  26.870  20.420
 1739BOLB   NC141713  23.180  21.210   7.380
 1739BOLB   PO141714  23.540  21.090   7.590
 1739BOLB   GL141715  23.810  21.210   7.250
 1739BOLB   GL241716  24.180  21.350   7.420
 1739BOLB   C1A41717  24.180  21.190   6.930
 1739BOLB   C2A41718  24.300  20.960   6.590
 1739BOLB   C3A41719  24.540  20.720   6.390
 1739BOLB   C4A41720  24.900  20.430   6.310
 1739BOLB   C1B41721  24.450  20.960   7.320
 1739BOLB   C2B41722  24.750  20.570   7.260
 1739BOLB   C3B41723  25.050  20.460   7.380
 1739BOLB   C4B41724  25.450  20.330   7.280
 1739BOLB   NC241725  25.690  20.680   3.990
 1739BOLB   PO241726  26.030  20.440   4.230
 1739BOLB   GL341727  25.890  20.330   4.690
 1739BOLB   GL441728  26.130  20.530   4.730
 1739BOLB   C1C41729  25.830  20.220   5.110
 1739BOLB   C2C41730  25.590  20.270   5.380
 1739BOLB   C3C41731  25.370  20.180   5.710
 1739BOLB   C4C41732  25.280  20.380   6.080
 1739BOLB   C1D41733  25.880  20.710   5.060
 1739BOLB   C2D41734  25.680  20.770   5.340
 1739BOLB   C3D41735  25.390  20.780   5.730
 1739BOLB   C4D41736  25.110  20.900   6.050
 1740BOLB   NC141737  29.010  25.780   8.640
 1740BOLB   PO141738  28.860  25.350   8.660
 1740BOLB   GL141739  28.340  25.340   8.700
 1740BOLB   GL241740  28.200  25.230   8.350
 1740BOLB   C1A41741  28.060  25.260   8.950
 1740BOLB   C2A41742  27.880  25.200   9.430
 1740BOLB   C3A41743  27.650  24.920   9.540
 1740BOLB   C4A41744  27.690  24.480   9.510
 1740BOLB   C1B41745  27.830  25.400   8.570
 1740BOLB   C2B41746  27.490  25.290   8.740
 1740BOLB   C3B41747  27.290  25.140   9.160
 1740BOLB   C4B41748  27.000  25.200   9.490
 1740BOLB   NC241749  29.100  23.490   8.410
 1740BOLB   PO241750  29.060  23.150   8.550
 1740BOLB   GL341751  28.630  23.330   8.480
 1740BOLB   GL441752  28.330  23.180   8.310
 1740BOLB   C1C41753  28.330  23.660   8.550
 1740BOLB   C2C41754  28.250  23.900   8.880
 1740BOLB   C3C41755  28.060  23.860   9.330
 1740BOLB   C4C41756  27.990  24.260   9.530
 1740BOLB   C1D41757  28.030  23.250   8.620
 1740BOLB   C2D41758  27.910  23.560   8.890
 1740BOLB   C3D41759  27.710  23.540   9.380
 1740BOLB   C4D41760  27.530  23.860   9.570
 1741BOLB   NC141761  17.470  13.240   8.730
 1741BOLB   PO141762  17.920  13.320   8.690
 1741BOLB   GL141763  17.810  13.040   8.430
 1741BOLB   GL241764  17.880  13.050   8.040
 1741BOLB   C1A41765  17.620  12.690   8.200
 1741BOLB   C2A41766  17.620  12.370   7.830
 1741BOLB   C3A41767  17.920  12.000   7.810
 1741BOLB   C4A41768  17.870  11.830   7.450
 1741BOLB   C1B41769  17.970  12.700   7.770
 1741BOLB   C2B41770  17.880  12.410   7.450
 1741BOLB   C3B41771  17.980  12.140   7.070
 1741BOLB   C4B41772  18.000  11.880   6.770
 1741BOLB   NC241773  18.850  11.000   5.250
 1741BOLB   PO241774  18.630  10.750   5.510
 1741BOLB   GL341775  18.640  11.210   5.740
 1741BOLB   GL441776  18.980  11.400   5.820
 1741BOLB   C1C41777  18.720  11.660   6.160
 1741BOLB   C2C41778  18.720  11.670   6.600
 1741BOLB   C3C41779  18.410  11.450   6.930
 1741BOLB   C4C41780  17.980  11.560   7.150
 1741BOLB   C1D41781  19.130  11.880   5.990
 1741BOLB   C2D41782  18.960  12.010   6.360
 1741BOLB   C3D41783  18.580  12.160   6.650
 1741BOLB   C4D41784  18.130  12.380   6.610
 1742BOLB   NC141785  21.320  15.700   9.430
 1742BOLB   PO141786  21.380  15.770   9.820
 1742BOLB   GL141787  21.790  15.540   9.700
 1742BOLB   GL241788  21.920  15.360   9.880
 1742BOLB   C1A41789  22.110  15.230   9.400
 1742BOLB   C2A41790  22.120  14.820   9.200
 1742BOLB   C3A41791  22.130  14.430   9.120
 1742BOLB   C4A41792  22.180  14.040   8.920
 1742BOLB   C1B41793  22.070  15.050  10.120
 1742BOLB   C2B41794  22.390  14.800  10.250
 1742BOLB   C3B41795  22.750  14.600  10.400
 1742BOLB   C4B41796  22.800  14.300  10.120
 1742BOLB   NC241797  23.440  11.430   8.340
 1742BOLB   PO241798  23.100  11.760   8.090
 1742BOLB   GL341799  22.770  12.020   8.210
 1742BOLB   GL441800  22.460  12.030   8.030
 1742BOLB   C1C41801  22.670  12.420   8.550
 1742BOLB   C2C41802  22.620  12.810   8.620
 1742BOLB   C3C41803  22.590  13.250   8.630
 1742BOLB   C4C41804  22.440  13.690   8.750
 1742BOLB   C1D41805  22.320  12.380   7.760
 1742BOLB   C2D41806  22.000  12.690   7.750
 1742BOLB   C3D41807  22.090  13.030   8.030
 1742BOLB   C4D41808  21.920  13.330   8.100
 1743BOLB   NC141809  15.450  26.750   2.380
 1743BOLB   PO141810  15.440  26.440   2.740
 1743BOLB   GL141811  15.410  26.050   2.970
 1743BOLB   GL241812  15.330  25.710   2.780
 1743BOLB   C1A41813  15.430  25.990   3.400
 1743BOLB   C2A41814  15.620  25.800   3.610
 1743BOLB   C3A41815  15.670  25.640   4.030
 1743BOLB   C4A41816  15.950  25.630   4.410
 1743BOLB   C1B41817  15.660  25.580   3.160
 1743BOLB   C2B41818  15.930  25.330   3.240
 1743BOLB   C3B41819  16.280  25.210   3.360
 1743BOLB   C4B41820  16.620  24.850   3.490
 1743BOLB   NC241821  16.650  27.640   2.960
 1743BOLB   PO241822  16.360  27.270   2.980
 1743BOLB   GL341823  16.180  26.870   3.270
 1743BOLB   GL441824  16.000  27.070   3.480
 1743BOLB   C1C41825  16.250  26.580   3.600
 1743BOLB   C2C41826  16.100  26.600   4.050
 1743BOLB   C3C41827  16.170  26.360   4.370
 1743BOLB   C4C41828  16.110  26.030   4.670
 1743BOLB   C1D41829  16.300  27.030   3.870
 1743BOLB   C2D41830  16.530  27.060   4.290
 1743BOLB   C3D41831  16.700  27.150   4.730
 1743BOLB   C4D41832  16.450  27.650   4.910
 1744BOLB   NC141833  19.180  18.970   0.960
 1744BOLB   PO141834  19.260  18.630   1.170
 1744BOLB   GL141835  19.030  18.580   1.580
 1744BOLB   GL241836  18.790  18.860   1.430
 1744BOLB   C1A41837  19.090  18.650   2.020
 1744BOLB   C2A41838  18.960  18.810   2.360
 1744BOLB   C3A41839  18.690  19.020   2.690
 1744BOLB   C4A41840  18.480  19.330   2.810
 1744BOLB   C1B41841  18.350  18.860   1.350
 1744BOLB   C2B41842  17.890  18.770   1.410
 1744BOLB   C3B41843  17.550  18.800   1.640
 1744BOLB   C4B41844  17.230  18.450   1.780
 1744BOLB   NC241845  18.430  19.920   0.750
 1744BOLB   PO241846  18.000  19.820   0.520
 1744BOLB   GL341847  17.960  19.820   0.940
 1744BOLB   GL441848  18.210  19.870   1.200
 1744BOLB   C1C41849  17.790  19.710   1.370
 1744BOLB   C2C41850  17.830  19.730   1.770
 1744BOLB   C3C41851  17.960  19.660   2.180
 1744BOLB   C4C41852  18.100  19.570   2.580
 1744BOLB   C1D41853  18.350  19.490   1.480
 1744BOLB   C2D41854  18.640  19.170   1.760
 1744BOLB   C3D41855  18.610  18.850   1.940
 1744BOLB   C4D41856  18.400  18.510   1.670
 1745BOLB   NC141857  28.570  24.790   7.930
 1745BOLB   PO141858  28.910  24.670   8.150
 1745BOLB   GL141859  28.500  24.390   8.330
 1745BOLB   GL241860  28.410  24.740   8.410
 1745BOLB   C1A41861  28.230  24.220   8.470
 1745BOLB   C2A41862  27.810  24.300   8.690
 1745BOLB   C3A41863  27.760  24.260   9.090
 1745BOLB   C4A41864  27.370  23.940   9.120
 1745BOLB   C1B41865  28.160  24.740   8.650
 1745BOLB   C2B41866  27.740  24.870   8.950
 1745BOLB   C3B41867  27.430  24.640   9.100
 1745BOLB   C4B41868  27.170  24.310   9.360
 1745BOLB   NC241869  28.530  22.970   7.880
 1745BOLB   PO241870  28.580  23.320   7.560
 1745BOLB   GL341871  28.270  23.450   7.900
 1745BOLB   GL441872  27.930  23.720   7.800
 1745BOLB   C1C41873  27.920  23.360   8.160
 1745BOLB   C2C41874  27.530  23.440   8.420
 1745BOLB   C3C41875  27.180  23.370   8.590
 1745BOLB   C4C41876  27.090  23.640   8.910
 1745BOLB   C1D41877  27.560  23.690   8.000
 1745BOLB   C2D41878  27.090  23.520   7.990
 1745BOLB   C3D41879  26.740  23.580   8.150
 1745BOLB   C4D41880  26.270  23.600   8.290
 1746BOLB   NC141881  24.180  18.350  17.000
 1746BOLB   PO141882  23.850  18.190  17.310
 1746BOLB   GL141883  24.160  17.900  17.280
 1746BOLB   GL241884  24.240  17.840  16.940
 1746BOLB   C1A41885  24.370  17.590  17.480
 1746BOLB   C2A41886  24.640  17.390  17.850
 1746BOLB   C3A41887  24.820  17.140  18.110
 1746BOLB   C4A41888  24.960  16.750  18.390
 1746BOLB   C1B41889  24.610  17.920  17.240
 1746BOLB   C2B41890  24.980  18.070  17.550
 1746BOLB   C3B41891  25.080  17.770  17.820
 1746BOLB   C4B41892  25.440  17.500  17.980
 1746BOLB   NC241893  25.640  14.570  19.860
 1746BOLB   PO241894  25.680  14.860  19.480
 1746BOLB   GL341895  25.480  15.320  19.550
 1746BOLB   GL441896  25.190  15.310  19.540
 1746BOLB   C1C41897  25.550  15.750  19.230
 1746BOLB   C2C41898  25.550  16.230  19.170
 1746BOLB   C3C41899  25.300  16.480  18.830
 1746BOLB   C4C41900  25.150  16.530  18.530
 1746BOLB   C1D41901  24.820  15.430  19.510
 1746BOLB   C2D41902  24.670  15.760  19.760
 1746BOLB   C3D41903  24.410  16.170  19.660
 1746BOLB   C4D41904  24.470  16.570  20.020
 1747BOLB   NC141905  26.510  25.070  15.230
 1747BOLB   PO141906  26.500  24.770  15.670
 1747BOLB   GL141907  26.820  25.090  15.850
 1747BOLB   GL241908  26.920  25.110  15.480
 1747BOLB   C1A41909  27.140  25.300  15.930
 1747BOLB   C2A41910  27.550  25.230  15.890
 1747BOLB   C3A41911  27.910  25.430  15.910
 1747BOLB   C4A41912  28.180  25.160  16.010
 1747BOLB   C1B41913  27.260  25.300  15.420
 1747BOLB   C2B41914  27.640  25.570  15.450
 1747BOLB   C3B41915  27.810  25.950  15.300
 1747BOLB   C4B41916  27.870  26.280  15.120
 1747BOLB   NC241917  30.120  25.480  16.080
 1747BOLB   PO241918  29.960  25.520  15.680
 1747BOLB   GL341919  29.620  25.570  15.960
 1747BOLB   GL441920  29.690  25.570  16.330
 1747BOLB   C1C41921  29.410  25.170  15.980
 1747BOLB   C2C41922  29.080  24.890  15.860
 1747BOLB   C3C41923  28.630  24.790  15.750
 1747BOLB   C4C41924  28.300  24.790  15.970
 1747BOLB   C1D41925  29.350  25.400  16.670
 1747BOLB   C2D41926  28.860  25.400  16.670
 1747BOLB   C3D41927  28.470  25.280  16.830
 1747BOLB   C4D41928  28.180  25.420  17.100
 1748BOLB   NC141929  28.280  17.030   9.560
 1748BOLB   PO141930  28.260  17.380   9.360
 1748BOLB   GL141931  28.070  17.460   9.730
 1748BOLB   GL241932  28.140  17.820  10.000
 1748BOLB   C1A41933  27.880  17.270  10.170
 1748BOLB   C2A41934  27.480  17.230  10.300
 1748BOLB   C3A41935  27.360  17.710  10.460
 1748BOLB   C4A41936  27.200  18.020  10.240
 1748BOLB   C1B41937  27.730  17.770  10.110
 1748BOLB   C2B41938  27.320  17.640   9.970
 1748BOLB   C3B41939  26.920  17.560  10.130
 1748BOLB   C4B41940  26.470  17.910  10.090
 1748BOLB   NC241941  27.670  17.470   8.220
 1748BOLB   PO241942  28.050  17.410   8.490
 1748BOLB   GL341943  27.720  17.620   8.730
 1748BOLB   GL441944  27.390  17.500   8.670
 1748BOLB   C1C41945  27.530  17.680   9.140
 1748BOLB   C2C41946  27.170  17.570   9.310
 1748BOLB   C3C41947  26.870  17.640   9.600
 1748BOLB   C4C41948  26.970  18.030   9.910
 1748BOLB   C1D41949  27.030  17.610   8.820
 1748BOLB   C2D41950  26.760  17.780   9.110
 1748BOLB   C3D41951  26.670  18.070   9.440
 1748BOLB   C4D41952  26.700  18.340   9.680
 1749BOLB   NC141953  28.570  17.360  13.760
 1749BOLB   PO141954  28.650  17.350  13.370
 1749BOLB   GL141955  28.240  17.310  13.430
 1749BOLB   GL241956  28.180  17.590  13.580
 1749BOLB   C1A41957  27.800  17.440  13.200
 1749BOLB   C2A41958  27.360  17.360  13.300
 1749BOLB   C3A41959  26.920  17.220  13.280
 1749BOLB   C4A41960  26.560  17.390  13.310
 1749BOLB   C1B41961  28.170  18.170  13.480
 1749BOLB   C2B41962  27.880  18.590  13.400
 1749BOLB   C3B41963  27.630  18.700  13.600
 1749BOLB   C4B41964  27.600  18.320  13.790
 1749BOLB   NC241965  24.720  18.560  13.840
 1749BOLB   PO241966  25.000  18.240  13.870
 1749BOLB   GL341967  24.990  17.870  13.640
 1749BOLB   GL441968  25.020  17.610  13.610
 1749BOLB   C1C41969  25.300  17.900  13.310
 1749BOLB   C2C41970  25.720  18.120  13.350
 1749BOLB   C3C41971  26.070  17.870  13.460
 1749BOLB   C4C41972  26.210  17.570  13.280
 1749BOLB   C1D41973  25.480  17.840  13.830
 1749BOLB   C2D41974  25.900  17.830  13.970
 1749BOLB   C3D41975  26.220  17.960  14.360
 1749BOLB   C4D41976  26.370  18.050  14.740
 1750BOLB   NC141977  24.030  16.950  15.560
 1750BOLB   PO141978  24.360  17.340  15.730
 1750BOLB   GL141979  24.490  17.010  15.910
 1750BOLB   GL241980  24.590  16.870  15.620
 1750BOLB   C1A41981  24.870  16.650  15.920
 1750BOLB   C2A41982  25.140  16.380  15.960
 1750BOLB   C3A41983  25.290  16.170  15.730
 1750BOLB   C4A41984  25.310  15.730  15.490
 1750BOLB   C1B41985  24.750  16.400  15.540
 1750BOLB   C2B41986  24.860  15.970  15.370
 1750BOLB   C3B41987  25.100  15.910  15.030
 1750BOLB   C4B41988  25.260  15.520  15.010
 1750BOLB   NC241989  27.120  14.280  14.660
 1750BOLB   PO241990  26.690  14.000  14.770
 1750BOLB   GL341991  26.660  14.470  14.710
 1750BOLB   GL441992  26.610  14.640  14.320
 1750BOLB   C1C41993  26.330  14.630  14.800
 1750BOLB   C2C41994  26.020  14.920  15.150
 1750BOLB   C3C41995  25.710  15.180  15.370
 1750BOLB   C4C41996  25.500  15.420  15.470
 1750BOLB   C1D41997  26.820  14.950  13.990
 1750BOLB   C2D41998  27.000  15.410  13.830
 1750BOLB   C3D41999  27.130  15.820  13.880
 1750BOLB   C4D42000  27.480  16.000  13.890
 1751BOLB   NC142001  28.740  17.410  12.700
 1751BOLB   PO142002  28.670  17.120  12.470
 1751BOLB   GL142003  28.230  17.060  12.590
 1751BOLB   GL242004  28.070  16.950  12.920
 1751BOLB   C1A42005  27.940  17.360  12.650
 1751BOLB   C2A42006  27.730  17.570  12.280
 1751BOLB   C3A42007  27.370  17.600  11.970
 1751BOLB   C4A42008  27.160  17.340  12.200
 1751BOLB   C1B42009  27.620  16.990  12.970
 1751BOLB   C2B42010  27.220  16.960  13.050
 1751BOLB   C3B42011  26.780  17.020  12.840
 1751BOLB   C4B42012  26.530  17.430  12.800
 1751BOLB   NC242013  28.340  15.150  12.400
 1751BOLB   PO242014  28.270  15.410  12.710
 1751BOLB   GL342015  28.050  15.730  12.740
 1751BOLB   GL442016  27.820  15.820  13.050
 1751BOLB   C1C42017  27.870  16.140  12.570
 1751BOLB   C2C42018  27.520  16.390  12.570
 1751BOLB   C3C42019  27.200  16.720  12.560
 1751BOLB   C4C42020  27.090  16.990  12.290
 1751BOLB   C1D42021  27.430  15.940  12.980
 1751BOLB   C2D42022  27.040  15.980  13.060
 1751BOLB   C3D42023  26.580  16.030  13.050
 1751BOLB   C4D42024  26.180  16.180  12.850
 1752BOLB   NC142025  25.780  26.650  12.680
 1752BOLB   PO142026  25.650  26.390  12.420
 1752BOLB   GL142027  26.100  26.380  12.230
 1752BOLB   GL242028  26.410  26.160  12.320
 1752BOLB   C1A42029  26.400  26.590  12.130
 1752BOLB   C2A42030  26.870  26.630  11.990
 1752BOLB   C3A42031  27.220  26.720  11.770
 1752BOLB   C4A42032  27.470  26.750  11.460
 1752BOLB   C1B42033  26.700  26.380  12.580
 1752BOLB   C2B42034  27.030  26.610  12.540
 1752BOLB   C3B42035  27.480  26.880  12.740
 1752BOLB   C4B42036  27.890  26.900  12.990
 1752BOLB   NC242037  29.430  27.360  10.900
 1752BOLB   PO242038  29.460  27.790  10.720
 1752BOLB   GL342039  29.070  27.630  10.800
 1752BOLB   GL442040  28.790  27.780  10.990
 1752BOLB   C1C42041  28.640  27.450  10.630
 1752BOLB   C2C42042  28.300  27.360  10.620
 1752BOLB   C3C42043  28.020  27.170  10.900
 1752BOLB   C4C42044  27.770  27.020  11.140
 1752BOLB   C1D42045  28.340  27.580  11.170
 1752BOLB   C2D42046  28.060  27.570  11.480
 1752BOLB   C3D42047  27.810  27.330  11.560
 1752BOLB   C4D42048  27.640  26.990  11.870
 1753BOLB   NC142049  20.680  15.660   8.810
 1753BOLB   PO142050  20.960  15.420   8.970
 1753BOLB   GL142051  20.910  15.120   8.600
 1753BOLB   GL242052  20.920  15.380   8.490
 1753BOLB   C1A42053  21.100  14.820   8.430
 1753BOLB   C2A42054  21.300  14.460   8.540
 1753BOLB   C3A42055  21.590  14.170   8.620
 1753BOLB   C4A42056  21.960  13.910   8.370
 1753BOLB   C1B42057  21.380  15.410   8.310
 1753BOLB   C2B42058  21.640  15.390   7.930
 1753BOLB   C3B42059  21.950  15.200   7.740
 1753BOLB   C4B42060  22.330  15.130   7.460
 1753BOLB   NC242061  24.500  12.820   7.610
 1753BOLB   PO242062  24.050  12.880   7.730
 1753BOLB   GL342063  23.670  13.080   7.700
 1753BOLB   GL442064  23.670  13.320   7.490
 1753BOLB   C1C42065  23.340  13.060   7.900
 1753BOLB   C2C42066  23.050  13.350   8.030
 1753BOLB   C3C42067  22.700  13.550   8.290
 1753BOLB   C4C42068  22.290  13.620   8.320
 1753BOLB   C1D42069  23.240  13.470   7.590
 1753BOLB   C2D42070  22.860  13.630   7.690
 1753BOLB   C3D42071  22.740  13.990   7.990
 1753BOLB   C4D42072  22.810  14.210   8.440
 1754BOLB   NC142073  20.810  22.000   1.770
 1754BOLB   PO142074  20.370  21.930   1.470
 1754BOLB   GL142075  20.330  22.000   1.950
 1754BOLB   GL242076  20.520  22.180   2.180
 1754BOLB   C1A42077  20.370  21.780   2.400
 1754BOLB   C2A42078  20.110  21.500   2.670
 1754BOLB   C3A42079  19.920  21.720   2.970
 1754BOLB   C4A42080  20.070  22.110   3.190
 1754BOLB   C1B42081  20.660  22.100   2.590
 1754BOLB   C2B42082  20.580  22.250   2.960
 1754BOLB   C3B42083  20.790  22.420   3.280
 1754BOLB   C4B42084  20.480  22.550   3.640
 1754BOLB   NC242085  21.480  22.140   1.610
 1754BOLB   PO242086  21.200  22.350   1.770
 1754BOLB   GL342087  21.080  22.190   2.160
 1754BOLB   GL442088  20.920  21.810   2.190
 1754BOLB   C1C42089  21.310  22.020   2.530
 1754BOLB   C2C42090  21.050  21.930   3.030
 1754BOLB   C3C42091  20.810  21.860   3.380
 1754BOLB   C4C42092  20.410  22.060   3.380
 1754BOLB   C1D42093  20.900  21.690   2.610
 1754BOLB   C2D42094  20.910  21.460   3.060
 1754BOLB   C3D42095  20.640  21.330   3.520
 1754BOLB   C4D42096  20.420  21.220   3.780
 1755BOLB   NC142097  23.010  10.220  10.850
 1755BOLB   PO142098  22.960  10.540  10.450
 1755BOLB   GL142099  22.800  10.930  10.330
 1755BOLB   GL242100  23.010  11.230  10.340
 1755BOLB   C1A42101  22.470  11.120  10.550
 1755BOLB   C2A42102  22.110  11.100  10.640
 1755BOLB   C3A42103  22.060  11.380  10.890
 1755BOLB   C4A42104  22.210  11.590  11.170
 1755BOLB   C1B42105  22.740  11.430  10.360
 1755BOLB   C2B42106  22.560  11.810  10.460
 1755BOLB   C3B42107  22.280  11.910  10.740
 1755BOLB   C4B42108  21.970  12.030  11.020
 1755BOLB   NC242109  23.950  10.690  11.790
 1755BOLB   PO242110  23.650  10.520  11.860
 1755BOLB   GL342111  23.520  10.880  12.030
 1755BOLB   GL442112  23.760  11.070  12.150
 1755BOLB   C1C42113  23.250  11.120  12.160
 1755BOLB   C2C42114  22.880  11.270  11.970
 1755BOLB   C3C42115  22.670  11.500  11.740
 1755BOLB   C4C42116  22.270  11.770  11.580
 1755BOLB   C1D42117  23.980  11.550  12.360
 1755BOLB   C2D42118  23.810  11.790  12.700
 1755BOLB   C3D42119  23.480  11.960  12.840
 1755BOLB   C4D42120  23.290  12.350  13.060
 1756BOLB   NC142121  16.450  26.190   7.140
 1756BOLB   PO142122  16.480  26.020   6.670
 1756BOLB   GL142123  16.370  26.400   6.580
 1756BOLB   GL242124  16.290  26.580   6.830
 1756BOLB   C1A42125  16.400  26.630   6.210
 1756BOLB   C2A42126  16.540  26.980   5.880
 1756BOLB   C3A42127  16.510  26.900   5.540
 1756BOLB   C4A42128  16.710  26.900   5.250
 1756BOLB   C1B42129  16.060  26.840   6.460
 1756BOLB   C2B42130  15.840  27.280   6.510
 1756BOLB   C3B42131  15.600  27.600   6.490
 1756BOLB   C4B42132  15.250  27.780   6.230
 1756BOLB   NC242133  17.390  28.500   3.710
 1756BOLB   PO242134  16.940  28.370   3.680
 1756BOLB   GL342135  17.100  28.200   4.100
 1756BOLB   GL442136  17.090  28.550   4.290
 1756BOLB   C1C42137  17.200  28.010   4.480
 1756BOLB   C2C42138  17.360  27.600   4.710
 1756BOLB   C3C42139  17.290  27.290   5.020
 1756BOLB   C4C42140  17.070  26.940   5.070
 1756BOLB   C1D42141  17.440  28.520   4.610
 1756BOLB   C2D42142  17.500  28.580   4.960
 1756BOLB   C3D42143  17.620  28.440   5.460
 1756BOLB   C4D42144  17.450  28.070   5.770
 1757BOLB   NC142145  21.640  16.920   8.380
 1757BOLB   PO142146  21.680  16.530   8.630
 1757BOLB   GL142147  21.800  16.090   8.640
 1757BOLB   GL242148  21.650  16.040   8.460
 1757BOLB   C1A42149  22.150  15.810   8.510
 1757BOLB   C2A42150  22.510  15.570   8.620
 1757BOLB   C3A42151  22.770  15.270   8.360
 1757BOLB   C4A42152  23.190  15.300   8.090
 1757BOLB   C1B42153  21.890  15.900   8.110
 1757BOLB   C2B42154  22.020  15.770   7.760
 1757BOLB   C3B42155  22.280  15.600   7.560
 1757BOLB   C4B42156  22.800  15.730   7.490
 1757BOLB   NC242157  25.250  14.740   6.140
 1757BOLB   PO242158  25.330  14.970   6.430
 1757BOLB   GL342159  24.910  15.170   6.560
 1757BOLB   GL442160  24.920  15.520   6.760
 1757BOLB   C1C42161  24.450  15.240   6.880
 1757BOLB   C2C42162  24.310  15.380   7.380
 1757BOLB   C3C42163  24.030  15.270   7.640
 1757BOLB   C4C42164  23.630  15.290   7.890
 1757BOLB   C1D42165  24.560  15.660   7.070
 1757BOLB   C2D42166  24.190  15.800   7.200
 1757BOLB   C3D42167  23.940  16.250   7.270
 1757BOLB   C4D42168  23.630  16.530   7.260
 1758BOLB   NC142169  24.280  25.060  10.200
 1758BOLB   PO142170  24.620  25.370  10.140
 1758BOLB   GL142171  25.030  25.290   9.990
 1758BOLB   GL242172  25.090  25.390   9.620
 1758BOLB   C1A42173  25.420  25.510   9.960
 1758BOLB   C2A42174  25.790  25.470   9.770
 1758BOLB   C3A42175  26.170  25.390   9.530
 1758BOLB   C4A42176  26.600  25.490   9.330
 1758BOLB   C1B42177  25.460  25.470   9.380
 1758BOLB   C2B42178  25.810  25.700   9.170
 1758BOLB   C3B42179  26.170  25.830   9.120
 1758BOLB   C4B42180  26.470  26.160   8.960
 1758BOLB   NC242181  28.250  25.320   7.500
 1758BOLB   PO242182  28.320  25.520   7.890
 1758BOLB   GL342183  27.980  25.750   8.020
 1758BOLB   GL442184  27.840  25.540   8.080
 1758BOLB   C1C42185  27.840  25.930   8.420
 1758BOLB   C2C42186  27.570  25.850   8.750
 1758BOLB   C3C42187  27.300  25.660   8.940
 1758BOLB   C4C42188  26.990  25.550   9.200
 1758BOLB   C1D42189  27.420  25.540   8.340
 1758BOLB   C2D42190  27.020  25.770   8.490
 1758BOLB   C3D42191  26.700  25.750   8.800
 1758BOLB   C4D42192  26.350  25.450   8.910
 1759BOLB   NC142193  22.840  17.710   9.100
 1759BOLB   PO142194  22.510  17.560   8.980
 1759BOLB   GL142195  22.900  17.230   8.830
 1759BOLB   GL242196  22.970  17.000   9.020
 1759BOLB   C1A42197  23.300  17.010   8.600
 1759BOLB   C2A42198  23.590  16.620   8.570
 1759BOLB   C3A42199  23.850  16.240   8.460
 1759BOLB   C4A42200  24.290  16.190   8.610
 1759BOLB   C1B42201  23.260  16.620   8.990
 1759BOLB   C2B42202  23.670  16.570   9.080
 1759BOLB   C3B42203  24.120  16.400   9.070
 1759BOLB   C4B42204  24.330  16.030   9.080
 1759BOLB   NC242205  26.700  15.410   7.280
 1759BOLB   PO242206  26.470  15.520   7.720
 1759BOLB   GL342207  26.040  15.540   7.930
 1759BOLB   GL442208  25.740  15.370   7.920
 1759BOLB   C1C42209  25.680  15.860   8.040
 1759BOLB   C2C42210  25.300  16.060   8.110
 1759BOLB   C3C42211  24.880  16.030   8.370
 1759BOLB   C4C42212  24.620  16.180   8.680
 1759BOLB   C1D42213  25.380  15.520   8.170
 1759BOLB   C2D42214  25.140  15.590   8.470
 1759BOLB   C3D42215  24.940  15.710   8.900
 1759BOLB   C4D42216  24.790  15.850   9.230
 1760BOLB   NC142217  23.290  16.410  11.230
 1760BOLB   PO142218  23.460  16.750  11.470
 1760BOLB   GL142219  23.790  16.420  11.310
 1760BOLB   GL242220  23.740  16.240  11.040
 1760BOLB   C1A42221  24.100  16.130  11.540
 1760BOLB   C2A42222  24.250  15.730  11.640
 1760BOLB   C3A42223  24.420  15.380  11.850
 1760BOLB   C4A42224  24.540  15.150  12.040
 1760BOLB   C1B42225  24.040  16.140  10.790
 1760BOLB   C2B42226  24.520  15.990  10.770
 1760BOLB   C3B42227  24.960  16.220  10.670
 1760BOLB   C4B42228  25.350  16.240  10.470
 1760BOLB   NC242229  26.520  13.660  12.390
 1760BOLB   PO242230  26.700  14.070  12.070
 1760BOLB   GL342231  26.230  14.180  12.180
 1760BOLB   GL442232  26.020  14.170  11.880
 1760BOLB   C1C42233  25.810  14.270  12.350
 1760BOLB   C2C42234  25.390  14.610  12.350
 1760BOLB   C3C42235  24.970  14.620  12.320
 1760BOLB   C4C42236  24.760  14.870  12.070
 1760BOLB   C1D42237  25.770  14.660  12.020
 1760BOLB   C2D42238  25.460  15.000  12.040
 1760BOLB   C3D42239  25.160  15.070  12.340
 1760BOLB   C4D42240  24.690  15.060  12.490
 1761BOLB   NC142241  22.780  15.260  12.880
 1761BOLB   PO142242  23.170  15.360  12.870
 1761BOLB   GL142243  23.150  15.030  12.590
 1761BOLB   GL242244  22.980  15.060  12.350
 1761BOLB   C1A42245  23.350  14.690  12.720
 1761BOLB   C2A42246  23.620  14.340  12.920
 1761BOLB   C3A42247  23.730  13.990  12.610
 1761BOLB   C4A42248  24.010  13.770  12.300
 1761BOLB   C1B42249  22.990  14.730  12.030
 1761BOLB   C2B42250  23.230  14.400  11.880
 1761BOLB   C3B42251  23.590  14.310  11.690
 1761BOLB   C4B42252  23.750  13.940  11.400
 1761BOLB   NC242253  26.030  12.250  11.540
 1761BOLB   PO242254  25.890  12.680  11.690
 1761BOLB   GL342255  25.560  12.760  11.590
 1761BOLB   GL442256  25.350  12.970  11.340
 1761BOLB   C1C42257  25.070  12.850  11.710
 1761BOLB   C2C42258  24.630  12.740  11.870
 1761BOLB   C3C42259  24.290  13.070  11.930
 1761BOLB   C4C42260  24.180  13.500  11.930
 1761BOLB   C1D42261  24.890  13.010  11.100
 1761BOLB   C2D42262  24.780  13.360  10.800
 1761BOLB   C3D42263  24.870  13.800  10.810
 1761BOLB   C4D42264  25.040  14.060  11.030
 1762BOLB   NC142265  26.110  15.000   8.040
 1762BOLB   PO142266  25.920  14.700   8.420
 1762BOLB   GL142267  25.550  14.700   8.580
 1762BOLB   GL242268  25.610  14.680   8.850
 1762BOLB   C1A42269  25.190  14.820   8.610
 1762BOLB   C2A42270  24.890  14.840   8.980
 1762BOLB   C3A42271  24.640  14.930   9.360
 1762BOLB   C4A42272  24.570  14.840   9.740
 1762BOLB   C1B42273  25.350  14.610   9.170
 1762BOLB   C2B42274  25.120  14.770   9.400
 1762BOLB   C3B42275  25.050  14.750   9.870
 1762BOLB   C4B42276  24.880  14.790  10.210
 1762BOLB   NC242277  26.180  13.900   9.730
 1762BOLB   PO242278  26.080  14.230   9.740
 1762BOLB   GL342279  25.660  14.410  10.000
 1762BOLB   GL442280  25.450  14.180  10.100
 1762BOLB   C1C42281  25.590  14.800  10.160
 1762BOLB   C2C42282  25.300  15.160  10.270
 1762BOLB   C3C42283  24.960  15.210   9.970
 1762BOLB   C4C42284  24.510  15.150  10.010
 1762BOLB   C1D42285  25.030  14.270  10.110
 1762BOLB   C2D42286  24.500  14.400  10.130
 1762BOLB   C3D42287  24.160  14.500   9.760
 1762BOLB   C4D42288  24.180  14.640   9.360
 1763BOLB   NC142289  24.850  21.170   3.020
 1763BOLB   PO142290  25.190  21.320   3.340
 1763BOLB   GL142291  24.990  21.400   3.700
 1763BOLB   GL242292  25.060  21.290   3.990
 1763BOLB   C1A42293  24.530  21.170   3.760
 1763BOLB   C2A42294  24.340  21.140   4.130
 1763BOLB   C3A42295  24.540  21.290   4.420
 1763BOLB   C4A42296  24.830  21.200   4.730
 1763BOLB   C1B42297  25.010  21.440   4.370
 1763BOLB   C2B42298  24.790  21.730   4.520
 1763BOLB   C3B42299  24.680  21.700   4.920
 1763BOLB   C4B42300  24.680  21.360   5.300
 1763BOLB   NC242301  26.930  21.750   4.270
 1763BOLB   PO242302  26.530  21.760   4.390
 1763BOLB   GL342303  26.190  21.910   4.740
 1763BOLB   GL442304  26.370  21.860   5.110
 1763BOLB   C1C42305  25.830  21.880   4.900
 1763BOLB   C2C42306  25.530  21.780   5.170
 1763BOLB   C3C42307  25.390  21.500   5.180
 1763BOLB   C4C42308  25.090  21.470   4.990
 1763BOLB   C1D42309  26.130  21.660   5.340
 1763BOLB   C2D42310  26.000  21.480   5.680
 1763BOLB   C3D42311  25.780  21.620   5.990
 1763BOLB   C4D42312  25.440  21.840   6.150
 1764BOLB   NC142313  20.190  13.940   2.910
 1764BOLB   PO142314  19.880  13.570   3.140
 1764BOLB   GL142315  19.610  13.800   3.360
 1764BOLB   GL242316  19.670  14.170   3.390
 1764BOLB   C1A42317  19.240  13.870   3.630
 1764BOLB   C2A42318  18.910  14.100   3.610
 1764BOLB   C3A42319  18.670  14.430   3.530
 1764BOLB   C4A42320  18.830  14.860   3.790
 1764BOLB   C1B42321  19.570  14.190   3.800
 1764BOLB   C2B42322  19.590  14.500   4.060
 1764BOLB   C3B42323  19.540  14.820   4.470
 1764BOLB   C4B42324  19.310  15.040   4.720
 1764BOLB   NC242325  20.980  14.880   3.060
 1764BOLB   PO242326  21.100  15.300   2.760
 1764BOLB   GL342327  20.760  15.490   3.020
 1764BOLB   GL442328  20.930  15.790   3.180
 1764BOLB   C1C42329  20.470  15.370   3.250
 1764BOLB   C2C42330  20.150  15.280   3.550
 1764BOLB   C3C42331  19.720  15.110   3.740
 1764BOLB   C4C42332  19.170  15.150   3.830
 1764BOLB   C1D42333  20.550  15.820   3.440
 1764BOLB   C2D42334  20.250  15.810   3.780
 1764BOLB   C3D42335  19.970  15.860   4.150
 1764BOLB   C4D42336  20.000  16.020   4.390
 1765BOLB   NC142337  22.170  23.940   6.530
 1765BOLB   PO142338  22.500  24.060   6.250
 1765BOLB   GL142339  22.760  23.950   6.100
 1765BOLB   GL242340  23.010  24.180   6.060
 1765BOLB   C1A42341  22.870  23.930   5.680
 1765BOLB   C2A42342  22.820  24.120   5.240
 1765BOLB   C3A42343  23.150  24.250   4.980
 1765BOLB   C4A42344  23.470  24.580   4.760
 1765BOLB   C1B42345  23.240  24.260   5.790
 1765BOLB   C2B42346  23.330  24.010   5.430
 1765BOLB   C3B42347  23.520  23.750   5.250
 1765BOLB   C4B42348  23.700  23.620   4.920
 1765BOLB   NC242349  24.970  24.820   3.390
 1765BOLB   PO242350  24.580  25.040   3.100
 1765BOLB   GL342351  24.130  25.190   3.270
 1765BOLB   GL442352  24.140  25.340   3.540
 1765BOLB   C1C42353  23.680  25.230   3.430
 1765BOLB   C2C42354  23.500  24.990   3.640
 1765BOLB   C3C42355  23.370  24.840   3.990
 1765BOLB   C4C42356  23.330  24.870   4.430
 1765BOLB   C1D42357  24.290  25.040   3.820
 1765BOLB   C2D42358  24.350  24.720   4.190
 1765BOLB   C3D42359  24.170  24.480   4.260
 1765BOLB   C4D42360  23.830  24.290   4.550
 1766BOLB   NC142361  19.960  24.710   5.960
 1766BOLB   PO142362  20.160  24.390   5.880
 1766BOLB   GL142363  20.380  24.730   5.550
 1766BOLB   GL242364  20.780  24.750   5.620
 1766BOLB   C1A42365  20.280  25.050   5.320
 1766BOLB   C2A42366  20.210  25.290   4.940
 1766BOLB   C3A42367  20.220  25.470   4.630
 1766BOLB   C4A42368  20.090  25.700   4.300
 1766BOLB   C1B42369  20.880  25.030   5.220
 1766BOLB   C2B42370  20.720  25.230   4.920
 1766BOLB   C3B42371  20.860  25.320   4.450
 1766BOLB   C4B42372  21.240  25.250   4.330
 1766BOLB   NC242373  19.710  27.450   2.730
 1766BOLB   PO242374  20.020  27.070   2.690
 1766BOLB   GL342375  19.730  27.020   3.060
 1766BOLB   GL442376  19.440  27.240   3.090
 1766BOLB   C1C42377  19.620  26.890   3.400
 1766BOLB   C2C42378  19.440  26.860   3.850
 1766BOLB   C3C42379  19.330  26.340   4.030
 1766BOLB   C4C42380  19.710  25.980   4.200
 1766BOLB   C1D42381  19.130  26.990   3.340
 1766BOLB   C2D42382  18.950  26.980   3.760
 1766BOLB   C3D42383  19.030  26.790   4.180
 1766BOLB   C4D42384  19.090  26.570   4.560
 1767BOLB   NC142385  27.020  14.400  12.290
 1767BOLB   PO142386  27.120  14.580  12.640
 1767BOLB   GL142387  26.740  14.840  12.750
 1767BOLB   GL242388  26.610  14.640  12.800
 1767BOLB   C1A42389  26.710  15.250  12.900
 1767BOLB   C2A42390  26.410  15.430  12.960
 1767BOLB   C3A42391  26.090  15.750  13.050
 1767BOLB   C4A42392  25.820  15.820  13.350
 1767BOLB   C1B42393  26.290  14.490  12.890
 1767BOLB   C2B42394  25.900  14.630  12.720
 1767BOLB   C3B42395  25.750  14.930  12.460
 1767BOLB   C4B42396  26.000  15.130  12.170
 1767BOLB   NC242397  24.000  17.010  14.330
 1767BOLB   PO242398  23.870  17.170  14.020
 1767BOLB   GL342399  24.290  17.040  13.920
 1767BOLB   GL442400  24.250  16.710  14.030
 1767BOLB   C1C42401  24.700  16.860  13.900
 1767BOLB   C2C42402  25.020  16.530  13.910
 1767BOLB   C3C42403  25.320  16.310  13.690
 1767BOLB   C4C42404  25.540  16.050  13.520
 1767BOLB   C1D42405  24.410  16.370  13.940
 1767BOLB   C2D42406  24.730  16.200  13.670
 1767BOLB   C3D42407  25.070  15.900  13.560
 1767BOLB   C4D42408  25.360  15.520  13.350
 1768BOLB   NC142409  17.540  25.260   6.380
 1768BOLB   PO142410  17.390  25.650   6.220
 1768BOLB   GL142411  17.110  26.070   6.050
 1768BOLB   GL242412  17.200  26.250   5.740
 1768BOLB   C1A42413  16.680  26.190   5.910
 1768BOLB   C2A42414  16.880  26.630   5.880
 1768BOLB   C3A42415  17.040  26.980   5.610
 1768BOLB   C4A42416  16.870  27.320   5.520
 1768BOLB   C1B42417  17.280  25.970   5.290
 1768BOLB   C2B42418  17.340  26.110   4.910
 1768BOLB   C3B42419  17.080  26.190   4.510
 1768BOLB   C4B42420  16.590  26.190   4.580
 1768BOLB   NC242421  16.670  28.870   3.560
 1768BOLB   PO242422  16.640  29.190   3.920
 1768BOLB   GL342423  16.680  28.990   4.390
 1768BOLB   GL442424  16.970  29.030   4.420
 1768BOLB   C1C42425  16.640  28.720   4.670
 1768BOLB   C2C42426  16.560  28.590   5.020
 1768BOLB   C3C42427  16.620  28.210   5.390
 1768BOLB   C4C42428  16.810  27.870   5.610
 1768BOLB   C1D42429  17.110  28.970   4.800
 1768BOLB   C2D42430  17.200  28.780   5.270
 1768BOLB   C3D42431  17.350  28.870   5.660
 1768BOLB   C4D42432  17.630  28.680   6.020
 1769BOLB   NC142433  23.480  25.080   8.880
 1769BOLB   PO142434  23.850  25.290   8.640
 1769BOLB   GL142435  24.260  25.190   8.520
 1769BOLB   GL242436  24.200  25.510   8.320
 1769BOLB   C1A42437  24.650  25.170   8.250
 1769BOLB   C2A42438  25.000  24.990   8.050
 1769BOLB   C3A42439  25.300  25.140   7.750
 1769BOLB   C4A42440  25.410  25.400   7.500
 1769BOLB   C1B42441  24.400  25.510   8.020
 1769BOLB   C2B42442  24.500  25.620   7.660
 1769BOLB   C3B42443  24.630  25.640   7.270
 1769BOLB   C4B42444  24.480  25.630   6.890
 1769BOLB   NC242445  27.210  25.650   5.740
 1769BOLB   PO242446  27.290  25.980   6.040
 1769BOLB   GL342447  27.100  25.930   6.410
 1769BOLB   GL442448  27.170  25.990   6.720
 1769BOLB   C1C42449  26.840  25.580   6.510
 1769BOLB   C2C42450  26.430  25.470   6.760
 1769BOLB   C3C42451  26.010  25.490   6.950
 1769BOLB   C4C42452  25.700  25.550   7.250
 1769BOLB   C1D42453  26.940  26.210   7.050
 1769BOLB   C2D42454  26.660  26.220   7.410
 1769BOLB   C3D42455  26.260  26.120   7.570
 1769BOLB   C4D42456  25.950  26.070   7.890
 1770BOLB   NC142457  25.670  25.490  12.300
 1770BOLB   PO142458  25.780  25.940  12.070
 1770BOLB   GL142459  26.100  25.840  12.010
 1770BOLB   GL242460  26.120  25.870  11.620
 1770BOLB   C1A42461  26.550  25.890  11.940
 1770BOLB   C2A42462  26.910  26.000  11.890
 1770BOLB   C3A42463  27.280  26.190  11.780
 1770BOLB   C4A42464  27.600  26.250  11.470
 1770BOLB   C1B42465  26.200  26.060  11.120
 1770BOLB   C2B42466  26.420  26.180  10.870
 1770BOLB   C3B42467  26.690  26.390  10.530
 1770BOLB   C4B42468  26.820  26.790  10.360
 1770BOLB   NC242469  28.980  27.770  11.480
 1770BOLB   PO242470  29.360  27.550  11.360
 1770BOLB   GL342471  29.100  27.240  11.400
 1770BOLB   GL442472  28.790  27.260  11.550
 1770BOLB   C1C42473  28.830  27.140  11.070
 1770BOLB   C2C42474  28.480  26.980  10.940
 1770BOLB   C3C42475  28.150  26.700  11.110
 1770BOLB   C4C42476  27.790  26.530  11.150
 1770BOLB   C1D42477  28.380  27.130  11.410
 1770BOLB   C2D42478  27.960  26.830  11.560
 1770BOLB   C3D42479  27.820  26.500  11.920
 1770BOLB   C4D42480  27.760  26.090  12.090
 1771BOLB   NC142481  21.280  16.260   8.830
 1771BOLB   PO142482  21.430  15.910   8.960
 1771BOLB   GL142483  21.490  15.570   8.750
 1771BOLB   GL242484  21.370  15.270   8.790
 1771BOLB   C1A42485  21.860  15.350   8.490
 1771BOLB   C2A42486  22.220  15.210   8.390
 1771BOLB   C3A42487  22.550  14.890   8.380
 1771BOLB   C4A42488  22.860  14.670   8.550
 1771BOLB   C1B42489  21.540  14.940   8.550
 1771BOLB   C2B42490  21.840  14.890   8.170
 1771BOLB   C3B42491  22.280  14.920   8.010
 1771BOLB   C4B42492  22.710  14.840   7.670
 1771BOLB   NC242493  24.810  12.750   8.760
 1771BOLB   PO242494  24.460  12.910   8.680
 1771BOLB   GL342495  24.210  13.280   8.730
 1771BOLB   GL442496  24.280  13.510   8.480
 1771BOLB   C1C42497  24.090  13.710   8.930
 1771BOLB   C2C42498  23.860  13.950   9.020
 1771BOLB   C3C42499  23.500  14.130   9.000
 1771BOLB   C4C42500  23.130  14.380   8.870
 1771BOLB   C1D42501  23.810  13.490   8.530
 1771BOLB   C2D42502  23.470  13.870   8.530
 1771BOLB   C3D42503  23.290  14.170   8.460
 1771BOLB   C4D42504  23.330  14.570   8.380
 1772BOLB   NC142505  25.860  15.950   6.320
 1772BOLB   PO142506  25.460  15.870   6.430
 1772BOLB   GL142507  25.220  15.970   6.690
 1772BOLB   GL242508  25.310  15.770   6.930
 1772BOLB   C1A42509  24.780  15.990   6.790
 1772BOLB   C2A42510  24.610  16.120   7.240
 1772BOLB   C3A42511  24.390  16.200   7.530
 1772BOLB   C4A42512  23.980  16.040   7.740
 1772BOLB   C1B42513  25.010  15.870   7.230
 1772BOLB   C2B42514  24.690  15.680   7.560
 1772BOLB   C3B42515  24.360  15.700   7.770
 1772BOLB   C4B42516  24.280  15.930   8.210
 1772BOLB   NC242517  24.520  14.090   5.980
 1772BOLB   PO242518  24.510  14.230   6.450
 1772BOLB   GL342519  24.200  14.500   6.610
 1772BOLB   GL442520  24.450  14.670   6.850
 1772BOLB   C1C42521  23.970  14.900   6.660
 1772BOLB   C2C42522  23.980  15.140   7.000
 1772BOLB   C3C42523  23.800  15.480   7.190
 1772BOLB   C4C42524  23.840  15.710   7.580
 1772BOLB   C1D42525  24.260  14.920   7.250
 1772BOLB   C2D42526  23.830  14.840   7.480
 1772BOLB   C3D42527  23.480  14.690   7.710
 1772BOLB   C4D42528  23.070  14.850   8.010
 1773BOLB   NC142529  26.970  14.710  17.860
 1773BOLB   PO142530  27.080  15.240  17.750
 1773BOLB   GL142531  26.970  15.400  17.320
 1773BOLB   GL242532  26.700  15.330  17.050
 1773BOLB   C1A42533  26.820  15.780  17.120
 1773BOLB   C2A42534  26.660  16.100  17.080
 1773BOLB   C3A42535  26.310  16.270  17.070
 1773BOLB   C4A42536  26.060  16.090  17.130
 1773BOLB   C1B42537  26.280  15.340  17.330
 1773BOLB   C2B42538  25.900  15.600  17.320
 1773BOLB   C3B42539  25.630  15.870  17.250
 1773BOLB   C4B42540  25.390  16.240  17.130
 1773BOLB   NC242541  26.630  14.480  17.070
 1773BOLB   PO242542  26.850  14.780  17.090
 1773BOLB   GL342543  26.400  14.880  17.080
 1773BOLB   GL442544  26.460  15.050  16.760
 1773BOLB   C1C42545  26.000  15.060  16.990
 1773BOLB   C2C42546  25.790  15.190  16.690
 1773BOLB   C3C42547  25.620  15.630  16.660
 1773BOLB   C4C42548  25.810  15.980  16.820
 1773BOLB   C1D42549  26.540  15.170  16.340
 1773BOLB   C2D42550  26.520  15.180  15.970
 1773BOLB   C3D42551  26.410  15.350  15.470
 1773BOLB   C4D42552  26.510  15.690  15.220
 1774BOLB   NC142553  22.040  16.250   9.960
 1774BOLB   PO142554  22.400  16.200  10.260
 1774BOLB   GL142555  22.720  15.960  10.040
 1774BOLB   GL242556  22.640  15.750  10.310
 1774BOLB   C1A42557  22.740  15.690   9.730
 1774BOLB   C2A42558  22.980  15.350   9.660
 1774BOLB   C3A42559  23.250  15.040   9.420
 1774BOLB   C4A42560  23.400  14.710   9.210
 1774BOLB   C1B42561  22.980  15.440  10.220
 1774BOLB   C2B42562  23.270  15.170  10.020
 1774BOLB   C3B42563  23.640  14.980   9.790
 1774BOLB   C4B42564  24.160  15.120   9.660
 1774BOLB   NC242565  24.510  14.160   6.940
 1774BOLB   PO242566  24.810  14.050   7.200
 1774BOLB   GL342567  24.540  14.310   7.480
 1774BOLB   GL442568  24.600  14.690   7.510
 1774BOLB   C1C42569  24.430  14.360   7.880
 1774BOLB   C2C42570  24.280  14.560   8.240
 1774BOLB   C3C42571  23.930  14.690   8.540
 1774BOLB   C4C42572  23.600  14.600   8.840
 1774BOLB   C1D42573  24.220  14.830   7.750
 1774BOLB   C2D42574  23.920  14.890   8.080
 1774BOLB   C3D42575  23.550  15.030   8.340
 1774BOLB   C4D42576  23.510  15.440   8.460
 1775BOLB   NC142577  26.130  20.450  12.930
 1775BOLB   PO142578  25.790  20.140  12.990
 1775BOLB   GL142579  26.200  20.020  12.730
 1775BOLB   GL242580  26.080  19.740  12.610
 1775BOLB   C1A42581  26.640  20.060  12.600
 1775BOLB   C2A42582  27.030  20.000  12.370
 1775BOLB   C3A42583  27.240  19.880  12.010
 1775BOLB   C4A42584  27.780  19.760  11.810
 1775BOLB   C1B42585  26.450  19.570  12.720
 1775BOLB   C2B42586  26.840  19.290  12.750
 1775BOLB   C3B42587  27.200  19.230  12.930
 1775BOLB   C4B42588  27.630  19.400  13.060
 1775BOLB   NC242589  29.250  18.990  10.750
 1775BOLB   PO242590  29.290  18.450  10.670
 1775BOLB   GL342591  28.830  18.480  10.480
 1775BOLB   GL442592  28.830  18.870  10.560
 1775BOLB   C1C42593  28.400  18.520  10.640
 1775BOLB   C2C42594  28.090  18.660  10.980
 1775BOLB   C3C42595  27.850  18.940  11.280
 1775BOLB   C4C42596  27.930  19.380  11.510
 1775BOLB   C1D42597  28.380  19.080  10.660
 1775BOLB   C2D42598  28.120  19.320  10.900
 1775BOLB   C3D42599  27.810  19.410  11.030
 1775BOLB   C4D42600  27.340  19.180  11.220
 1776BOLB   NC142601  15.130  20.640   0.550
 1776BOLB   PO142602  14.750  20.620   0.700
 1776BOLB   GL142603  14.950  20.430   1.080
 1776BOLB   GL242604  15.040  20.020   1.110
 1776BOLB   C1A42605  15.060  20.570   1.570
 1776BOLB   C2A42606  14.920  20.710   2.040
 1776BOLB   C3A42607  15.010  20.740   2.510
 1776BOLB   C4A42608  14.990  21.110   2.750
 1776BOLB   C1B42609  14.790  20.080   1.440
 1776BOLB   C2B42610  14.800  20.130   1.850
 1776BOLB   C3B42611  14.890  19.950   2.240
 1776BOLB   C4B42612  15.150  19.830   2.560
 1776BOLB   NC242613  15.350  22.920   1.100
 1776BOLB   PO242614  15.630  22.670   0.960
 1776BOLB   GL342615  15.530  22.380   1.310
 1776BOLB   GL442616  15.440  22.050   1.400
 1776BOLB   C1C42617  15.630  22.480   1.810
 1776BOLB   C2C42618  15.420  22.290   2.250
 1776BOLB   C3C42619  15.200  21.870   2.340
 1776BOLB   C4C42620  15.210  21.510   2.550
 1776BOLB   C1D42621  15.570  21.850   1.830
 1776BOLB   C2D42622  15.700  21.810   2.140
 1776BOLB   C3D42623  15.620  21.790   2.560
 1776BOLB   C4D42624  15.750  21.810   2.980
 1777BOLB   NC142625  25.940  17.630   6.010
 1777BOLB   PO142626  25.720  17.250   5.930
 1777BOLB   GL142627  25.320  17.320   6.110
 1777BOLB   GL242628  25.520  17.320   6.380
 1777BOLB   C1A42629  24.870  17.370   6.350
 1777BOLB   C2A42630  24.800  17.450   6.810
 1777BOLB   C3A42631  24.910  17.490   7.170
 1777BOLB   C4A42632  24.810  17.680   7.540
 1777BOLB   C1B42633  25.200  16.940   6.500
 1777BOLB   C2B42634  24.740  16.880   6.550
 1777BOLB   C3B42635  24.290  17.030   6.730
 1777BOLB   C4B42636  24.020  17.180   6.990
 1777BOLB   NC242637  26.470  15.780   6.950
 1777BOLB   PO242638  26.600  16.120   7.210
 1777BOLB   GL342639  26.560  16.450   7.580
 1777BOLB   GL442640  26.420  16.430   7.910
 1777BOLB   C1C42641  26.240  16.790   7.650
 1777BOLB   C2C42642  25.820  16.830   7.960
 1777BOLB   C3C42643  25.480  17.170   7.950
 1777BOLB   C4C42644  25.150  17.450   7.910
 1777BOLB   C1D42645  25.920  16.320   7.910
 1777BOLB   C2D42646  25.540  16.410   7.860
 1777BOLB   C3D42647  25.010  16.450   7.940
 1777BOLB   C4D42648  24.760  16.520   8.340
 1778BOLB   NC142649  22.910  16.690  12.460
 1778BOLB   PO142650  23.350  16.780  12.160
 1778BOLB   GL142651  23.670  16.390  12.220
 1778BOLB   GL242652  23.750  16.120  12.500
 1778BOLB   C1A42653  24.050  16.110  12.010
 1778BOLB   C2A42654  24.410  15.870  12.080
 1778BOLB   C3A42655  24.710  15.980  11.730
 1778BOLB   C4A42656  25.020  16.020  11.290
 1778BOLB   C1B42657  24.100  15.820  12.510
 1778BOLB   C2B42658  24.540  15.660  12.540
 1778BOLB   C3B42659  24.830  15.520  12.230
 1778BOLB   C4B42660  25.020  15.310  11.950
 1778BOLB   NC242661  26.340  14.470  10.540
 1778BOLB   PO242662  26.740  14.590  10.780
 1778BOLB   GL342663  26.280  14.720  10.960
 1778BOLB   GL442664  26.050  14.430  10.980
 1778BOLB   C1C42665  25.860  14.940  11.160
 1778BOLB   C2C42666  25.760  15.340  11.290
 1778BOLB   C3C42667  25.690  15.720  11.450
 1778BOLB   C4C42668  25.380  16.000  11.370
 1778BOLB   C1D42669  25.600  14.500  10.970
 1778BOLB   C2D42670  25.210  14.480  11.160
 1778BOLB   C3D42671  24.880  14.670  11.110
 1778BOLB   C4D42672  24.410  14.620  11.080
 1779BOLB   NC142673  25.330  27.500  13.330
 1779BOLB   PO142674  25.280  27.850  13.290
 1779BOLB   GL142675  25.580  28.080  13.440
 1779BOLB   GL242676  25.860  27.890  13.200
 1779BOLB   C1A42677  25.950  28.260  13.570
 1779BOLB   C2A42678  26.400  28.400  13.510
 1779BOLB   C3A42679  26.910  28.530  13.280
 1779BOLB   C4A42680  27.260  28.410  13.080
 1779BOLB   C1B42681  26.230  27.980  13.160
 1779BOLB   C2B42682  26.510  28.200  12.990
 1779BOLB   C3B42683  26.900  28.100  12.790
 1779BOLB   C4B42684  27.250  28.280  12.630
 1779BOLB   NC242685  29.360  27.720  12.370
 1779BOLB   PO242686  29.530  28.150  12.090
 1779BOLB   GL342687  29.080  28.120  12.100
 1779BOLB   GL442688  28.930  27.870  11.950
 1779BOLB   C1C42689  28.810  28.080  12.480
 1779BOLB   C2C42690  28.470  27.860  12.730
 1779BOLB   C3C42691  27.900  27.920  12.710
 1779BOLB   C4C42692  27.650  28.210  12.910
 1779BOLB   C1D42693  28.620  27.640  12.240
 1779BOLB   C2D42694  28.180  27.530  12.430
 1779BOLB   C3D42695  27.680  27.500  12.530
 1779BOLB   C4D42696  27.260  27.740  12.620
 1780BOLB   NC142697  17.180  15.970   5.110
 1780BOLB   PO142698  17.330  15.640   5.290
 1780BOLB   GL142699  17.620  15.410   5.250
 1780BOLB   GL242700  17.470  15.120   5.410
 1780BOLB   C1A42701  17.740  15.260   4.720
 1780BOLB   C2A42702  17.860  14.860   4.770
 1780BOLB   C3A42703  18.190  14.590   4.850
 1780BOLB   C4A42704  18.290  14.150   4.720
 1780BOLB   C1B42705  17.740  14.860   5.220
 1780BOLB   C2B42706  17.690  14.500   5.110
 1780BOLB   C3B42707  17.830  14.130   4.990
 1780BOLB   C4B42708  18.160  13.830   5.240
 1780BOLB   NC242709  19.590  12.170   3.910
 1780BOLB   PO242710  19.240  12.400   3.620
 1780BOLB   GL342711  19.250  12.430   4.140
 1780BOLB   GL442712  19.510  12.520   4.290
 1780BOLB   C1C42713  18.890  12.810   4.080
 1780BOLB   C2C42714  18.600  13.070   4.350
 1780BOLB   C3C42715  18.310  13.360   4.490
 1780BOLB   C4C42716  18.200  13.770   4.690
 1780BOLB   C1D42717  19.490  12.820   4.560
 1780BOLB   C2D42718  19.500  13.060   4.870
 1780BOLB   C3D42719  19.240  13.240   5.180
 1780BOLB   C4D42720  18.990  13.060   5.390
 1781BOLB   NC142721  25.350  27.080  15.180
 1781BOLB   PO142722  25.490  27.190  15.570
 1781BOLB   GL142723  25.730  27.260  15.770
 1781BOLB   GL242724  25.800  27.570  15.610
 1781BOLB   C1A42725  25.670  27.440  16.210
 1781BOLB   C2A42726  25.980  27.590  16.370
 1781BOLB   C3A42727  26.330  27.720  16.620
 1781BOLB   C4A42728  26.640  27.460  16.820
 1781BOLB   C1B42729  26.150  27.510  15.900
 1781BOLB   C2B42730  26.400  27.800  16.080
 1781BOLB   C3B42731  26.630  27.990  15.760
 1781BOLB   C4B42732  27.020  27.820  15.650
 1781BOLB   NC242733  28.730  28.050  18.030
 1781BOLB   PO242734  28.720  28.080  17.570
 1781BOLB   GL342735  28.540  27.700  17.450
 1781BOLB   GL442736  28.630  27.700  17.180
 1781BOLB   C1C42737  28.020  27.440  17.520
 1781BOLB   C2C42738  27.660  27.380  17.320
 1781BOLB   C3C42739  27.300  27.400  17.190
 1781BOLB   C4C42740  26.940  27.490  17.100
 1781BOLB   C1D42741  28.280  27.420  17.010
 1781BOLB   C2D42742  27.950  27.170  16.860
 1781BOLB   C3D42743  27.550  26.920  16.920
 1781BOLB   C4D42744  27.110  26.970  17.020
 1782BOLB   NC142745  23.100  23.850   7.560
 1782BOLB   PO142746  23.510  23.760   7.510
 1782BOLB   GL142747  23.890  23.710   7.470
 1782BOLB   GL242748  23.840  23.510   7.140
 1782BOLB   C1A42749  24.350  23.660   7.320
 1782BOLB   C2A42750  24.700  23.970   7.190
 1782BOLB   C3A42751  24.880  24.060   6.720
 1782BOLB   C4A42752  25.040  24.150   6.370
 1782BOLB   C1B42753  24.030  23.680   6.830
 1782BOLB   C2B42754  24.520  23.690   6.690
 1782BOLB   C3B42755  24.790  23.680   6.270
 1782BOLB   C4B42756  24.830  23.880   5.810
 1782BOLB   NC242757  26.940  23.870   4.780
 1782BOLB   PO242758  26.510  23.740   4.890
 1782BOLB   GL342759  26.020  23.650   5.010
 1782BOLB   GL442760  26.070  23.310   5.060
 1782BOLB   C1C42761  25.650  23.610   5.080
 1782BOLB   C2C42762  25.400  23.580   5.470
 1782BOLB   C3C42763  25.290  23.970   5.660
 1782BOLB   C4C42764  25.170  24.210   5.960
 1782BOLB   C1D42765  25.880  23.420   5.530
 1782BOLB   C2D42766  25.760  23.700   5.850
 1782BOLB   C3D42767  25.330  23.770   6.150
 1782BOLB   C4D42768  25.200  23.380   6.320
 1783BOLB   NC142769  20.250  19.990   5.860
 1783BOLB   PO142770  20.180  20.300   5.500
 1783BOLB   GL142771  20.580  20.360   5.250
 1783BOLB   GL242772  20.840  20.180   5.390
 1783BOLB   C1A42773  20.710  20.160   4.830
 1783BOLB   C2A42774  20.780  20.060   4.440
 1783BOLB   C3A42775  20.720  19.810   4.000
 1783BOLB   C4A42776  20.580  19.460   3.960
 1783BOLB   C1B42777  21.120  20.290   5.060
 1783BOLB   C2B42778  21.230  20.040   4.700
 1783BOLB   C3B42779  21.350  20.150   4.310
 1783BOLB   C4B42780  21.210  19.900   4.020
 1783BOLB   NC242781  20.640  19.720   1.560
 1783BOLB   PO242782  20.810  19.470   1.820
 1783BOLB   GL342783  20.920  19.150   2.130
 1783BOLB   GL442784  20.720  18.840   2.080
 1783BOLB   C1C42785  20.760  19.130   2.480
 1783BOLB   C2C42786  20.670  19.400   2.810
 1783BOLB   C3C42787  20.570  19.400   3.200
 1783BOLB   C4C42788  20.500  19.480   3.590
 1783BOLB   C1D42789  20.570  18.600   2.440
 1783BOLB   C2D42790  20.490  18.840   2.890
 1783BOLB   C3D42791  20.330  18.810   3.270
 1783BOLB   C4D42792  19.960  18.840   3.610
 1784BOLB   NC142793  20.730  13.500  14.170
 1784BOLB   PO142794  21.130  13.540  13.810
 1784BOLB   GL142795  21.410  13.290  13.620
 1784BOLB   GL242796  21.570  13.330  13.260
 1784BOLB   C1A42797  21.580  12.960  13.730
 1784BOLB   C2A42798  21.920  12.670  13.910
 1784BOLB   C3A42799  22.270  12.350  13.730
 1784BOLB   C4A42800  22.680  12.310  13.810
 1784BOLB   C1B42801  21.860  13.030  13.300
 1784BOLB   C2B42802  22.180  12.760  13.430
 1784BOLB   C3B42803  22.660  12.700  13.430
 1784BOLB   C4B42804  23.060  12.650  13.410
 1784BOLB   NC242805  23.940  10.210  14.860
 1784BOLB   PO242806  23.550  10.420  14.590
 1784BOLB   GL342807  23.600  10.880  14.480
 1784BOLB   GL442808  23.560  11.050  14.740
 1784BOLB   C1C42809  23.660  11.130  14.160
 1784BOLB   C2C42810  23.680  11.580  14.060
 1784BOLB   C3C42811  23.480  12.070  14.010
 1784BOLB   C4C42812  23.140  12.350  13.940
 1784BOLB   C1D42813  23.340  11.410  14.440
 1784BOLB   C2D42814  23.120  11.820  14.480
 1784BOLB   C3D42815  22.900  12.050  14.220
 1784BOLB   C4D42816  22.890  11.830  13.850
 1785BOLB   NC142817  23.550  17.760  13.090
 1785BOLB   PO142818  23.900  17.570  13.140
 1785BOLB   GL142819  24.180  17.110  13.280
 1785BOLB   GL242820  24.250  16.810  13.060
 1785BOLB   C1A42821  24.530  16.940  13.420
 1785BOLB   C2A42822  24.990  16.690  13.490
 1785BOLB   C3A42823  25.130  16.320  13.200
 1785BOLB   C4A42824  25.270  15.890  13.050
 1785BOLB   C1B42825  24.480  16.690  12.690
 1785BOLB   C2B42826  24.940  16.530  12.630
 1785BOLB   C3B42827  25.360  16.410  12.590
 1785BOLB   C4B42828  25.590  16.070  12.630
 1785BOLB   NC242829  27.720  14.770  11.720
 1785BOLB   PO242830  27.320  14.610  12.010
 1785BOLB   GL342831  27.070  14.890  12.250
 1785BOLB   GL442832  26.720  14.860  12.210
 1785BOLB   C1C42833  26.900  15.290  12.430
 1785BOLB   C2C42834  26.450  15.390  12.430
 1785BOLB   C3C42835  25.980  15.520  12.620
 1785BOLB   C4C42836  25.620  15.570  12.820
 1785BOLB   C1D42837  26.380  15.270  11.950
 1785BOLB   C2D42838  26.030  15.540  11.760
 1785BOLB   C3D42839  25.680  15.940  11.990
 1785BOLB   C4D42840  25.580  16.340  12.090
 1786BOLB   NC142841  26.300  25.160  14.520
 1786BOLB   PO142842  26.380  24.910  14.820
 1786BOLB   GL142843  26.740  25.320  14.690
 1786BOLB   GL242844  26.870  25.400  15.030
 1786BOLB   C1A42845  27.210  25.390  14.640
 1786BOLB   C2A42846  27.600  25.100  14.720
 1786BOLB   C3A42847  27.950  25.130  14.540
 1786BOLB   C4A42848  28.360  25.030  14.330
 1786BOLB   C1B42849  27.200  25.710  15.080
 1786BOLB   C2B42850  27.590  25.560  14.920
 1786BOLB   C3B42851  27.960  25.250  15.120
 1786BOLB   C4B42852  28.320  25.190  14.800
 1786BOLB   NC242853  30.550  23.660  15.070
 1786BOLB   PO242854  30.300  24.040  15.090
 1786BOLB   GL342855  29.930  24.150  15.260
 1786BOLB   GL442856  30.060  24.500  15.270
 1786BOLB   C1C42857  29.560  24.460  15.360
 1786BOLB   C2C42858  29.240  24.500  15.010
 1786BOLB   C3C42859  28.980  24.580  14.730
 1786BOLB   C4C42860  28.660  24.720  14.510
 1786BOLB   C1D42861  29.850  24.480  14.840
 1786BOLB   C2D42862  29.520  24.580  14.510
 1786BOLB   C3D42863  29.150  24.740  14.320
 1786BOLB   C4D42864  28.750  24.870  14.070
 1787BOLB   NC142865  25.380  25.010  11.720
 1787BOLB   PO142866  25.690  24.870  11.410
 1787BOLB   GL142867  26.090  24.660  11.410
 1787BOLB   GL242868  26.290  24.810  11.650
 1787BOLB   C1A42869  26.570  24.650  11.230
 1787BOLB   C2A42870  26.950  24.880  11.110
 1787BOLB   C3A42871  27.380  24.990  11.150
 1787BOLB   C4A42872  27.700  24.730  11.050
 1787BOLB   C1B42873  26.640  25.030  11.530
 1787BOLB   C2B42874  26.890  25.330  11.310
 1787BOLB   C3B42875  27.200  25.440  11.040
 1787BOLB   C4B42876  27.360  25.720  10.710
 1787BOLB   NC242877  29.910  26.070  10.210
 1787BOLB   PO242878  29.710  25.620   9.860
 1787BOLB   GL342879  29.410  25.350  10.090
 1787BOLB   GL442880  29.440  25.270  10.420
 1787BOLB   C1C42881  28.990  25.170  10.120
 1787BOLB   C2C42882  28.750  25.140  10.550
 1787BOLB   C3C42883  28.460  24.880  10.800
 1787BOLB   C4C42884  28.120  24.610  10.970
 1787BOLB   C1D42885  29.250  24.860  10.580
 1787BOLB   C2D42886  28.890  24.660  10.770
 1787BOLB   C3D42887  28.590  24.400  10.650
 1787BOLB   C4D42888  28.250  24.130  10.840
 1788BOLB   NC142889  22.320  13.800   4.400
 1788BOLB   PO142890  22.470  13.730   4.730
 1788BOLB   GL142891  22.270  13.860   5.070
 1788BOLB   GL242892  22.280  13.710   5.290
 1788BOLB   C1A42893  22.060  14.310   5.170
 1788BOLB   C2A42894  21.850  14.510   5.570
 1788BOLB   C3A42895  21.770  14.600   5.970
 1788BOLB   C4A42896  21.930  14.770   6.300
 1788BOLB   C1B42897  22.010  14.000   5.640
 1788BOLB   C2B42898  22.020  14.160   5.990
 1788BOLB   C3B42899  21.730  14.280   6.390
 1788BOLB   C4B42900  21.540  14.450   6.720
 1788BOLB   NC242901  23.650  14.280   4.970
 1788BOLB   PO242902  24.000  14.580   5.200
 1788BOLB   GL342903  23.820  14.810   5.570
 1788BOLB   GL442904  23.950  15.020   5.840
 1788BOLB   C1C42905  23.400  14.900   5.690
 1788BOLB   C2C42906  23.180  15.000   6.090
 1788BOLB   C3C42907  22.790  15.210   6.130
 1788BOLB   C4C42908  22.290  15.160   6.280
 1788BOLB   C1D42909  23.710  15.190   6.200
 1788BOLB   C2D42910  23.600  15.200   6.560
 1788BOLB   C3D42911  23.390  15.420   6.900
 1788BOLB   C4D42912  23.390  15.610   7.380
 1789BOLB   NC142913  29.920  25.680  18.140
 1789BOLB   PO142914  29.860  25.370  17.760
 1789BOLB   GL142915  29.580  25.220  17.380
 1789BOLB   GL242916  29.540  24.870  17.160
 1789BOLB   C1A42917  29.210  25.320  17.190
 1789BOLB   C2A42918  28.940  25.010  17.000
 1789BOLB   C3A42919  28.650  24.780  16.710
 1789BOLB   C4A42920  28.560  24.610  16.360
 1789BOLB   C1B42921  29.390  24.840  16.720
 1789BOLB   C2B42922  29.080  25.000  16.340
 1789BOLB   C3B42923  28.620  25.180  16.200
 1789BOLB   C4B42924  28.380  25.460  16.340
 1789BOLB   NC242925  30.400  25.250  17.000
 1789BOLB   PO242926  30.180  25.600  16.580
 1789BOLB   GL342927  29.920  25.270  16.640
 1789BOLB   GL442928  29.790  25.270  16.890
 1789BOLB   C1C42929  29.720  24.980  16.370
 1789BOLB   C2C42930  29.610  24.540  16.290
 1789BOLB   C3C42931  29.270  24.310  16.220
 1789BOLB   C4C42932  28.800  24.500  16.110
 1789BOLB   C1D42933  29.600  25.690  17.200
 1789BOLB   C2D42934  29.320  26.040  17.060
 1789BOLB   C3D42935  29.020  26.360  17.140
 1789BOLB   C4D42936  28.890  26.800  17.060
 1790BOLB   NC142937  19.240  12.840  15.020
 1790BOLB   PO142938  18.830  12.610  14.720
 1790BOLB   GL142939  18.850  12.230  14.920
 1790BOLB   GL242940  18.900  12.410  15.140
 1790BOLB   C1A42941  19.060  11.780  14.870
 1790BOLB   C2A42942  19.170  11.300  14.960
 1790BOLB   C3A42943  19.430  11.160  15.280
 1790BOLB   C4A42944  19.830  11.070  15.540
 1790BOLB   C1B42945  19.150  12.040  15.250
 1790BOLB   C2B42946  19.050  11.840  15.660
 1790BOLB   C3B42947  19.060  11.630  15.960
 1790BOLB   C4B42948  18.990  11.310  16.270
 1790BOLB   NC242949  21.070  10.050  17.420
 1790BOLB   PO242950  20.800   9.850  16.980
 1790BOLB   GL342951  20.700  10.200  16.760
 1790BOLB   GL442952  20.640  10.100  16.460
 1790BOLB   C1C42953  20.660  10.580  16.740
 1790BOLB   C2C42954  20.370  10.560  16.470
 1790BOLB   C3C42955  20.150  10.600  16.070
 1790BOLB   C4C42956  19.890  10.760  15.910
 1790BOLB   C1D42957  20.530  10.280  15.970
 1790BOLB   C2D42958  20.270  10.240  15.650
 1790BOLB   C3D42959  19.900  10.390  15.430
 1790BOLB   C4D42960  19.620  10.630  15.320
 1791BOLB   NC142961  24.420  18.010  14.680
 1791BOLB   PO142962  24.670  17.690  14.780
 1791BOLB   GL142963  24.770  17.280  14.840
 1791BOLB   GL242964  24.670  17.210  15.190
 1791BOLB   C1A42965  25.040  16.990  14.840
 1791BOLB   C2A42966  25.510  16.770  14.760
 1791BOLB   C3A42967  25.860  16.490  14.850
 1791BOLB   C4A42968  26.290  16.310  14.770
 1791BOLB   C1B42969  24.960  16.860  15.310
 1791BOLB   C2B42970  25.160  16.630  15.510
 1791BOLB   C3B42971  25.510  16.610  15.710
 1791BOLB   C4B42972  25.920  16.650  15.830
 1791BOLB   NC242973  28.830  16.560  14.020
 1791BOLB   PO242974  28.480  16.780  14.000
 1791BOLB   GL342975  28.140  16.750  13.960
 1791BOLB   GL442976  28.160  17.170  13.930
 1791BOLB   C1C42977  27.820  16.490  13.830
 1791BOLB   C2C42978  27.320  16.470  13.860
 1791BOLB   C3C42979  26.870  16.340  14.070
 1791BOLB   C4C42980  26.620  16.350  14.500
 1791BOLB   C1D42981  28.060  17.490  14.210
 1791BOLB   C2D42982  27.960  17.660  14.530
 1791BOLB   C3D42983  27.520  17.870  14.610
 1791BOLB   C4D42984  27.400  18.220  14.780
 1792BOLB   NC142985  16.230  11.800  13.830
 1792BOLB   PO142986  16.730  11.790  13.760
 1792BOLB   GL142987  17.010  11.450  13.630
 1792BOLB   GL242988  16.990  11.280  13.340
 1792BOLB   C1A42989  17.160  11.010  13.740
 1792BOLB   C2A42990  17.420  10.610  13.670
 1792BOLB   C3A42991  17.540  10.200  13.810
 1792BOLB   C4A42992  17.650   9.860  13.700
 1792BOLB   C1B42993  16.900  10.920  13.220
 1792BOLB   C2B42994  16.830  10.580  13.380
 1792BOLB   C3B42995  16.750  10.130  13.390
 1792BOLB   C4B42996  16.490   9.860  13.600
 1792BOLB   NC242997  17.050   7.920  13.730
 1792BOLB   PO242998  17.040   7.800  14.100
 1792BOLB   GL342999  17.320   8.080  14.190
 1792BOLB   GL443000  17.070   8.250  14.270
 1792BOLB   C1C43001  17.530   8.480  14.050
 1792BOLB   C2C43002  17.830   8.730  14.000
 1792BOLB   C3C43003  17.840   9.070  13.900
 1792BOLB   C4C43004  17.610   9.540  13.750
 1792BOLB   C1D43005  17.050   8.630  14.170
 1792BOLB   C2D43006  16.900   9.050  14.170
 1792BOLB   C3D43007  16.980   9.360  14.330
 1792BOLB   C4D43008  17.280   9.650  14.180
 1793BOLB   NC143009  21.310  14.450  12.530
 1793BOLB   PO143010  21.610  14.050  12.580
 1793BOLB   GL143011  21.760  13.550  12.520
 1793BOLB   GL243012  21.470  13.440  12.570
 1793BOLB   C1A43013  22.050  13.160  12.460
 1793BOLB   C2A43014  22.240  12.710  12.500
 1793BOLB   C3A43015  22.600  12.400  12.510
 1793BOLB   C4A43016  23.020  12.330  12.590
 1793BOLB   C1B43017  21.690  13.180  12.870
 1793BOLB   C2B43018  21.760  12.790  12.890
 1793BOLB   C3B43019  21.950  12.470  13.010
 1793BOLB   C4B43020  21.830  11.990  12.920
 1793BOLB   NC243021  25.930  11.970  12.920
 1793BOLB   PO243022  25.550  12.160  13.110
 1793BOLB   GL343023  25.050  12.180  13.150
 1793BOLB   GL443024  24.900  12.020  12.920
 1793BOLB   C1C43025  24.620  12.320  13.190
 1793BOLB   C2C43026  24.280  12.610  12.950
 1793BOLB   C3C43027  23.800  12.730  12.870
 1793BOLB   C4C43028  23.360  12.560  12.670
 1793BOLB   C1D43029  24.680  12.380  12.620
 1793BOLB   C2D43030  24.560  12.840  12.560
 1793BOLB   C3D43031  24.420  13.020  12.420
 1793BOLB   C4D43032  23.990  13.250  12.270
 1794BOLB   NC143033  30.230  26.180  16.730
 1794BOLB   PO143034  29.990  26.430  16.870
 1794BOLB   GL143035  29.690  26.220  16.530
 1794BOLB   GL243036  29.600  26.200  16.180
 1794BOLB   C1A43037  29.360  25.950  16.620
 1794BOLB   C2A43038  29.000  26.040  16.480
 1794BOLB   C3A43039  28.620  25.970  16.290
 1794BOLB   C4A43040  28.430  25.950  15.790
 1794BOLB   C1B43041  29.220  26.100  16.000
 1794BOLB   C2B43042  28.940  26.050  15.730
 1794BOLB   C3B43043  28.790  26.270  15.510
 1794BOLB   C4B43044  28.650  26.760  15.660
 1794BOLB   NC243045  29.810  26.020  15.660
 1794BOLB   PO243046  30.080  25.910  15.210
 1794BOLB   GL343047  29.730  25.890  15.120
 1794BOLB   GL443048  29.590  26.160  15.220
 1794BOLB   C1C43049  29.310  25.730  14.870
 1794BOLB   C2C43050  28.910  25.680  14.780
 1794BOLB   C3C43051  28.530  25.990  14.840
 1794BOLB   C4C43052  28.370  25.960  15.340
 1794BOLB   C1D43053  29.190  26.050  15.250
 1794BOLB   C2D43054  28.860  25.830  15.250
 1794BOLB   C3D43055  28.510  25.520  15.160
 1794BOLB   C4D43056  28.160  25.680  14.910
 1795BOLB   NC143057  30.210  23.580  17.930
 1795BOLB   PO143058  30.230  23.960  18.030
 1795BOLB   GL143059  29.940  23.910  17.640
 1795BOLB   GL243060  30.090  23.890  17.350
 1795BOLB   C1A43061  29.560  23.800  17.580
 1795BOLB   C2A43062  29.170  23.610  17.400
 1795BOLB   C3A43063  28.770  23.370  17.370
 1795BOLB   C4A43064  28.460  23.700  17.230
 1795BOLB   C1B43065  29.680  23.950  17.160
 1795BOLB   C2B43066  29.300  23.960  16.950
 1795BOLB   C3B43067  28.920  23.970  17.150
 1795BOLB   C4B43068  28.930  24.230  17.490
 1795BOLB   NC243069  30.370  24.340  17.620
 1795BOLB   PO243070  30.390  24.570  17.170
 1795BOLB   GL343071  30.090  24.290  17.070
 1795BOLB   GL443072  29.880  24.420  17.410
 1795BOLB   C1C43073  29.700  24.450  16.790
 1795BOLB   C2C43074  29.240  24.370  16.690
 1795BOLB   C3C43075  28.830  24.230  16.730
 1795BOLB   C4C43076  28.450  24.100  16.960
 1795BOLB   C1D43077  29.400  24.350  17.230
 1795BOLB   C2D43078  29.040  24.540  17.100
 1795BOLB   C3D43079  28.650  24.610  17.230
 1795BOLB   C4D43080  28.420  24.940  17.130
 1796BOLB   NC143081  21.550   9.740  16.420
 1796BOLB   PO143082  21.230   9.520  16.090
 1796BOLB   GL143083  21.070   9.980  16.080
 1796BOLB   GL243084  21.320  10.190  16.250
 1796BOLB   C1A43085  20.930  10.440  15.780
 1796BOLB   C2A43086  21.050  10.670  15.450
 1796BOLB   C3A43087  20.750  11.150  15.380
 1796BOLB   C4A43088  20.320  11.250  15.490
 1796BOLB   C1B43089  20.920  10.440  16.300
 1796BOLB   C2B43090  20.660  10.760  16.090
 1796BOLB   C3B43091  20.540  10.730  15.730
 1796BOLB   C4B43092  20.190  10.770  15.550
 1796BOLB   NC243093  21.450  10.290  17.240
 1796BOLB   PO243094  21.350  10.390  17.650
 1796BOLB   GL343095  21.190  10.740  17.320
 1796BOLB   GL443096  21.300  10.980  17.400
 1796BOLB   C1C43097  20.880  10.970  16.950
 1796BOLB   C2C43098  20.500  11.060  16.580
 1796BOLB   C3C43099  20.190  11.050  16.300
 1796BOLB   C4C43100  20.210  11.120  15.870
 1796BOLB   C1D43101  21.470  11.500  17.540
 1796BOLB   C2D43102  21.520  11.940  17.870
 1796BOLB   C3D43103  21.710  12.320  17.620
 1796BOLB   C4D43104  21.700  12.680  17.490
 1797BOLB   NC143105  27.920  24.290   5.810
 1797BOLB   PO143106  27.930  24.640   6.170
 1797BOLB   GL143107  27.620  24.540   6.620
 1797BOLB   GL243108  27.630  24.200   6.780
 1797BOLB   C1A43109  27.270  24.580   6.880
 1797BOLB   C2A43110  26.840  24.600   6.940
 1797BOLB   C3A43111  26.360  24.460   7.150
 1797BOLB   C4A43112  25.950  24.690   7.060
 1797BOLB   C1B43113  27.180  23.930   7.010
 1797BOLB   C2B43114  27.090  23.760   7.480
 1797BOLB   C3B43115  26.710  23.870   7.750
 1797BOLB   C4B43116  26.240  23.660   7.770
 1797BOLB   NC243117  26.950  26.340   6.020
 1797BOLB   PO243118  26.670  26.020   5.670
 1797BOLB   GL343119  26.280  25.850   5.740
 1797BOLB   GL443120  26.070  25.640   5.670
 1797BOLB   C1C43121  25.810  25.870   6.070
 1797BOLB   C2C43122  25.690  25.720   6.470
 1797BOLB   C3C43123  25.570  25.380   6.670
 1797BOLB   C4C43124  25.670  25.050   7.010
 1797BOLB   C1D43125  26.270  25.460   6.060
 1797BOLB   C2D43126  26.250  25.610   6.360
 1797BOLB   C3D43127  26.160  25.930   6.690
 1797BOLB   C4D43128  26.200  26.000   7.070
 1798BOLB   NC143129  22.040  15.330  16.310
 1798BOLB   PO143130  21.650  15.170  16.270
 1798BOLB   GL143131  21.890  14.720  16.360
 1798BOLB   GL243132  21.590  14.550  16.470
 1798BOLB   C1A43133  22.120  14.500  16.720
 1798BOLB   C2A43134  22.190  14.310  17.070
 1798BOLB   C3A43135  22.300  14.030  17.060
 1798BOLB   C4A43136  22.250  13.800  17.480
 1798BOLB   C1B43137  21.820  14.120  16.350
 1798BOLB   C2B43138  22.230  13.900  16.550
 1798BOLB   C3B43139  22.620  13.580  16.670
 1798BOLB   C4B43140  22.680  13.490  17.160
 1798BOLB   NC243141  23.430  11.610  17.380
 1798BOLB   PO243142  23.350  11.590  17.740
 1798BOLB   GL343143  23.000  11.920  17.660
 1798BOLB   GL443144  22.980  11.830  17.310
 1798BOLB   C1C43145  22.920  12.320  17.800
 1798BOLB   C2C43146  22.780  12.690  17.550
 1798BOLB   C3C43147  22.740  13.150  17.520
 1798BOLB   C4C43148  22.600  13.620  17.630
 1798BOLB   C1D43149  22.810  11.930  16.990
 1798BOLB   C2D43150  22.520  12.340  16.900
 1798BOLB   C3D43151  22.400  12.670  16.650
 1798BOLB   C4D43152  22.430  12.740  16.270
 1799BOLB   NC143153  18.050  15.700   6.480
 1799BOLB   PO143154  17.650  15.600   6.350
 1799BOLB   GL143155  17.830  15.270   6.050
 1799BOLB   GL243156  17.780  14.920   6.160
 1799BOLB   C1A43157  17.950  15.080   5.650
 1799BOLB   C2A43158  18.170  14.760   5.510
 1799BOLB   C3A43159  18.130  14.400   5.340
 1799BOLB   C4A43160  18.410  14.260   5.190
 1799BOLB   C1B43161  18.190  14.900   6.110
 1799BOLB   C2B43162  18.500  14.760   5.850
 1799BOLB   C3B43163  18.700  14.430   5.580
 1799BOLB   C4B43164  18.890  14.070   5.380
 1799BOLB   NC243165  20.050  12.230   4.640
 1799BOLB   PO243166  20.040  12.480   4.210
 1799BOLB   GL343167  20.040  12.820   4.440
 1799BOLB   GL443168  20.330  13.070   4.500
 1799BOLB   C1C43169  19.830  13.220   4.570
 1799BOLB   C2C43170  19.350  13.480   4.630
 1799BOLB   C3C43171  19.030  13.760   4.650
 1799BOLB   C4C43172  18.720  14.040   4.910
 1799BOLB   C1D43173  20.110  12.930   4.910
 1799BOLB   C2D43174  20.120  13.250   5.290
 1799BOLB   C3D43175  20.170  13.500   5.660
 1799BOLB   C4D43176  20.370  13.430   6.030
 1800BOLB   NC143177  18.280  12.840  15.690
 1800BOLB   PO143178  17.880  12.950  15.540
 1800BOLB   GL143179  17.800  12.570  15.860
 1800BOLB   GL243180  17.760  12.560  16.250
 1800BOLB   C1A43181  17.850  12.110  16.040
 1800BOLB   C2A43182  17.950  11.680  15.890
 1800BOLB   C3A43183  17.990  11.250  15.860
 1800BOLB   C4A43184  17.840  10.840  15.910
 1800BOLB   C1B43185  17.670  12.250  16.590
 1800BOLB   C2B43186  17.930  11.870  16.750
 1800BOLB   C3B43187  18.070  11.480  17.120
 1800BOLB   C4B43188  18.150  10.960  17.260
 1800BOLB   NC243189  17.660   8.210  15.920
 1800BOLB   PO243190  18.110   8.420  16.160
 1800BOLB   GL343191  18.040   8.840  16.260
 1800BOLB   GL443192  17.950   8.900  15.920
 1800BOLB   C1C43193  18.110   9.300  16.330
 1800BOLB   C2C43194  18.080   9.680  16.270
 1800BOLB   C3C43195  18.020  10.060  16.260
 1800BOLB   C4C43196  18.040  10.510  16.210
 1800BOLB   C1D43197  18.210   9.130  15.780
 1800BOLB   C2D43198  18.290   9.180  15.440
 1800BOLB   C3D43199  18.110   9.380  15.050
 1800BOLB   C4D43200  17.940   9.740  14.740
 1801BOLB   NC143201  23.310  21.040   8.830
 1801BOLB   PO143202  23.730  20.860   8.560
 1801BOLB   GL143203  24.100  20.690   8.360
 1801BOLB   GL243204  24.410  20.760   8.390
 1801BOLB   C1A43205  24.440  20.400   8.130
 1801BOLB   C2A43206  24.820  20.360   7.910
 1801BOLB   C3A43207  25.130  20.010   7.590
 1801BOLB   C4A43208  25.080  19.680   7.330
 1801BOLB   C1B43209  24.720  20.830   8.280
 1801BOLB   C2B43210  25.230  20.800   8.400
 1801BOLB   C3B43211  25.580  20.610   8.340
 1801BOLB   C4B43212  26.050  20.270   8.320
 1801BOLB   NC243213  26.700  19.590   5.640
 1801BOLB   PO243214  26.880  19.200   5.970
 1801BOLB   GL343215  26.480  19.260   6.140
 1801BOLB   GL443216  26.150  18.940   6.100
 1801BOLB   C1C43217  26.040  19.380   6.180
 1801BOLB   C2C43218  25.660  19.190   6.390
 1801BOLB   C3C43219  25.240  19.250   6.700
 1801BOLB   C4C43220  24.970  19.410   7.090
 1801BOLB   C1D43221  26.010  18.860   6.500
 1801BOLB   C2D43222  25.590  18.950   6.780
 1801BOLB   C3D43223  25.370  18.920   7.080
 1801BOLB   C4D43224  25.240  19.080   7.360
 1802BOLB   NC143225  24.610  25.440   9.650
 1802BOLB   PO143226  24.370  25.420   9.330
 1802BOLB   GL143227  24.690  25.440   8.980
 1802BOLB   GL243228  24.600  25.470   8.740
 1802BOLB   C1A43229  25.090  25.540   8.830
 1802BOLB   C2A43230  25.270  25.860   9.050
 1802BOLB   C3A43231  25.640  26.020   8.810
 1802BOLB   C4A43232  26.110  26.000   8.590
 1802BOLB   C1B43233  24.760  25.890   8.650
 1802BOLB   C2B43234  25.070  26.130   8.710
 1802BOLB   C3B43235  25.440  26.400   8.530
 1802BOLB   C4B43236  25.780  26.280   8.320
 1802BOLB   NC243237  28.100  26.520   6.920
 1802BOLB   PO243238  28.240  26.320   7.360
 1802BOLB   GL343239  27.900  26.470   7.360
 1802BOLB   GL443240  27.860  26.740   7.480
 1802BOLB   C1C43241  27.680  26.450   7.820
 1802BOLB   C2C43242  27.440  26.300   8.270
 1802BOLB   C3C43243  26.980  26.270   8.430
 1802BOLB   C4C43244  26.560  25.970   8.390
 1802BOLB   C1D43245  27.410  26.740   7.500
 1802BOLB   C2D43246  27.030  27.020   7.590
 1802BOLB   C3D43247  26.670  27.110   7.890
 1802BOLB   C4D43248  26.310  26.970   8.250
 1803BOLB   NC143249  27.300  31.010  13.730
 1803BOLB   PO143250  26.950  31.320  13.830
 1803BOLB   GL143251  26.880  30.960  14.040
 1803BOLB   GL243252  27.040  30.620  14.110
 1803BOLB   C1A43253  26.540  30.620  14.170
 1803BOLB   C2A43254  26.150  30.430  14.190
 1803BOLB   C3A43255  25.990  30.020  14.370
 1803BOLB   C4A43256  25.900  29.810  14.820
 1803BOLB   C1B43257  26.900  30.470  14.480
 1803BOLB   C2B43258  26.820  30.380  14.830
 1803BOLB   C3B43259  27.100  30.160  15.100
 1803BOLB   C4B43260  27.290  29.830  15.430
 1803BOLB   NC243261  26.570  31.350  14.950
 1803BOLB   PO243262  26.310  31.730  15.090
 1803BOLB   GL343263  26.120  31.320  15.320
 1803BOLB   GL443264  26.150  31.050  14.970
 1803BOLB   C1C43265  25.850  31.110  15.550
 1803BOLB   C2C43266  25.820  30.640  15.600
 1803BOLB   C3C43267  25.730  30.380  15.230
 1803BOLB   C4C43268  25.740  29.970  15.120
 1803BOLB   C1D43269  25.740  30.900  14.960
 1803BOLB   C2D43270  25.420  30.650  14.900
 1803BOLB   C3D43271  25.200  30.290  14.840
 1803BOLB   C4D43272  24.900  29.990  15.050
 1804BOLB   NC143273  22.770  32.720   8.410
 1804BOLB   PO143274  22.520  32.710   8.670
 1804BOLB   GL143275  22.630  32.420   8.960
 1804BOLB   GL243276  22.360  32.370   9.140
 1804BOLB   C1A43277  22.850  32.080   9.160
 1804BOLB   C2A43278  22.910  31.980   9.660
 1804BOLB   C3A43279  22.790  31.720  10.030
 1804BOLB   C4A43280  22.500  31.650  10.330
 1804BOLB   C1B43281  22.180  32.070   9.410
 1804BOLB   C2B43282  22.000  31.770   9.340
 1804BOLB   C3B43283  21.640  31.570   9.270
 1804BOLB   C4B43284  21.280  31.560   9.180
 1804BOLB   NC243285  22.390  33.580  11.440
 1804BOLB   PO243286  22.030  33.500  11.080
 1804BOLB   GL343287  22.100  33.150  11.290
 1804BOLB   GL443288  22.350  32.990  11.130
 1804BOLB   C1C43289  21.850  32.730  11.310
 1804BOLB   C2C43290  21.980  32.390  11.210
 1804BOLB   C3C43291  22.140  32.110  10.950
 1804BOLB   C4C43292  22.310  31.810  10.660
 1804BOLB   C1D43293  22.350  32.660  10.900
 1804BOLB   C2D43294  22.320  32.360  10.570
 1804BOLB   C3D43295  22.490  32.190  10.220
 1804BOLB   C4D43296  22.470  32.230   9.810
 1805BOLB   NC143297  21.310  17.350   7.060
 1805BOLB   PO143298  21.650  17.530   7.280
 1805BOLB   GL143299  21.940  17.290   7.060
 1805BOLB   GL243300  21.890  17.030   7.300
 1805BOLB   C1A43301  22.290  16.950   7.020
 1805BOLB   C2A43302  22.620  16.660   6.860
 1805BOLB   C3A43303  23.050  16.550   6.900
 1805BOLB   C4A43304  23.520  16.360   6.590
 1805BOLB   C1B43305  22.080  16.540   7.140
 1805BOLB   C2B43306  22.330  16.280   6.750
 1805BOLB   C3B43307  22.520  16.050   6.400
 1805BOLB   C4B43308  22.720  15.760   6.260
 1805BOLB   NC243309  24.700  15.300   5.680
 1805BOLB   PO243310  24.740  14.820   5.900
 1805BOLB   GL343311  24.460  15.190   6.140
 1805BOLB   GL443312  24.140  15.240   6.380
 1805BOLB   C1C43313  24.600  15.510   6.360
 1805BOLB   C2C43314  24.380  15.790   6.510
 1805BOLB   C3C43315  24.300  16.080   6.830
 1805BOLB   C4C43316  23.980  16.340   6.600
 1805BOLB   C1D43317  24.050  15.570   6.790
 1805BOLB   C2D43318  23.790  15.880   6.890
 1805BOLB   C3D43319  23.420  15.980   7.040
 1805BOLB   C4D43320  22.980  16.090   7.030
 1806BOLB   NC143321  22.420  14.790  13.540
 1806BOLB   PO143322  22.430  14.870  14.010
 1806BOLB   GL143323  22.500  14.390  13.990
 1806BOLB   GL243324  22.270  14.200  14.210
 1806BOLB   C1A43325  22.770  14.170  13.790
 1806BOLB   C2A43326  23.000  13.710  13.890
 1806BOLB   C3A43327  23.260  13.400  13.950
 1806BOLB   C4A43328  23.510  13.080  14.140
 1806BOLB   C1B43329  22.550  13.860  14.190
 1806BOLB   C2B43330  22.850  13.630  14.370
 1806BOLB   C3B43331  23.240  13.370  14.490
 1806BOLB   C4B43332  23.310  12.970  14.650
 1806BOLB   NC243333  24.650  11.830  14.520
 1806BOLB   PO243334  24.540  11.390  14.430
 1806BOLB   GL343335  24.160  11.570  14.270
 1806BOLB   GL443336  24.090  11.280  13.930
 1806BOLB   C1C43337  24.040  11.970  14.330
 1806BOLB   C2C43338  23.980  12.350  14.660
 1806BOLB   C3C43339  23.850  12.660  14.600
 1806BOLB   C4C43340  23.790  12.980  14.400
 1806BOLB   C1D43341  24.030  11.600  13.710
 1806BOLB   C2D43342  23.860  11.870  13.420
 1806BOLB   C3D43343  23.600  12.250  13.460
 1806BOLB   C4D43344  23.570  12.630  13.920
 1807BOLB   NC143345  18.130  14.590   7.130
 1807BOLB   PO143346  18.330  14.630   7.630
 1807BOLB   GL143347  18.580  14.460   7.260
 1807BOLB   GL243348  18.580  14.170   7.190
 1807BOLB   C1A43349  18.800  14.630   6.880
 1807BOLB   C2A43350  19.150  14.510   6.580
 1807BOLB   C3A43351  19.290  14.190   6.500
 1807BOLB   C4A43352  19.710  14.040   6.490
 1807BOLB   C1B43353  18.860  13.830   6.910
 1807BOLB   C2B43354  18.980  13.730   6.570
 1807BOLB   C3B43355  18.860  13.490   6.170
 1807BOLB   C4B43356  18.780  13.300   5.760
 1807BOLB   NC243357  21.600  12.640   5.190
 1807BOLB   PO243358  21.190  12.730   4.990
 1807BOLB   GL343359  20.870  13.040   5.210
 1807BOLB   GL443360  20.540  12.900   5.180
 1807BOLB   C1C43361  20.760  13.520   5.270
 1807BOLB   C2C43362  20.600  13.870   5.470
 1807BOLB   C3C43363  20.330  14.030   5.810
 1807BOLB   C4C43364  19.980  13.910   6.170
 1807BOLB   C1D43365  20.570  13.220   5.600
 1807BOLB   C2D43366  20.820  13.530   5.860
 1807BOLB   C3D43367  20.620  13.800   6.140
 1807BOLB   C4D43368  20.570  14.260   6.270
 1808BOLB   NC143369  24.690  18.390  10.860
 1808BOLB   PO143370  24.990  18.710  10.640
 1808BOLB   GL143371  24.950  18.340  10.440
 1808BOLB   GL243372  25.140  18.200  10.800
 1808BOLB   C1A43373  25.240  17.960  10.360
 1808BOLB   C2A43374  25.580  17.840  10.620
 1808BOLB   C3A43375  25.830  17.750  10.890
 1808BOLB   C4A43376  26.200  17.650  11.160
 1808BOLB   C1B43377  25.570  18.350  10.600
 1808BOLB   C2B43378  25.990  18.240  10.500
 1808BOLB   C3B43379  26.170  18.400  10.210
 1808BOLB   C4B43380  26.240  18.470   9.830
 1808BOLB   NC243381  28.440  16.810  10.850
 1808BOLB   PO243382  28.520  17.030  10.500
 1808BOLB   GL343383  28.030  17.070  10.600
 1808BOLB   GL443384  27.860  16.830  10.620
 1808BOLB   C1C43385  27.730  17.360  10.700
 1808BOLB   C2C43386  27.370  17.580  10.960
 1808BOLB   C3C43387  27.040  17.780  11.100
 1808BOLB   C4C43388  26.590  17.620  11.240
 1808BOLB   C1D43389  27.490  16.940  10.860
 1808BOLB   C2D43390  27.160  17.130  10.850
 1808BOLB   C3D43391  26.970  17.370  10.680
 1808BOLB   C4D43392  26.630  17.650  10.580
 1809BOLB   NC143393  16.700  24.640   5.900
 1809BOLB   PO143394  16.410  24.270   5.790
 1809BOLB   GL143395  16.360  24.490   5.390
 1809BOLB   GL243396  16.490  24.780   5.480
 1809BOLB   C1A43397  16.670  24.550   5.110
 1809BOLB   C2A43398  16.850  24.750   4.790
 1809BOLB   C3A43399  17.270  24.820   4.550
 1809BOLB   C4A43400  17.410  24.710   4.090
 1809BOLB   C1B43401  16.750  25.060   5.200
 1809BOLB   C2B43402  16.680  25.190   4.670
 1809BOLB   C3B43403  16.700  24.930   4.310
 1809BOLB   C4B43404  16.440  24.610   4.240
 1809BOLB   NC243405  16.750  25.540   1.660
 1809BOLB   PO243406  16.910  25.610   2.060
 1809BOLB   GL343407  16.910  25.590   2.510
 1809BOLB   GL443408  16.870  25.380   2.690
 1809BOLB   C1C43409  17.320  25.640   2.820
 1809BOLB   C2C43410  17.530  25.400   3.080
 1809BOLB   C3C43411  17.630  25.170   3.470
 1809BOLB   C4C43412  17.560  24.880   3.690
 1809BOLB   C1D43413  16.840  25.300   3.130
 1809BOLB   C2D43414  16.670  25.340   3.590
 1809BOLB   C3D43415  16.510  25.530   3.930
 1809BOLB   C4D43416  16.330  25.870   4.270
 1810BOLB   NC143417  25.200  23.160  17.670
 1810BOLB   PO143418  25.160  22.810  17.970
 1810BOLB   GL143419  25.340  23.030  18.310
 1810BOLB   GL243420  24.990  22.890  18.500
 1810BOLB   C1A43421  25.420  23.140  18.690
 1810BOLB   C2A43422  25.750  22.850  18.870
 1810BOLB   C3A43423  26.200  22.700  18.920
 1810BOLB   C4A43424  26.510  22.470  18.660
 1810BOLB   C1B43425  25.160  22.730  18.850
 1810BOLB   C2B43426  25.420  22.690  19.220
 1810BOLB   C3B43427  25.840  22.700  19.330
 1810BOLB   C4B43428  26.130  23.100  19.340
 1810BOLB   NC243429  28.950  21.690  19.220
 1810BOLB   PO243430  28.670  21.860  19.530
 1810BOLB   GL343431  28.520  22.010  19.090
 1810BOLB   GL443432  28.470  22.310  19.270
 1810BOLB   C1C43433  28.170  22.080  18.920
 1810BOLB   C2C43434  27.700  22.110  18.780
 1810BOLB   C3C43435  27.360  22.310  18.630
 1810BOLB   C4C43436  26.950  22.450  18.600
 1810BOLB   C1D43437  28.300  22.650  18.970
 1810BOLB   C2D43438  27.960  22.530  18.690
 1810BOLB   C3D43439  27.790  22.390  18.340
 1810BOLB   C4D43440  27.750  22.390  17.900
 1811BOLB   NC143441  21.880  16.320   9.110
 1811BOLB   PO143442  22.120  16.630   9.030
 1811BOLB   GL143443  22.340  16.250   8.740
 1811BOLB   GL243444  22.280  16.390   8.430
 1811BOLB   C1A43445  22.750  16.030   8.580
 1811BOLB   C2A43446  23.060  15.640   8.770
 1811BOLB   C3A43447  23.310  15.480   9.040
 1811BOLB   C4A43448  23.560  15.120   9.000
 1811BOLB   C1B43449  22.450  16.020   8.190
 1811BOLB   C2B43450  22.420  15.570   8.070
 1811BOLB   C3B43451  22.690  15.350   7.860
 1811BOLB   C4B43452  23.120  15.140   7.590
 1811BOLB   NC243453  24.920  13.820   7.640
 1811BOLB   PO243454  25.310  13.980   7.880
 1811BOLB   GL343455  24.900  14.160   7.980
 1811BOLB   GL443456  24.770  14.100   8.360
 1811BOLB   C1C43457  24.810  14.540   8.260
 1811BOLB   C2C43458  24.610  14.720   8.590
 1811BOLB   C3C43459  24.370  14.860   8.900
 1811BOLB   C4C43460  23.920  14.880   9.030
 1811BOLB   C1D43461  24.270  14.050   8.370
 1811BOLB   C2D43462  23.960  13.840   8.110
 1811BOLB   C3D43463  23.610  13.630   8.100
 1811BOLB   C4D43464  23.210  13.860   8.120
 1812BOLB   NC143465  25.810  21.380  13.680
 1812BOLB   PO143466  26.010  21.750  13.580
 1812BOLB   GL143467  26.300  21.520  13.790
 1812BOLB   GL243468  26.510  21.700  13.930
 1812BOLB   C1A43469  26.470  21.100  13.860
 1812BOLB   C2A43470  26.950  20.910  13.940
 1812BOLB   C3A43471  27.150  20.700  13.840
 1812BOLB   C4A43472  27.480  20.560  13.910
 1812BOLB   C1B43473  26.850  21.420  13.830
 1812BOLB   C2B43474  27.290  21.230  13.840
 1812BOLB   C3B43475  27.650  21.140  13.710
 1812BOLB   C4B43476  27.850  20.850  13.660
 1812BOLB   NC243477  29.490  19.390  13.620
 1812BOLB   PO243478  29.380  19.080  13.950
 1812BOLB   GL343479  29.070  19.330  13.980
 1812BOLB   GL443480  28.830  19.460  13.680
 1812BOLB   C1C43481  28.760  19.630  14.230
 1812BOLB   C2C43482  28.410  19.880  14.100
 1812BOLB   C3C43483  27.940  20.050  14.260
 1812BOLB   C4C43484  27.590  20.220  14.080
 1812BOLB   C1D43485  28.650  19.820  13.600
 1812BOLB   C2D43486  28.460  20.150  13.390
 1812BOLB   C3D43487  28.500  20.550  13.440
 1812BOLB   C4D43488  28.390  20.830  13.590
 1813BOLB   NC143489  21.100  26.170   8.060
 1813BOLB   PO143490  20.940  26.610   7.780
 1813BOLB   GL143491  21.140  26.840   7.380
 1813BOLB   GL243492  21.180  26.740   7.140
 1813BOLB   C1A43493  21.320  27.250   7.260
 1813BOLB   C2A43494  21.580  27.650   7.180
 1813BOLB   C3A43495  21.790  27.810   6.900
 1813BOLB   C4A43496  22.130  27.850   6.700
 1813BOLB   C1B43497  20.980  26.920   6.810
 1813BOLB   C2B43498  20.830  27.090   6.490
 1813BOLB   C3B43499  20.640  27.390   6.290
 1813BOLB   C4B43500  20.710  27.650   5.870
 1813BOLB   NC243501  22.250  29.400   4.630
 1813BOLB   PO243502  22.510  29.090   4.530
 1813BOLB   GL343503  22.360  28.900   4.870
 1813BOLB   GL443504  22.220  28.640   4.690
 1813BOLB   C1C43505  22.210  28.910   5.330
 1813BOLB   C2C43506  22.320  28.700   5.730
 1813BOLB   C3C43507  22.390  28.310   6.090
 1813BOLB   C4C43508  22.350  28.090   6.500
 1813BOLB   C1D43509  22.080  28.330   4.820
 1813BOLB   C2D43510  21.860  28.170   5.040
 1813BOLB   C3D43511  21.650  28.200   5.310
 1813BOLB   C4D43512  21.340  28.500   5.290
 1814BOLB   NC143513  23.730  24.140   7.710
 1814BOLB   PO143514  23.370  24.220   7.440
 1814BOLB   GL143515  23.720  24.060   7.150
 1814BOLB   GL243516  23.580  23.850   6.950
 1814BOLB   C1A43517  23.910  24.140   6.620
 1814BOLB   C2A43518  24.010  24.360   6.340
 1814BOLB   C3A43519  24.170  24.320   5.970
 1814BOLB   C4A43520  24.320  24.050   5.590
 1814BOLB   C1B43521  23.670  23.760   6.430
 1814BOLB   C2B43522  23.870  23.900   6.070
 1814BOLB   C3B43523  23.810  23.930   5.610
 1814BOLB   C4B43524  24.010  23.940   5.190
 1814BOLB   NC243525  25.660  24.380   3.410
 1814BOLB   PO243526  25.440  24.700   3.670
 1814BOLB   GL343527  25.120  24.720   3.940
 1814BOLB   GL443528  24.820  24.890   3.950
 1814BOLB   C1C43529  24.850  24.530   4.230
 1814BOLB   C2C43530  24.550  24.470   4.550
 1814BOLB   C3C43531  24.310  24.270   4.830
 1814BOLB   C4C43532  24.490  24.000   5.220
 1814BOLB   C1D43533  24.510  24.560   3.750
 1814BOLB   C2D43534  24.170  24.110   3.860
 1814BOLB   C3D43535  23.830  24.010   3.770
 1814BOLB   C4D43536  23.530  23.900   4.160
 1815BOLB   NC143537  22.350  15.580  14.710
 1815BOLB   PO143538  22.800  15.630  14.740
 1815BOLB   GL143539  23.200  15.490  15.080
 1815BOLB   GL243540  23.370  15.540  15.400
 1815BOLB   C1A43541  23.510  15.210  14.980
 1815BOLB   C2A43542  23.890  15.050  15.120
 1815BOLB   C3A43543  23.920  14.880  15.340
 1815BOLB   C4A43544  24.090  14.710  15.720
 1815BOLB   C1B43545  23.710  15.410  15.520
 1815BOLB   C2B43546  24.110  15.260  15.580
 1815BOLB   C3B43547  24.540  15.210  15.760
 1815BOLB   C4B43548  24.820  15.020  16.080
 1815BOLB   NC243549  25.580  12.900  16.200
 1815BOLB   PO243550  25.750  13.100  16.630
 1815BOLB   GL343551  25.360  13.390  16.630
 1815BOLB   GL443552  25.140  13.250  16.310
 1815BOLB   C1C43553  25.050  13.650  16.620
 1815BOLB   C2C43554  24.710  13.910  16.360
 1815BOLB   C3C43555  24.460  14.260  16.340
 1815BOLB   C4C43556  24.120  14.470  16.080
 1815BOLB   C1D43557  24.960  13.450  16.110
 1815BOLB   C2D43558  24.630  13.620  15.860
 1815BOLB   C3D43559  24.550  13.750  15.460
 1815BOLB   C4D43560  24.280  13.690  15.180
 1816BOLB   NC143561  27.060  14.330  13.880
 1816BOLB   PO143562  26.930  14.230  14.240
 1816BOLB   GL143563  26.450  14.120  14.310
 1816BOLB   GL243564  26.390  13.710  14.160
 1816BOLB   C1A43565  26.160  14.390  14.240
 1816BOLB   C2A43566  26.070  14.760  14.340
 1816BOLB   C3A43567  25.930  14.990  14.680
 1816BOLB   C4A43568  25.800  15.340  14.910
 1816BOLB   C1B43569  26.010  13.720  14.220
 1816BOLB   C2B43570  25.740  14.100  14.230
 1816BOLB   C3B43571  25.230  14.240  14.360
 1816BOLB   C4B43572  24.930  14.650  14.450
 1816BOLB   NC243573  27.840  15.140  16.120
 1816BOLB   PO243574  27.420  15.320  15.980
 1816BOLB   GL343575  27.010  15.400  16.180
 1816BOLB   GL443576  27.020  15.350  16.540
 1816BOLB   C1C43577  26.670  15.690  16.160
 1816BOLB   C2C43578  26.260  15.860  16.100
 1816BOLB   C3C43579  26.210  15.770  15.650
 1816BOLB   C4C43580  25.980  15.610  15.290
 1816BOLB   C1D43581  26.700  15.560  16.630
 1816BOLB   C2D43582  26.520  16.030  16.580
 1816BOLB   C3D43583  26.140  16.260  16.580
 1816BOLB   C4D43584  25.950  16.430  16.460
 1817BOLB   NC143585  25.850  22.170  11.290
 1817BOLB   PO143586  25.540  22.430  11.030
 1817BOLB   GL143587  25.780  22.100  10.760
 1817BOLB   GL243588  26.020  22.190  10.510
 1817BOLB   C1A43589  26.130  21.590  10.800
 1817BOLB   C2A43590  26.530  21.570  10.800
 1817BOLB   C3A43591  26.980  21.580  10.720
 1817BOLB   C4A43592  27.340  21.830  10.730
 1817BOLB   C1B43593  26.460  22.020  10.510
 1817BOLB   C2B43594  26.870  22.000  10.570
 1817BOLB   C3B43595  27.300  22.300  10.540
 1817BOLB   C4B43596  27.740  22.460  10.730
 1817BOLB   NC243597  29.490  21.080   9.630
 1817BOLB   PO243598  29.680  21.560   9.720
 1817BOLB   GL343599  29.390  21.830   9.870
 1817BOLB   GL443600  29.160  21.800   9.640
 1817BOLB   C1C43601  28.910  21.740  10.080
 1817BOLB   C2C43602  28.590  21.570  10.460
 1817BOLB   C3C43603  28.310  21.840  10.740
 1817BOLB   C4C43604  27.830  21.920  10.770
 1817BOLB   C1D43605  28.950  22.240   9.260
 1817BOLB   C2D43606  28.770  22.610   9.060
 1817BOLB   C3D43607  28.380  22.880   8.800
 1817BOLB   C4D43608  28.170  22.720   8.420
 1818BOLB   NC143609  27.640  29.880   9.920
 1818BOLB   PO143610  27.960  29.990  10.160
 1818BOLB   GL143611  27.830  29.510  10.280
 1818BOLB   GL243612  27.620  29.320  10.090
 1818BOLB   C1A43613  27.660  29.250  10.710
 1818BOLB   C2A43614  27.240  29.210  10.920
 1818BOLB   C3A43615  26.920  29.150  11.300
 1818BOLB   C4A43616  26.560  29.140  11.440
 1818BOLB   C1B43617  27.420  28.920  10.370
 1818BOLB   C2B43618  27.050  28.800  10.740
 1818BOLB   C3B43619  26.770  28.730  11.090
 1818BOLB   C4B43620  26.690  28.630  11.520
 1818BOLB   NC243621  27.660  31.070  11.730
 1818BOLB   PO243622  27.420  30.650  11.750
 1818BOLB   GL343623  27.210  30.240  11.940
 1818BOLB   GL443624  27.330  30.000  12.110
 1818BOLB   C1C43625  26.770  30.220  12.290
 1818BOLB   C2C43626  26.370  30.050  12.220
 1818BOLB   C3C43627  26.250  29.750  11.870
 1818BOLB   C4C43628  26.370  29.550  11.580
 1818BOLB   C1D43629  27.280  29.720  11.780
 1818BOLB   C2D43630  27.090  29.380  11.780
 1818BOLB   C3D43631  26.590  29.180  11.950
 1818BOLB   C4D43632  26.310  28.820  11.750
 1819BOLB   NC143633  24.810  21.950   9.900
 1819BOLB   PO143634  25.220  21.930  10.000
 1819BOLB   GL143635  25.340  21.660   9.710
 1819BOLB   GL243636  25.140  21.720   9.480
 1819BOLB   C1A43637  25.720  21.570   9.570
 1819BOLB   C2A43638  26.000  21.640   9.240
 1819BOLB   C3A43639  26.250  21.310   9.230
 1819BOLB   C4A43640  26.540  21.030   9.250
 1819BOLB   C1B43641  25.400  21.550   9.190
 1819BOLB   C2B43642  25.740  21.330   8.960
 1819BOLB   C3B43643  26.110  21.380   8.630
 1819BOLB   C4B43644  26.320  21.500   8.230
 1819BOLB   NC243645  28.270  20.150   7.390
 1819BOLB   PO243646  27.920  20.320   7.590
 1819BOLB   GL343647  27.870  20.400   7.970
 1819BOLB   GL443648  27.650  20.600   7.950
 1819BOLB   C1C43649  27.770  20.540   8.410
 1819BOLB   C2C43650  27.390  20.690   8.600
 1819BOLB   C3C43651  27.240  20.740   8.960
 1819BOLB   C4C43652  26.890  20.970   9.110
 1819BOLB   C1D43653  27.330  20.740   8.040
 1819BOLB   C2D43654  26.880  20.650   8.090
 1819BOLB   C3D43655  26.470  20.640   7.950
 1819BOLB   C4D43656  26.010  20.590   7.920
 1820BOLB   NC143657  24.370  19.020   3.220
 1820BOLB   PO143658  24.720  18.860   3.490
 1820BOLB   GL143659  24.650  18.930   3.950
 1820BOLB   GL243660  24.730  19.270   4.070
 1820BOLB   C1A43661  24.290  19.000   4.060
 1820BOLB   C2A43662  24.010  18.960   4.420
 1820BOLB   C3A43663  23.790  18.860   4.810
 1820BOLB   C4A43664  23.720  18.830   5.260
 1820BOLB   C1B43665  24.510  19.190   4.450
 1820BOLB   C2B43666  24.210  19.240   4.790
 1820BOLB   C3B43667  24.070  19.170   5.130
 1820BOLB   C4B43668  24.030  19.170   5.610
 1820BOLB   NC243669  25.050  18.390   4.470
 1820BOLB   PO243670  25.420  18.220   4.600
 1820BOLB   GL343671  25.250  18.340   4.930
 1820BOLB   GL443672  25.450  18.510   5.040
 1820BOLB   C1C43673  24.850  18.400   5.080
 1820BOLB   C2C43674  24.380  18.270   5.240
 1820BOLB   C3C43675  24.240  18.530   5.610
 1820BOLB   C4C43676  23.950  18.700   5.630
 1820BOLB   C1D43677  25.200  18.630   5.430
 1820BOLB   C2D43678  25.040  18.730   5.770
 1820BOLB   C3D43679  24.640  18.800   5.780
 1820BOLB   C4D43680  24.210  18.860   6.070
 1821BOLB   NC143681  21.200  20.480   6.210
 1821BOLB   PO143682  21.520  20.330   6.340
 1821BOLB   GL143683  21.700  19.950   6.040
 1821BOLB   GL243684  21.710  20.040   5.690
 1821BOLB   C1A43685  22.010  19.670   5.860
 1821BOLB   C2A43686  22.270  19.610   5.520
 1821BOLB   C3A43687  22.590  19.460   5.120
 1821BOLB   C4A43688  22.740  19.280   4.720
 1821BOLB   C1B43689  22.120  20.080   5.380
 1821BOLB   C2B43690  22.480  19.940   5.090
 1821BOLB   C3B43691  22.810  19.780   4.770
 1821BOLB   C4B43692  22.920  19.640   4.390
 1821BOLB   NC243693  24.040  18.680   2.380
 1821BOLB   PO243694  23.650  19.020   2.460
 1821BOLB   GL343695  23.370  19.120   2.770
 1821BOLB   GL443696  23.480  18.920   2.990
 1821BOLB   C1C43697  23.080  19.190   2.970
 1821BOLB   C2C43698  22.750  19.220   3.440
 1821BOLB   C3C43699  22.590  19.020   3.780
 1821BOLB   C4C43700  22.700  19.180   4.230
 1821BOLB   C1D43701  23.310  19.080   3.480
 1821BOLB   C2D43702  23.070  19.240   3.890
 1821BOLB   C3D43703  23.150  19.160   4.340
 1821BOLB   C4D43704  23.240  19.260   4.700
 1822BOLB   NC143705  21.900  16.150  11.210
 1822BOLB   PO143706  22.060  15.730  11.230
 1822BOLB   GL143707  22.390  15.340  11.290
 1822BOLB   GL243708  22.210  15.050  11.260
 1822BOLB   C1A43709  22.730  15.100  11.200
 1822BOLB   C2A43710  23.140  14.910  11.070
 1822BOLB   C3A43711  23.480  14.930  10.820
 1822BOLB   C4A43712  23.930  14.790  10.700
 1822BOLB   C1B43713  22.420  14.710  11.170
 1822BOLB   C2B43714  22.770  14.470  11.040
 1822BOLB   C3B43715  23.090  14.390  10.760
 1822BOLB   C4B43716  23.150  14.140  10.400
 1822BOLB   NC243717  25.720  12.910  10.390
 1822BOLB   PO243718  25.750  13.060  10.690
 1822BOLB   GL343719  25.360  13.140  10.600
 1822BOLB   GL443720  25.290  13.280  10.860
 1822BOLB   C1C43721  25.040  13.500  10.420
 1822BOLB   C2C43722  24.770  13.860  10.310
 1822BOLB   C3C43723  24.340  14.070  10.460
 1822BOLB   C4C43724  24.100  14.410  10.520
 1822BOLB   C1D43725  25.450  13.650  10.870
 1822BOLB   C2D43726  25.510  14.010  11.080
 1822BOLB   C3D43727  25.340  14.090  11.470
 1822BOLB   C4D43728  25.020  13.860  11.750
 1823DOPG   GL043729  17.700  33.140  17.710
 1823DOPG   PO443730  17.300  32.890  17.710
 1823DOPG   GL143731  17.590  32.570  17.540
 1823DOPG   GL243732  17.750  32.620  17.270
 1823DOPG   C1A43733  17.670  32.170  17.150
 1823DOPG   D2A43734  17.610  31.670  17.140
 1823DOPG   C3A43735  17.580  31.340  16.910
 1823DOPG   C4A43736  17.870  31.150  16.650
 1823DOPG   C1B43737  17.460  32.650  17.070
 1823DOPG   D2B43738  17.110  32.730  17.210
 1823DOPG   C3B43739  16.740  32.350  17.180
 1823DOPG   C4B43740  16.590  32.120  17.470
 1824DOPG   GL043741  16.830  15.010  16.350
 1824DOPG   PO443742  17.150  15.220  16.520
 1824DOPG   GL143743  17.180  15.460  16.210
 1824DOPG   GL243744  17.570  15.680  16.220
 1824DOPG   C1A43745  17.130  15.850  15.830
 1824DOPG   D2A43746  17.000  16.260  15.940
 1824DOPG   C3A43747  17.110  16.680  15.720
 1824DOPG   C4A43748  17.100  17.030  15.710
 1824DOPG   C1B43749  17.680  15.900  15.900
 1824DOPG   D2B43750  17.420  16.220  15.610
 1824DOPG   C3B43751  17.050  16.280  15.400
 1824DOPG   C4B43752  16.690  16.010  15.640
 1825DOPG   GL043753  14.310  14.220   9.240
 1825DOPG   PO443754  14.010  14.460   8.880
 1825DOPG   GL143755  13.640  14.210   8.760
 1825DOPG   GL243756  13.500  14.130   8.490
 1825DOPG   C1A43757  13.330  13.950   8.970
 1825DOPG   D2A43758  12.890  13.790   8.870
 1825DOPG   C3A43759  12.970  13.510   9.200
 1825DOPG   C4A43760  13.070  13.080   9.330
 1825DOPG   C1B43761  13.200  13.800   8.510
 1825DOPG   D2B43762  13.030  13.410   8.360
 1825DOPG   C3B43763  12.940  13.020   8.430
 1825DOPG   C4B43764  12.540  12.710   8.340
 1826DOPG   GL043765  17.050  13.460  13.230
 1826DOPG   PO443766  16.730  13.620  13.510
 1826DOPG   GL143767  16.990  14.020  13.550
 1826DOPG   GL243768  17.020  14.280  13.800
 1826DOPG   C1A43769  17.290  14.320  13.360
 1826DOPG   D2A43770  17.410  14.680  13.010
 1826DOPG   C3A43771  17.780  14.780  13.010
 1826DOPG   C4A43772  18.020  15.190  12.920
 1826DOPG   C1B43773  16.660  14.530  13.530
 1826DOPG   D2B43774  16.640  15.060  13.370
 1826DOPG   C3B43775  16.910  15.060  13.000
 1826DOPG   C4B43776  16.870  15.220  12.620
 1827DOPG   GL043777   6.800  28.270  13.470
 1827DOPG   PO443778   7.210  28.300  13.480
 1827DOPG   GL143779   7.630  27.990  13.630
 1827DOPG   GL243780   7.970  28.150  13.540
 1827DOPG   C1A43781   7.960  27.780  13.820
 1827DOPG   D2A43782   8.260  27.410  13.860
 1827DOPG   C3A43783   8.330  27.120  13.540
 1827DOPG   C4A43784   8.490  26.650  13.370
 1827DOPG   C1B43785   7.890  27.840  13.120
 1827DOPG   D2B43786   7.780  27.470  12.960
 1827DOPG   C3B43787   8.100  27.190  13.060
 1827DOPG   C4B43788   8.400  26.940  12.950
 1828DOPG   GL043789  14.480  33.190  16.040
 1828DOPG   PO443790  14.580  32.850  15.790
 1828DOPG   GL143791  14.440  32.370  15.900
 1828DOPG   GL243792  14.780  32.280  15.900
 1828DOPG   C1A43793  14.300  31.940  15.740
 1828DOPG   D2A43794  14.430  31.710  15.410
 1828DOPG   C3A43795  14.590  32.000  15.020
 1828DOPG   C4A43796  14.580  32.260  14.720
 1828DOPG   C1B43797  14.740  31.870  15.830
 1828DOPG   D2B43798  14.660  31.420  15.840
 1828DOPG   C3B43799  14.390  31.200  16.050
 1828DOPG   C4B43800  14.260  30.850  16.280
 1829DOPG   GL043801  21.940  22.310   7.550
 1829DOPG   PO443802  22.290  21.980   7.580
 1829DOPG   GL143803  22.150  22.090   7.960
 1829DOPG   GL243804  21.940  21.890   7.990
 1829DOPG   C1A43805  22.230  22.380   8.270
 1829DOPG   D2A43806  22.200  22.760   8.190
 1829DOPG   C3A43807  21.950  23.060   8.170
 1829DOPG   C4A43808  21.680  23.220   8.410
 1829DOPG   C1B43809  21.430  21.900   8.060
 1829DOPG   D2B43810  21.110  21.700   8.270
 1829DOPG   C3B43811  20.680  21.850   8.520
 1829DOPG   C4B43812  20.150  21.900   8.590
 1830DOPG   GL043813  16.630  27.610  16.320
 1830DOPG   PO443814  17.070  27.690  16.440
 1830DOPG   GL143815  17.380  27.350  16.480
 1830DOPG   GL243816  17.310  27.060  16.560
 1830DOPG   C1A43817  17.750  27.200  16.290
 1830DOPG   D2A43818  18.130  26.910  16.200
 1830DOPG   C3A43819  18.230  26.660  16.620
 1830DOPG   C4A43820  18.540  26.280  16.720
 1830DOPG   C1B43821  17.450  26.800  16.110
 1830DOPG   D2B43822  17.520  26.670  15.730
 1830DOPG   C3B43823  17.750  26.280  15.490
 1830DOPG   C4B43824  18.120  26.140  15.240
 1831DOPG   GL043825   9.030  27.180  18.490
 1831DOPG   PO443826   9.060  27.430  18.210
 1831DOPG   GL143827   9.330  27.220  18.100
 1831DOPG   GL243828   9.510  26.960  18.300
 1831DOPG   C1A43829   9.590  27.160  17.760
 1831DOPG   D2A43830   9.810  27.080  17.570
 1831DOPG   C3A43831  10.210  26.770  17.640
 1831DOPG   C4A43832  10.530  26.600  17.800
 1831DOPG   C1B43833   9.590  26.680  17.910
 1831DOPG   D2B43834   9.750  26.590  17.510
 1831DOPG   C3B43835   9.710  26.210  17.310
 1831DOPG   C4B43836   9.980  25.940  17.210
 1832DOPG   GL043837  27.100  24.580  21.360
 1832DOPG   PO443838  27.350  24.370  21.120
 1832DOPG   GL143839  27.000  24.350  20.840
 1832DOPG   GL243840  26.720  24.550  20.830
 1832DOPG   C1A43841  26.960  24.420  20.450
 1832DOPG   D2A43842  26.820  24.250  20.100
 1832DOPG   C3A43843  26.490  24.290  19.870
 1832DOPG   C4A43844  26.250  24.600  19.510
 1832DOPG   C1B43845  26.580  24.250  20.590
 1832DOPG   D2B43846  26.240  24.440  20.260
 1832DOPG   C3B43847  25.700  24.330  20.140
 1832DOPG   C4B43848  25.280  24.380  20.190
 1833DOPG   GL043849  21.530  14.580  10.820
 1833DOPG   PO443850  21.210  14.510  11.020
 1833DOPG   GL143851  21.350  14.110  10.880
 1833DOPG   GL243852  21.340  13.940  10.590
 1833DOPG   C1A43853  21.320  13.690  11.060
 1833DOPG   D2A43854  21.430  13.340  11.270
 1833DOPG   C3A43855  21.770  13.080  11.070
 1833DOPG   C4A43856  22.090  12.740  11.060
 1833DOPG   C1B43857  21.110  13.580  10.600
 1833DOPG   D2B43858  21.040  13.240  10.940
 1833DOPG   C3B43859  21.290  12.860  11.120
 1833DOPG   C4B43860  21.490  12.590  11.210
 1834DOPG   GL043861  20.980  18.630   9.080
 1834DOPG   PO443862  21.320  18.550   8.800
 1834DOPG   GL143863  21.590  18.710   9.180
 1834DOPG   GL243864  21.400  18.330   9.240
 1834DOPG   C1A43865  21.420  18.750   9.620
 1834DOPG   D2A43866  21.130  19.050   9.760
 1834DOPG   C3A43867  21.240  19.370  10.040
 1834DOPG   C4A43868  21.380  19.550  10.390
 1834DOPG   C1B43869  21.010  18.190   9.290
 1834DOPG   D2B43870  20.700  17.900   9.320
 1834DOPG   C3B43871  20.330  17.970   9.540
 1834DOPG   C4B43872  20.020  18.360   9.600
 1835DOPG   GL043873  23.910  13.160  19.670
 1835DOPG   PO443874  23.900  13.370  20.010
 1835DOPG   GL143875  23.600  13.690  19.820
 1835DOPG   GL243876  23.270  13.700  19.940
 1835DOPG   C1A43877  23.590  14.020  19.350
 1835DOPG   D2A43878  23.400  14.170  19.020
 1835DOPG   C3A43879  23.490  13.960  18.590
 1835DOPG   C4A43880  23.190  13.820  18.310
 1835DOPG   C1B43881  23.260  14.160  19.970
 1835DOPG   D2B43882  23.090  14.560  20.050
 1835DOPG   C3B43883  22.650  14.650  19.970
 1835DOPG   C4B43884  22.220  14.520  20.120
 1836DOPG   GL043885  10.630  22.560  14.310
 1836DOPG   PO443886  10.650  22.700  13.840
 1836DOPG   GL143887  10.930  22.440  13.650
 1836DOPG   GL243888  10.960  22.330  13.400
 1836DOPG   C1A43889  11.330  22.230  13.730
 1836DOPG   D2A43890  11.520  21.950  13.690
 1836DOPG   C3A43891  11.400  21.530  13.540
 1836DOPG   C4A43892  11.080  21.260  13.490
 1836DOPG   C1B43893  11.380  22.650  13.370
 1836DOPG   D2B43894  11.740  22.600  13.240
 1836DOPG   C3B43895  11.930  22.900  13.040
 1836DOPG   C4B43896  11.960  22.990  12.670
 1837DOPG   GL043897  22.730  33.890  13.050
 1837DOPG   PO443898  23.060  33.790  13.270
 1837DOPG   GL143899  22.700  33.610  13.490
 1837DOPG   GL243900  22.460  33.490  13.340
 1837DOPG   C1A43901  22.620  33.350  13.820
 1837DOPG   D2A43902  22.590  32.910  13.840
 1837DOPG   C3A43903  22.800  32.580  13.620
 1837DOPG   C4A43904  23.170  32.410  13.550
 1837DOPG   C1B43905  22.590  33.000  13.350
 1837DOPG   D2B43906  22.420  32.550  13.100
 1837DOPG   C3B43907  22.310  32.180  13.340
 1837DOPG   C4B43908  22.320  31.770  13.640
 1838DOPG   GL043909  20.660  20.630  24.690
 1838DOPG   PO443910  20.770  20.480  24.270
 1838DOPG   GL143911  20.980  20.560  23.940
 1838DOPG   GL243912  20.950  20.840  24.000
 1838DOPG   C1A43913  20.980  20.520  23.520
 1838DOPG   D2A43914  20.920  20.510  23.030
 1838DOPG   C3A43915  20.550  20.520  22.810
 1838DOPG   C4A43916  20.460  20.350  22.380
 1838DOPG   C1B43917  20.540  20.900  23.700
 1838DOPG   D2B43918  20.420  20.670  23.400
 1838DOPG   C3B43919  20.130  20.650  23.030
 1838DOPG   C4B43920  19.740  20.500  22.880
 1839DOPG   GL043921   7.540  27.350  17.310
 1839DOPG   PO443922   7.770  27.290  16.920
 1839DOPG   GL143923   8.050  27.050  16.720
 1839DOPG   GL243924   8.290  26.990  16.820
 1839DOPG   C1A43925   8.040  26.780  16.360
 1839DOPG   D2A43926   8.290  26.500  16.110
 1839DOPG   C3A43927   8.180  26.140  16.080
 1839DOPG   C4A43928   8.060  25.740  15.920
 1839DOPG   C1B43929   8.520  26.630  16.510
 1839DOPG   D2B43930   8.850  26.350  16.270
 1839DOPG   C3B43931   8.740  26.030  15.980
 1839DOPG   C4B43932   8.510  25.610  16.020
 1840DOPG   GL043933  20.540  27.130  17.940
 1840DOPG   PO443934  20.690  26.750  17.980
 1840DOPG   GL143935  20.730  26.330  17.750
 1840DOPG   GL243936  20.550  26.200  17.480
 1840DOPG   C1A43937  20.770  25.870  17.820
 1840DOPG   D2A43938  21.110  25.520  17.920
 1840DOPG   C3A43939  21.360  25.350  17.650
 1840DOPG   C4A43940  21.490  25.450  17.270
 1840DOPG   C1B43941  20.630  25.780  17.260
 1840DOPG   D2B43942  20.940  25.810  16.870
 1840DOPG   C3B43943  21.020  26.080  16.480
 1840DOPG   C4B43944  20.660  26.380  16.120
 1841DOPG   GL043945  20.220  24.850  24.140
 1841DOPG   PO443946  20.630  25.060  24.390
 1841DOPG   GL143947  20.810  24.990  24.010
 1841DOPG   GL243948  21.060  25.130  23.870
 1841DOPG   C1A43949  20.740  24.850  23.580
 1841DOPG   D2A43950  20.490  24.930  23.200
 1841DOPG   C3A43951  20.600  25.020  22.810
 1841DOPG   C4A43952  20.720  24.930  22.380
 1841DOPG   C1B43953  20.910  25.360  23.530
 1841DOPG   D2B43954  20.970  25.510  23.100
 1841DOPG   C3B43955  20.970  25.920  23.000
 1841DOPG   C4B43956  21.110  26.190  22.700
 1842DOPG   GL043957  21.190  22.760  19.970
 1842DOPG   PO443958  20.900  22.710  20.270
 1842DOPG   GL143959  21.020  22.690  20.740
 1842DOPG   GL243960  20.960  22.320  20.800
 1842DOPG   C1A43961  21.120  22.650  21.160
 1842DOPG   D2A43962  20.990  22.650  21.570
 1842DOPG   C3A43963  21.260  22.470  22.010
 1842DOPG   C4A43964  21.730  22.310  22.130
 1842DOPG   C1B43965  21.050  22.150  21.180
 1842DOPG   D2B43966  21.270  22.230  21.550
 1842DOPG   C3B43967  21.180  21.930  21.980
 1842DOPG   C4B43968  21.360  21.960  22.400
 1843DOPG   GL043969  13.650  12.980  16.000
 1843DOPG   PO443970  13.680  13.060  16.410
 1843DOPG   GL143971  13.630  12.690  16.390
 1843DOPG   GL243972  13.340  12.530  16.320
 1843DOPG   C1A43973  13.660  12.410  16.710
 1843DOPG   D2A43974  13.520  11.960  16.810
 1843DOPG   C3A43975  13.130  11.820  16.890
 1843DOPG   C4A43976  12.690  11.750  17.270
 1843DOPG   C1B43977  13.100  12.340  16.650
 1843DOPG   D2B43978  12.760  12.060  16.710
 1843DOPG   C3B43979  12.530  12.080  16.960
 1843DOPG   C4B43980  12.320  12.030  17.320
 1844DOPG   GL043981  17.340  22.880  15.780
 1844DOPG   PO443982  17.480  23.100  15.410
 1844DOPG   GL143983  17.440  23.410  15.750
 1844DOPG   GL243984  17.670  23.480  16.000
 1844DOPG   C1A43985  17.300  23.800  15.920
 1844DOPG   D2A43986  17.610  23.960  16.210
 1844DOPG   C3A43987  17.750  24.050  16.620
 1844DOPG   C4A43988  18.080  23.760  16.770
 1844DOPG   C1B43989  17.620  23.550  16.450
 1844DOPG   D2B43990  17.580  23.680  16.860
 1844DOPG   C3B43991  17.850  23.740  17.220
 1844DOPG   C4B43992  17.900  24.100  17.580
 1845DOPG   GL043993  23.670  24.080  23.390
 1845DOPG   PO443994  24.110  24.230  23.460
 1845DOPG   GL143995  24.080  24.350  23.090
 1845DOPG   GL243996  23.830  24.290  22.910
 1845DOPG   C1A43997  23.960  24.770  22.870
 1845DOPG   D2A43998  24.190  25.110  22.670
 1845DOPG   C3A43999  24.640  25.040  22.370
 1845DOPG   C4A44000  24.880  25.170  21.940
 1845DOPG   C1B44001  23.440  24.200  22.630
 1845DOPG   D2B44002  23.510  23.840  22.330
 1845DOPG   C3B44003  23.290  23.640  21.980
 1845DOPG   C4B44004  23.400  23.620  21.640
 1846DOPG   GL044005  14.080  12.520  21.570
 1846DOPG   PO444006  14.380  12.730  21.840
 1846DOPG   GL144007  14.310  13.020  21.590
 1846DOPG   GL244008  13.950  13.040  21.530
 1846DOPG   C1A44009  14.550  13.300  21.460
 1846DOPG   D2A44010  14.580  13.740  21.430
 1846DOPG   C3A44011  15.050  13.950  21.370
 1846DOPG   C4A44012  15.230  14.140  20.930
 1846DOPG   C1B44013  14.040  13.350  21.320
 1846DOPG   D2B44014  13.980  13.510  20.840
 1846DOPG   C3B44015  13.880  13.960  20.940
 1846DOPG   C4B44016  13.970  14.490  20.970
 1847DOPG   GL044017  21.340  16.610   9.880
 1847DOPG   PO444018  21.730  16.700  10.040
 1847DOPG   GL144019  21.400  16.930  10.280
 1847DOPG   GL244020  21.260  16.690  10.430
 1847DOPG   C1A44021  21.070  17.070  10.090
 1847DOPG   D2A44022  20.870  17.430  10.200
 1847DOPG   C3A44023  20.770  17.630  10.610
 1847DOPG   C4A44024  20.400  17.910  10.720
 1847DOPG   C1B44025  21.080  16.950  10.720
 1847DOPG   D2B44026  21.230  17.210  11.080
 1847DOPG   C3B44027  20.910  17.540  11.110
 1847DOPG   C4B44028  20.610  17.830  11.240
 1848DOPG   GL044029   9.670  22.210  21.580
 1848DOPG   PO444030   9.950  21.840  21.630
 1848DOPG   GL144031  10.100  21.540  21.490
 1848DOPG   GL244032  10.260  21.410  21.700
 1848DOPG   C1A44033  10.330  21.250  21.170
 1848DOPG   D2A44034  10.200  20.830  21.020
 1848DOPG   C3A44035  10.510  20.570  20.750
 1848DOPG   C4A44036  10.570  20.220  20.450
 1848DOPG   C1B44037  10.610  21.190  21.710
 1848DOPG   D2B44038  11.140  21.270  21.820
 1848DOPG   C3B44039  11.410  21.220  21.500
 1848DOPG   C4B44040  11.590  20.880  21.250
 1849DOPG   GL044041  24.540  29.400  21.330
 1849DOPG   PO444042  24.430  29.090  21.170
 1849DOPG   GL144043  24.320  28.880  20.830
 1849DOPG   GL244044  24.000  28.960  20.880
 1849DOPG   C1A44045  24.080  28.660  20.550
 1849DOPG   D2A44046  24.050  28.510  20.150
 1849DOPG   C3A44047  24.380  28.420  19.900
 1849DOPG   C4A44048  24.590  28.620  19.470
 1849DOPG   C1B44049  23.610  28.660  20.750
 1849DOPG   D2B44050  23.360  28.280  20.420
 1849DOPG   C3B44051  23.130  28.280  20.010
 1849DOPG   C4B44052  22.970  28.030  19.650
 1850DOPG   GL044053  26.000  13.610  18.180
 1850DOPG   PO444054  25.480  13.720  18.270
 1850DOPG   GL144055  25.030  13.860  18.250
 1850DOPG   GL244056  25.010  13.740  17.960
 1850DOPG   C1A44057  24.840  14.200  18.160
 1850DOPG   D2A44058  24.500  14.410  17.950
 1850DOPG   C3A44059  24.020  14.460  18.070
 1850DOPG   C4A44060  23.590  14.230  17.970
 1850DOPG   C1B44061  24.820  14.020  17.670
 1850DOPG   D2B44062  24.450  14.360  17.450
 1850DOPG   C3B44063  23.970  14.300  17.600
 1850DOPG   C4B44064  23.630  14.510  17.510
 1851DOPG   GL044065  28.600  29.610  16.230
 1851DOPG   PO444066  28.620  29.740  15.860
 1851DOPG   GL144067  28.450  29.370  15.810
 1851DOPG   GL244068  28.530  29.030  15.740
 1851DOPG   C1A44069  28.010  29.340  15.690
 1851DOPG   D2A44070  27.660  29.000  15.560
 1851DOPG   C3A44071  27.380  28.640  15.770
 1851DOPG   C4A44072  27.160  28.320  15.620
 1851DOPG   C1B44073  28.090  28.910  15.740
 1851DOPG   D2B44074  27.890  28.550  15.440
 1851DOPG   C3B44075  27.490  28.570  15.300
 1851DOPG   C4B44076  27.120  28.230  15.100
 1852DOPG   GL044077  22.420  22.550  24.180
 1852DOPG   PO444078  22.270  22.860  23.960
 1852DOPG   GL144079  21.940  22.700  23.780
 1852DOPG   GL244080  21.650  22.830  23.710
 1852DOPG   C1A44081  21.950  22.520  23.360
 1852DOPG   D2A44082  22.030  22.720  23.110
 1852DOPG   C3A44083  21.870  23.130  23.010
 1852DOPG   C4A44084  21.640  23.320  22.610
 1852DOPG   C1B44085  21.990  23.110  23.500
 1852DOPG   D2B44086  22.340  23.240  23.220
 1852DOPG   C3B44087  22.530  22.990  22.790
 1852DOPG   C4B44088  22.550  23.100  22.350
 1853DOPG   GL044089  22.020  33.470  12.790
 1853DOPG   PO444090  21.770  33.930  12.900
 1853DOPG   GL144091  21.510  33.580  13.050
 1853DOPG   GL244092  21.260  33.520  12.970
 1853DOPG   C1A44093  21.310  33.370  13.450
 1853DOPG   D2A44094  21.050  33.340  13.870
 1853DOPG   C3A44095  21.300  33.190  14.170
 1853DOPG   C4A44096  21.390  33.100  14.660
 1853DOPG   C1B44097  21.220  33.240  12.590
 1853DOPG   D2B44098  21.060  32.870  12.520
 1853DOPG   C3B44099  21.150  32.530  12.270
 1853DOPG   C4B44100  20.990  32.170  11.950
 1854DOPG   GL044101  15.040  27.510  11.910
 1854DOPG   PO444102  15.020  27.750  12.310
 1854DOPG   GL144103  15.220  27.420  12.440
 1854DOPG   GL244104  14.970  27.180  12.310
 1854DOPG   C1A44105  15.440  27.020  12.680
 1854DOPG   D2A44106  15.640  26.630  12.610
 1854DOPG   C3A44107  15.690  26.200  12.360
 1854DOPG   C4A44108  15.640  25.790  12.290
 1854DOPG   C1B44109  14.950  26.780  12.590
 1854DOPG   D2B44110  15.170  26.410  12.640
 1854DOPG   C3B44111  15.170  26.060  12.360
 1854DOPG   C4B44112  14.940  25.760  12.300
 1855DOPG   GL044113  14.970  27.040  14.490
 1855DOPG   PO444114  14.630  27.420  14.210
 1855DOPG   GL144115  14.800  27.200  13.980
 1855DOPG   GL244116  14.540  27.000  13.990
 1855DOPG   C1A44117  15.210  27.140  13.760
 1855DOPG   D2A44118  15.420  27.190  13.320
 1855DOPG   C3A44119  15.810  27.290  12.960
 1855DOPG   C4A44120  16.320  27.440  12.890
 1855DOPG   C1B44121  14.620  26.760  14.340
 1855DOPG   D2B44122  14.720  26.320  14.260
 1855DOPG   C3B44123  15.110  26.180  14.110
 1855DOPG   C4B44124  15.040  26.030  13.700
 1856DOPG   GL044125  26.240  31.990  15.730
 1856DOPG   PO444126  26.530  31.600  15.940
 1856DOPG   GL144127  26.480  31.250  15.750
 1856DOPG   GL244128  26.610  31.030  15.600
 1856DOPG   C1A44129  26.190  30.900  15.870
 1856DOPG   D2A44130  26.040  30.540  16.050
 1856DOPG   C3A44131  25.580  30.620  16.020
 1856DOPG   C4A44132  25.170  30.450  16.040
 1856DOPG   C1B44133  26.320  30.750  15.350
 1856DOPG   D2B44134  26.240  30.430  15.110
 1856DOPG   C3B44135  26.330  30.060  14.790
 1856DOPG   C4B44136  26.510  30.180  14.430
 1857DOPG   GL044137   9.650  14.830   5.580
 1857DOPG   PO444138   9.790  15.200   5.390
 1857DOPG   GL144139  10.160  15.450   5.440
 1857DOPG   GL244140  10.170  15.770   5.740
 1857DOPG   C1A44141  10.600  15.480   5.460
 1857DOPG   D2A44142  10.950  15.820   5.520
 1857DOPG   C3A44143  11.120  15.770   5.850
 1857DOPG   C4A44144  11.260  15.910   6.240
 1857DOPG   C1B44145  10.490  15.860   5.850
 1857DOPG   D2B44146  10.750  16.010   6.170
 1857DOPG   C3B44147  11.060  16.360   6.410
 1857DOPG   C4B44148  11.230  16.720   6.430
 1858DOPG   GL044149  11.630  26.030   4.410
 1858DOPG   PO444150  11.360  25.690   4.270
 1858DOPG   GL144151  11.720  25.530   4.520
 1858DOPG   GL244152  11.890  25.180   4.450
 1858DOPG   C1A44153  12.050  25.660   4.760
 1858DOPG   D2A44154  12.360  25.410   4.890
 1858DOPG   C3A44155  12.190  25.010   5.150
 1858DOPG   C4A44156  12.100  24.680   5.500
 1858DOPG   C1B44157  12.110  24.950   4.670
 1858DOPG   D2B44158  12.260  24.630   4.530
 1858DOPG   C3B44159  12.600  24.590   4.240
 1858DOPG   C4B44160  12.670  24.710   3.750
 1859DOPG   GL044161  23.690  29.290  22.350
 1859DOPG   PO444162  23.450  28.900  22.300
 1859DOPG   GL144163  23.210  28.520  22.170
 1859DOPG   GL244164  23.360  28.240  22.370
 1859DOPG   C1A44165  23.270  28.130  21.750
 1859DOPG   D2A44166  23.050  28.170  21.360
 1859DOPG   C3A44167  22.710  28.240  21.040
 1859DOPG   C4A44168  22.260  28.160  20.730
 1859DOPG   C1B44169  23.080  27.960  22.280
 1859DOPG   D2B44170  22.780  27.580  22.140
 1859DOPG   C3B44171  22.970  27.210  21.980
 1859DOPG   C4B44172  22.950  26.880  21.760
 1860DOPG   GL044173  30.770  23.870  15.540
 1860DOPG   PO444174  30.710  23.490  15.620
 1860DOPG   GL144175  30.320  23.610  15.510
 1860DOPG   GL244176  30.050  23.690  15.340
 1860DOPG   C1A44177  30.010  23.780  15.810
 1860DOPG   D2A44178  29.580  23.920  15.920
 1860DOPG   C3A44179  29.170  23.690  16.040
 1860DOPG   C4A44180  28.930  23.470  15.840
 1860DOPG   C1B44181  29.610  23.830  15.460
 1860DOPG   D2B44182  29.400  23.990  15.270
 1860DOPG   C3B44183  28.880  24.110  15.160
 1860DOPG   C4B44184  28.670  24.180  14.720
 1861DOPG   GL044185  18.060  23.960  18.810
 1861DOPG   PO444186  18.290  24.020  19.110
 1861DOPG   GL144187  18.570  23.850  18.870
 1861DOPG   GL244188  18.580  24.220  18.770
 1861DOPG   C1A44189  18.740  23.780  18.370
 1861DOPG   D2A44190  18.680  23.630  18.050
 1861DOPG   C3A44191  18.480  23.860  17.620
 1861DOPG   C4A44192  18.280  24.050  17.280
 1861DOPG   C1B44193  18.900  24.310  18.540
 1861DOPG   D2B44194  19.100  24.550  18.120
 1861DOPG   C3B44195  19.580  24.410  18.050
 1861DOPG   C4B44196  20.000  24.650  17.910
 1862DOPG   GL044197  12.210  25.110  13.740
 1862DOPG   PO444198  12.380  24.970  13.440
 1862DOPG   GL144199  12.550  24.850  13.040
 1862DOPG   GL244200  12.460  24.800  12.700
 1862DOPG   C1A44201  12.870  24.530  12.830
 1862DOPG   D2A44202  13.090  24.490  12.550
 1862DOPG   C3A44203  13.060  24.420  12.220
 1862DOPG   C4A44204  13.250  24.090  12.050
 1862DOPG   C1B44205  12.580  24.450  12.370
 1862DOPG   D2B44206  12.660  24.480  11.950
 1862DOPG   C3B44207  13.000  24.550  11.760
 1862DOPG   C4B44208  13.340  24.750  11.640
 1863DOPG   GL044209  17.150  20.460  16.330
 1863DOPG   PO444210  16.840  20.640  15.960
 1863DOPG   GL144211  16.560  20.840  16.330
 1863DOPG   GL244212  16.530  21.260  16.330
 1863DOPG   C1A44213  16.380  20.700  16.690
 1863DOPG   D2A44214  16.070  20.530  17.030
 1863DOPG   C3A44215  16.140  20.440  17.440
 1863DOPG   C4A44216  16.330  19.990  17.610
 1863DOPG   C1B44217  16.260  21.160  16.690
 1863DOPG   D2B44218  16.150  21.250  17.090
 1863DOPG   C3B44219  16.330  21.000  17.380
 1863DOPG   C4B44220  16.450  21.140  17.770
 1864DOPG   GL044221  30.720  25.280  12.470
 1864DOPG   PO444222  30.510  25.250  12.910
 1864DOPG   GL144223  30.270  24.940  13.090
 1864DOPG   GL244224  30.040  25.110  13.130
 1864DOPG   C1A44225  29.920  24.600  13.030
 1864DOPG   D2A44226  29.530  24.620  12.720
 1864DOPG   C3A44227  29.340  24.860  12.510
 1864DOPG   C4A44228  28.970  25.100  12.480
 1864DOPG   C1B44229  29.590  25.020  13.050
 1864DOPG   D2B44230  29.150  25.100  12.970
 1864DOPG   C3B44231  28.820  24.760  12.900
 1864DOPG   C4B44232  28.500  24.750  13.040
 1865DOPG   GL044233  30.390  21.510  14.790
 1865DOPG   PO444234  30.320  21.150  15.020
 1865DOPG   GL144235  29.930  21.400  14.990
 1865DOPG   GL244236  29.790  21.720  15.150
 1865DOPG   C1A44237  29.510  21.370  15.030
 1865DOPG   D2A44238  29.070  21.280  14.950
 1865DOPG   C3A44239  29.180  21.090  14.590
 1865DOPG   C4A44240  29.140  20.780  14.260
 1865DOPG   C1B44241  29.340  21.970  15.030
 1865DOPG   D2B44242  28.880  21.950  14.870
 1865DOPG   C3B44243  28.640  21.540  14.790
 1865DOPG   C4B44244  28.460  21.230  14.920
 1866DOPG   GL044245  15.070  20.490  18.960
 1866DOPG   PO444246  15.300  20.110  19.170
 1866DOPG   GL144247  15.540  20.350  18.880
 1866DOPG   GL244248  15.790  20.190  18.640
 1866DOPG   C1A44249  15.630  20.760  18.580
 1866DOPG   D2A44250  15.750  20.940  18.180
 1866DOPG   C3A44251  16.170  21.230  18.140
 1866DOPG   C4A44252  16.260  21.650  18.360
 1866DOPG   C1B44253  15.720  19.940  18.330
 1866DOPG   D2B44254  15.860  19.720  17.960
 1866DOPG   C3B44255  15.520  19.610  17.600
 1866DOPG   C4B44256  15.280  19.670  17.250
 1867DOPG   GL044257  13.130  30.260  19.990
 1867DOPG   PO444258  13.530  30.250  19.800
 1867DOPG   GL144259  13.550  29.830  19.730
 1867DOPG   GL244260  13.840  29.780  19.660
 1867DOPG   C1A44261  13.290  29.440  19.560
 1867DOPG   D2A44262  13.010  29.190  19.330
 1867DOPG   C3A44263  13.240  28.910  18.980
 1867DOPG   C4A44264  13.530  28.850  18.730
 1867DOPG   C1B44265  13.760  29.690  19.180
 1867DOPG   D2B44266  13.920  29.420  18.770
 1867DOPG   C3B44267  13.920  29.020  18.990
 1867DOPG   C4B44268  13.920  28.540  18.800
 1868DOPG   GL044269  10.230  24.500  21.420
 1868DOPG   PO444270  10.510  24.490  21.800
 1868DOPG   GL144271  10.780  24.430  21.440
 1868DOPG   GL244272  10.630  24.490  21.110
 1868DOPG   C1A44273  11.260  24.560  21.290
 1868DOPG   D2A44274  11.680  24.730  21.120
 1868DOPG   C3A44275  11.820  24.640  20.700
 1868DOPG   C4A44276  12.120  24.430  20.410
 1868DOPG   C1B44277  11.060  24.170  21.100
 1868DOPG   D2B44278  11.550  24.280  20.930
 1868DOPG   C3B44279  11.490  24.340  20.440
 1868DOPG   C4B44280  11.190  24.300  20.040
 1869DOPG   GL044281  10.430  20.400  15.920
 1869DOPG   PO444282  10.760  20.590  15.890
 1869DOPG   GL144283  10.890  20.190  15.760
 1869DOPG   GL244284  10.720  19.930  15.620
 1869DOPG   C1A44285  11.270  19.840  15.830
 1869DOPG   D2A44286  11.620  19.560  15.630
 1869DOPG   C3A44287  11.990  19.810  15.500
 1869DOPG   C4A44288  12.260  19.930  15.140
 1869DOPG   C1B44289  11.090  19.880  15.360
 1869DOPG   D2B44290  11.210  19.580  15.040
 1869DOPG   C3B44291  11.460  19.370  15.220
 1869DOPG   C4B44292  11.710  19.140  14.990
 1870DOPG   GL044293  17.830  28.700  15.310
 1870DOPG   PO444294  17.550  28.350  15.270
 1870DOPG   GL144295  17.800  28.040  15.130
 1870DOPG   GL244296  18.040  28.220  15.210
 1870DOPG   C1A44297  17.660  27.620  15.070
 1870DOPG   D2A44298  17.750  27.270  15.180
 1870DOPG   C3A44299  18.170  27.060  15.190
 1870DOPG   C4A44300  18.210  26.680  15.110
 1870DOPG   C1B44301  18.110  27.710  15.270
 1870DOPG   D2B44302  18.390  27.480  15.470
 1870DOPG   C3B44303  18.800  27.510  15.400
 1870DOPG   C4B44304  19.120  27.240  15.240
 1871DOPG   GL044305  14.500  27.260   3.530
 1871DOPG   PO444306  14.820  27.150   3.180
 1871DOPG   GL144307  15.070  27.070   3.440
 1871DOPG   GL244308  15.060  27.200   3.680
 1871DOPG   C1A44309  15.070  26.670   3.830
 1871DOPG   D2A44310  15.190  26.520   4.230
 1871DOPG   C3A44311  15.120  26.130   4.420
 1871DOPG   C4A44312  15.320  25.700   4.380
 1871DOPG   C1B44313  15.240  27.500   3.900
 1871DOPG   D2B44314  15.510  27.840   4.030
 1871DOPG   C3B44315  15.810  27.750   4.280
 1871DOPG   C4B44316  16.050  27.840   4.640
 1872DOPG   GL044317  24.020  26.120  15.680
 1872DOPG   PO444318  24.090  26.540  15.810
 1872DOPG   GL144319  23.640  26.360  15.890
 1872DOPG   GL244320  23.590  26.200  15.570
 1872DOPG   C1A44321  23.180  26.360  16.050
 1872DOPG   D2A44322  22.830  26.370  16.310
 1872DOPG   C3A44323  22.320  26.310  16.170
 1872DOPG   C4A44324  21.910  26.190  15.980
 1872DOPG   C1B44325  23.350  25.810  15.420
 1872DOPG   D2B44326  23.190  25.490  15.220
 1872DOPG   C3B44327  22.800  25.230  15.250
 1872DOPG   C4B44328  22.410  25.200  15.140
 1873DOPG   GL044329  18.570  21.920  19.780
 1873DOPG   PO444330  18.660  22.360  19.580
 1873DOPG   GL144331  18.510  22.360  19.200
 1873DOPG   GL244332  18.490  22.710  19.100
 1873DOPG   C1A44333  18.690  22.310  18.800
 1873DOPG   D2A44334  18.870  22.450  18.370
 1873DOPG   C3A44335  19.030  22.180  18.160
 1873DOPG   C4A44336  19.150  21.890  17.900
 1873DOPG   C1B44337  18.810  22.800  18.900
 1873DOPG   D2B44338  19.220  22.640  18.700
 1873DOPG   C3B44339  19.320  22.540  18.260
 1873DOPG   C4B44340  19.360  22.310  17.800
 1874DOPG   GL044341  16.370  18.180  19.630
 1874DOPG   PO444342  16.240  17.810  19.940
 1874DOPG   GL144343  16.120  17.850  20.390
 1874DOPG   GL244344  15.840  17.680  20.410
 1874DOPG   C1A44345  16.100  17.890  20.790
 1874DOPG   D2A44346  16.040  17.610  21.160
 1874DOPG   C3A44347  16.360  17.590  21.470
 1874DOPG   C4A44348  16.460  17.740  21.850
 1874DOPG   C1B44349  15.750  17.290  20.630
 1874DOPG   D2B44350  15.670  17.110  20.970
 1874DOPG   C3B44351  15.520  17.240  21.390
 1874DOPG   C4B44352  15.130  17.410  21.410
 1875DOPG   GL044353  18.590  15.920   8.890
 1875DOPG   PO444354  18.180  16.180   8.840
 1875DOPG   GL144355  18.160  16.550   9.080
 1875DOPG   GL244356  18.360  16.450   9.400
 1875DOPG   C1A44357  17.890  16.870   9.360
 1875DOPG   D2A44358  17.640  17.090   9.660
 1875DOPG   C3A44359  17.600  17.500   9.940
 1875DOPG   C4A44360  17.480  17.590  10.280
 1875DOPG   C1B44361  18.380  16.840   9.420
 1875DOPG   D2B44362  18.560  17.220   9.430
 1875DOPG   C3B44363  18.410  17.620   9.810
 1875DOPG   C4B44364  17.950  17.780   9.790
 1876DOPG   GL044365  14.130  26.200   9.510
 1876DOPG   PO444366  14.560  26.280   9.500
 1876DOPG   GL144367  14.800  26.090   9.540
 1876DOPG   GL244368  15.080  25.950   9.420
 1876DOPG   C1A44369  14.830  25.720   9.790
 1876DOPG   D2A44370  14.730  25.560  10.200
 1876DOPG   C3A44371  14.670  25.160  10.350
 1876DOPG   C4A44372  14.210  24.910  10.310
 1876DOPG   C1B44373  15.290  25.950   9.790
 1876DOPG   D2B44374  15.710  25.910   9.920
 1876DOPG   C3B44375  15.830  25.670  10.320
 1876DOPG   C4B44376  16.080  25.300  10.510
 1877DOPG   GL044377   5.370  26.700  13.340
 1877DOPG   PO444378   5.650  26.510  13.600
 1877DOPG   GL144379   5.930  26.280  13.360
 1877DOPG   GL244380   5.760  26.220  13.140
 1877DOPG   C1A44381   6.310  26.190  13.290
 1877DOPG   D2A44382   6.650  26.270  13.410
 1877DOPG   C3A44383   6.870  25.960  13.790
 1877DOPG   C4A44384   7.090  25.750  13.990
 1877DOPG   C1B44385   5.970  25.760  13.370
 1877DOPG   D2B44386   5.980  25.450  13.760
 1877DOPG   C3B44387   6.320  25.260  13.520
 1877DOPG   C4B44388   6.580  24.870  13.420
 1878DOPG   GL044389  13.740   9.950   7.970
 1878DOPG   PO444390  13.320   9.720   8.090
 1878DOPG   GL144391  13.310  10.150   8.210
 1878DOPG   GL244392  12.850  10.280   8.010
 1878DOPG   C1A44393  13.460  10.460   8.590
 1878DOPG   D2A44394  13.820  10.570   8.770
 1878DOPG   C3A44395  13.990  10.730   9.160
 1878DOPG   C4A44396  13.800  10.760   9.570
 1878DOPG   C1B44397  12.740  10.750   8.090
 1878DOPG   D2B44398  12.530  11.090   7.900
 1878DOPG   C3B44399  12.700  11.180   7.470
 1878DOPG   C4B44400  12.500  11.330   7.160
 1879DOPG   GL044401   8.790  23.480  12.080
 1879DOPG   PO444402   8.530  23.300  11.900
 1879DOPG   GL144403   8.320  23.260  11.750
 1879DOPG   GL244404   8.170  23.480  11.660
 1879DOPG   C1A44405   7.960  23.010  11.620
 1879DOPG   D2A44406   7.530  23.070  11.410
 1879DOPG   C3A44407   7.330  23.390  11.370
 1879DOPG   C4A44408   6.930  23.510  11.400
 1879DOPG   C1B44409   7.900  23.580  11.370
 1879DOPG   D2B44410   7.510  23.750  11.120
 1879DOPG   C3B44411   7.630  24.160  11.200
 1879DOPG   C4B44412   7.600  24.500  10.960
 1880DOPG   GL044413  25.600  16.530   5.600
 1880DOPG   PO444414  25.610  16.100   5.830
 1880DOPG   GL144415  25.380  16.410   6.150
 1880DOPG   GL244416  25.470  16.770   6.130
 1880DOPG   C1A44417  24.940  16.460   6.310
 1880DOPG   D2A44418  24.580  16.410   6.450
 1880DOPG   C3A44419  24.400  16.540   6.760
 1880DOPG   C4A44420  24.080  16.610   6.980
 1880DOPG   C1B44421  24.960  16.910   6.070
 1880DOPG   D2B44422  24.560  17.220   5.990
 1880DOPG   C3B44423  24.370  17.310   6.330
 1880DOPG   C4B44424  24.260  17.610   6.690
 1881DOPG   GL044425  15.200  14.960  10.190
 1881DOPG   PO444426  15.490  15.030   9.910
 1881DOPG   GL144427  15.540  15.410  10.150
 1881DOPG   GL244428  15.550  15.240  10.480
 1881DOPG   C1A44429  15.400  15.750  10.530
 1881DOPG   D2A44430  15.440  15.950  10.880
 1881DOPG   C3A44431  15.730  16.350  10.990
 1881DOPG   C4A44432  16.070  16.680  11.030
 1881DOPG   C1B44433  15.290  15.110  10.680
 1881DOPG   D2B44434  14.880  15.020  10.680
 1881DOPG   C3B44435  14.660  15.360  10.910
 1881DOPG   C4B44436  14.550  15.640  11.190
 1882DOPG   GL044437  22.420  25.640   8.180
 1882DOPG   PO444438  22.270  26.110   8.450
 1882DOPG   GL144439  22.050  25.770   8.620
 1882DOPG   GL244440  22.090  25.670   8.850
 1882DOPG   C1A44441  21.630  25.560   8.690
 1882DOPG   D2A44442  21.230  25.310   8.700
 1882DOPG   C3A44443  21.230  24.920   8.840
 1882DOPG   C4A44444  21.240  24.600   9.200
 1882DOPG   C1B44445  21.820  25.550   9.150
 1882DOPG   D2B44446  21.410  25.310   9.120
 1882DOPG   C3B44447  21.350  25.050   9.370
 1882DOPG   C4B44448  20.990  24.980   9.760
 1883DOPG   GL044449  23.670  17.450  12.710
 1883DOPG   PO444450  23.290  17.520  12.780
 1883DOPG   GL144451  23.060  17.800  13.030
 1883DOPG   GL244452  22.730  17.590  13.150
 1883DOPG   C1A44453  22.810  18.110  12.830
 1883DOPG   D2A44454  22.450  18.350  12.900
 1883DOPG   C3A44455  22.470  18.810  13.080
 1883DOPG   C4A44456  22.710  18.960  13.270
 1883DOPG   C1B44457  22.360  17.810  13.270
 1883DOPG   D2B44458  22.030  18.040  13.070
 1883DOPG   C3B44459  21.790  17.810  12.760
 1883DOPG   C4B44460  21.560  17.640  12.370
 1884DOPG   GL044461  10.900  21.460  10.380
 1884DOPG   PO444462  11.210  21.550  10.470
 1884DOPG   GL144463  11.390  21.260  10.760
 1884DOPG   GL244464  11.160  21.040  10.860
 1884DOPG   C1A44465  11.710  21.130  10.800
 1884DOPG   D2A44466  12.120  21.140  10.970
 1884DOPG   C3A44467  12.210  20.770  11.020
 1884DOPG   C4A44468  12.300  20.520  11.310
 1884DOPG   C1B44469  11.500  21.070  11.320
 1884DOPG   D2B44470  11.970  20.940  11.470
 1884DOPG   C3B44471  12.040  20.620  11.740
 1884DOPG   C4B44472  12.080  20.070  11.820
 1885DOPG   GL044473  16.040   8.930   6.200
 1885DOPG   PO444474  16.240   9.230   6.520
 1885DOPG   GL144475  16.460   9.530   6.650
 1885DOPG   GL244476  16.260   9.780   6.540
 1885DOPG   C1A44477  16.620   9.940   6.890
 1885DOPG   D2A44478  16.590  10.400   6.890
 1885DOPG   C3A44479  16.530  10.730   7.160
 1885DOPG   C4A44480  16.220  10.920   7.350
 1885DOPG   C1B44481  16.080  10.060   6.850
 1885DOPG   D2B44482  15.680  10.210   7.010
 1885DOPG   C3B44483  15.500  10.300   7.280
 1885DOPG   C4B44484  15.090  10.320   7.400
 1886DOPG   GL044485  12.400  18.680   9.070
 1886DOPG   PO444486  12.710  18.930   9.180
 1886DOPG   GL144487  12.550  18.640   9.540
 1886DOPG   GL244488  12.140  18.560   9.530
 1886DOPG   C1A44489  12.560  18.270   9.860
 1886DOPG   D2A44490  12.550  17.720   9.960
 1886DOPG   C3A44491  12.380  17.600  10.360
 1886DOPG   C4A44492  12.210  17.390  10.730
 1886DOPG   C1B44493  12.090  18.450   9.960
 1886DOPG   D2B44494  12.190  18.050  10.180
 1886DOPG   C3B44495  12.020  17.720   9.980
 1886DOPG   C4B44496  11.690  17.660   9.550
 1887DOPG   GL044497  22.330  27.720   9.670
 1887DOPG   PO444498  22.030  27.430   9.720
 1887DOPG   GL144499  21.750  27.290   9.880
 1887DOPG   GL244500  21.650  27.160  10.230
 1887DOPG   C1A44501  21.430  27.540  10.110
 1887DOPG   D2A44502  20.910  27.550   9.880
 1887DOPG   C3A44503  20.730  27.160   9.970
 1887DOPG   C4A44504  20.350  26.960  10.180
 1887DOPG   C1B44505  21.620  26.790  10.180
 1887DOPG   D2B44506  21.310  26.540  10.120
 1887DOPG   C3B44507  21.040  26.220  10.240
 1887DOPG   C4B44508  20.880  25.880  10.180
 1888DOPG   GL044509  15.840  10.740   3.940
 1888DOPG   PO444510  15.760  11.180   4.000
 1888DOPG   GL144511  15.880  11.650   4.270
 1888DOPG   GL244512  16.170  11.720   4.410
 1888DOPG   C1A44513  15.970  12.200   4.310
 1888DOPG   D2A44514  16.020  12.500   4.490
 1888DOPG   C3A44515  16.420  12.470   4.570
 1888DOPG   C4A44516  16.840  12.580   4.700
 1888DOPG   C1B44517  16.240  11.960   4.740
 1888DOPG   D2B44518  16.200  12.370   4.980
 1888DOPG   C3B44519  16.190  12.460   5.460
 1888DOPG   C4B44520  16.160  12.780   5.720
 1889DOPG   GL044521  23.360  25.180   9.870
 1889DOPG   PO444522  23.780  25.090  10.120
 1889DOPG   GL144523  23.450  25.020  10.340
 1889DOPG   GL244524  23.620  25.110  10.720
 1889DOPG   C1A44525  23.100  24.870  10.320
 1889DOPG   D2A44526  22.700  24.670  10.500
 1889DOPG   C3A44527  22.410  24.840  10.620
 1889DOPG   C4A44528  22.150  24.670  10.860
 1889DOPG   C1B44529  23.200  25.070  10.830
 1889DOPG   D2B44530  22.870  24.930  11.060
 1889DOPG   C3B44531  22.600  24.570  11.030
 1889DOPG   C4B44532  22.670  24.150  11.130
 1890DOPG   GL044533  23.250  18.240  13.190
 1890DOPG   PO444534  23.650  18.320  12.980
 1890DOPG   GL144535  23.510  18.760  13.100
 1890DOPG   GL244536  23.190  18.690  13.370
 1890DOPG   C1A44537  23.270  19.070  12.950
 1890DOPG   D2A44538  22.940  19.370  12.950
 1890DOPG   C3A44539  22.460  19.280  12.920
 1890DOPG   C4A44540  22.090  19.170  12.990
 1890DOPG   C1B44541  22.990  18.640  12.990
 1890DOPG   D2B44542  22.750  18.920  12.680
 1890DOPG   C3B44543  22.260  18.890  12.590
 1890DOPG   C4B44544  21.890  18.530  12.730
 1891DOPG   GL044545  23.440  27.790  14.530
 1891DOPG   PO444546  23.140  27.650  14.680
 1891DOPG   GL144547  22.980  27.190  14.570
 1891DOPG   GL244548  22.740  27.190  14.390
 1891DOPG   C1A44549  22.560  26.840  14.620
 1891DOPG   D2A44550  22.550  26.470  14.260
 1891DOPG   C3A44551  22.540  26.140  14.530
 1891DOPG   C4A44552  22.790  25.720  14.410
 1891DOPG   C1B44553  22.780  27.270  13.920
 1891DOPG   D2B44554  22.410  27.220  13.710
 1891DOPG   C3B44555  22.250  26.880  13.470
 1891DOPG   C4B44556  22.000  26.860  13.140
 1892DOPG   GL044557  28.440  30.690  13.820
 1892DOPG   PO444558  28.130  30.490  13.700
 1892DOPG   GL144559  27.860  30.210  13.870
 1892DOPG   GL244560  27.850  29.940  14.060
 1892DOPG   C1A44561  27.510  30.040  13.610
 1892DOPG   D2A44562  27.070  30.050  13.700
 1892DOPG   C3A44563  26.730  29.900  13.600
 1892DOPG   C4A44564  26.290  29.820  13.570
 1892DOPG   C1B44565  27.620  29.640  13.950
 1892DOPG   D2B44566  27.240  29.610  13.630
 1892DOPG   C3B44567  27.080  29.420  13.960
 1892DOPG   C4B44568  26.860  29.060  14.120
 1893DOPG   GL044569  22.820  21.150   9.010
 1893DOPG   PO444570  23.180  21.290   9.260
 1893DOPG   GL144571  23.190  21.650   9.620
 1893DOPG   GL244572  23.290  21.480   9.820
 1893DOPG   C1A44573  22.830  21.940   9.700
 1893DOPG   D2A44574  22.480  21.890   9.830
 1893DOPG   C3A44575  22.190  22.210   9.760
 1893DOPG   C4A44576  21.900  22.440  10.000
 1893DOPG   C1B44577  22.850  21.410  10.050
 1893DOPG   D2B44578  22.390  21.300  10.010
 1893DOPG   C3B44579  21.940  21.520  10.050
 1893DOPG   C4B44580  21.470  21.540  10.140
 1894DOPG   GL044581  23.220  18.930   9.890
 1894DOPG   PO444582  22.810  18.630   9.930
 1894DOPG   GL144583  22.540  18.840  10.070
 1894DOPG   GL244584  22.810  19.150  10.160
 1894DOPG   C1A44585  22.100  18.880  10.340
 1894DOPG   D2A44586  21.760  18.700  10.570
 1894DOPG   C3A44587  21.430  18.920  10.870
 1894DOPG   C4A44588  21.160  19.270  11.000
 1894DOPG   C1B44589  22.440  19.290  10.340
 1894DOPG   D2B44590  22.070  19.620  10.430
 1894DOPG   C3B44591  21.760  19.790  10.710
 1894DOPG   C4B44592  21.580  19.710  11.090
 1895DOPG   GL044593  21.350  20.800  19.210
 1895DOPG   PO444594  21.040  21.050  19.120
 1895DOPG   GL144595  21.040  21.170  18.690
 1895DOPG   GL244596  21.180  21.470  18.540
 1895DOPG   C1A44597  20.850  21.290  18.230
 1895DOPG   D2A44598  20.930  21.580  17.920
 1895DOPG   C3A44599  21.180  21.810  17.630
 1895DOPG   C4A44600  21.590  21.850  17.680
 1895DOPG   C1B44601  20.760  21.720  18.390
 1895DOPG   D2B44602  20.450  21.760  18.170
 1895DOPG   C3B44603  20.020  21.510  17.930
 1895DOPG   C4B44604  19.870  21.150  17.790
 1896DOPG   GL044605  24.340  26.880  11.680
 1896DOPG   PO444606  24.260  26.520  11.400
 1896DOPG   GL144607  24.040  26.420  11.740
 1896DOPG   GL244608  23.730  26.200  11.640
 1896DOPG   C1A44609  23.650  26.530  12.050
 1896DOPG   D2A44610  23.700  26.590  12.490
 1896DOPG   C3A44611  24.000  26.490  12.710
 1896DOPG   C4A44612  24.010  26.110  12.960
 1896DOPG   C1B44613  23.540  25.740  11.530
 1896DOPG   D2B44614  23.250  25.410  11.480
 1896DOPG   C3B44615  23.290  24.960  11.480
 1896DOPG   C4B44616  23.390  24.680  11.110
 1897DOPG   GL044617  12.440  22.030  17.490
 1897DOPG   PO444618  12.590  21.740  17.640
 1897DOPG   GL144619  12.840  21.700  17.320
 1897DOPG   GL244620  12.760  21.890  17.030
 1897DOPG   C1A44621  13.080  21.360  17.090
 1897DOPG   D2A44622  13.500  21.140  16.830
 1897DOPG   C3A44623  13.820  21.280  16.400
 1897DOPG   C4A44624  13.910  21.370  15.970
 1897DOPG   C1B44625  12.990  21.660  16.740
 1897DOPG   D2B44626  13.340  21.540  16.570
 1897DOPG   C3B44627  13.430  21.630  16.100
 1897DOPG   C4B44628  13.820  21.740  15.650
 1898DOPG   GL044629  21.680  29.310  13.250
 1898DOPG   PO444630  21.800  29.730  13.110
 1898DOPG   GL144631  22.000  30.120  13.180
 1898DOPG   GL244632  22.100  30.230  13.490
 1898DOPG   C1A44633  21.970  30.490  13.050
 1898DOPG   D2A44634  22.060  30.910  13.090
 1898DOPG   C3A44635  22.350  31.070  12.890
 1898DOPG   C4A44636  22.510  31.460  12.780
 1898DOPG   C1B44637  22.230  30.640  13.530
 1898DOPG   D2B44638  22.290  31.040  13.630
 1898DOPG   C3B44639  22.140  31.420  13.330
 1898DOPG   C4B44640  22.150  31.740  13.040
 1899DOPG   GL044641  24.470  23.110  17.260
 1899DOPG   PO444642  24.540  23.500  17.020
 1899DOPG   GL144643  24.110  23.460  16.960
 1899DOPG   GL244644  24.070  23.550  16.630
 1899DOPG   C1A44645  23.810  23.180  16.890
 1899DOPG   D2A44646  23.460  22.830  16.980
 1899DOPG   C3A44647  22.960  23.080  16.940
 1899DOPG   C4A44648  22.870  23.360  16.550
 1899DOPG   C1B44649  23.800  23.560  16.180
 1899DOPG   D2B44650  23.560  23.650  15.800
 1899DOPG   C3B44651  23.140  23.910  15.710
 1899DOPG   C4B44652  22.750  24.120  15.580
 1900DOPG   GL044653   8.970  23.480  13.130
 1900DOPG   PO444654   9.180  23.870  13.270
 1900DOPG   GL144655   8.900  24.180  13.180
 1900DOPG   GL244656   8.900  24.290  13.450
 1900DOPG   C1A44657   8.500  24.490  12.980
 1900DOPG   D2A44658   8.160  24.910  13.050
 1900DOPG   C3A44659   7.890  25.300  13.040
 1900DOPG   C4A44660   7.710  25.570  12.800
 1900DOPG   C1B44661   8.480  24.260  13.400
 1900DOPG   D2B44662   8.280  24.640  13.490
 1900DOPG   C3B44663   7.860  24.850  13.710
 1900DOPG   C4B44664   7.520  25.180  13.450
 1901DOPG   GL044665  10.150  14.590   8.450
 1901DOPG   PO444666   9.740  14.890   8.560
 1901DOPG   GL144667  10.040  15.200   8.440
 1901DOPG   GL244668  10.120  15.560   8.510
 1901DOPG   C1A44669  10.530  15.120   8.350
 1901DOPG   D2A44670  10.800  14.850   8.020
 1901DOPG   C3A44671  11.130  15.080   8.080
 1901DOPG   C4A44672  11.430  15.200   8.400
 1901DOPG   C1B44673  10.560  15.870   8.460
 1901DOPG   D2B44674  11.040  16.020   8.480
 1901DOPG   C3B44675  11.380  15.890   8.680
 1901DOPG   C4B44676  11.620  16.090   8.780
 1902DOPG   GL044677  12.550  21.870   8.980
 1902DOPG   PO444678  12.540  22.220   8.780
 1902DOPG   GL144679  12.840  22.260   9.170
 1902DOPG   GL244680  12.810  21.960   9.410
 1902DOPG   C1A44681  13.300  21.980   9.280
 1902DOPG   D2A44682  13.620  21.750   9.520
 1902DOPG   C3A44683  13.550  21.710   9.960
 1902DOPG   C4A44684  13.410  21.470  10.230
 1902DOPG   C1B44685  13.050  21.650   9.540
 1902DOPG   D2B44686  13.280  21.320   9.490
 1902DOPG   C3B44687  13.580  21.110   9.890
 1902DOPG   C4B44688  13.850  20.720  10.110
 1903DOPG   GL044689  23.510  23.340   8.830
 1903DOPG   PO444690  23.480  23.850   8.750
 1903DOPG   GL144691  23.100  23.780   9.030
 1903DOPG   GL244692  22.980  23.530   9.090
 1903DOPG   C1A44693  22.920  23.890   9.430
 1903DOPG   D2A44694  22.860  24.260   9.570
 1903DOPG   C3A44695  22.410  24.350   9.650
 1903DOPG   C4A44696  22.020  24.530   9.740
 1903DOPG   C1B44697  22.550  23.350   9.270
 1903DOPG   D2B44698  22.210  23.230   9.560
 1903DOPG   C3B44699  21.940  23.520   9.890
 1903DOPG   C4B44700  21.810  23.520  10.330
 1904DOPG   GL044701  16.490  24.040  19.630
 1904DOPG   PO444702  16.250  24.270  20.000
 1904DOPG   GL144703  16.460  24.190  20.440
 1904DOPG   GL244704  16.590  24.000  20.670
 1904DOPG   C1A44705  16.550  24.330  21.010
 1904DOPG   D2A44706  16.630  24.700  21.200
 1904DOPG   C3A44707  16.400  24.820  21.530
 1904DOPG   C4A44708  16.120  24.540  21.530
 1904DOPG   C1B44709  16.090  24.200  20.820
 1904DOPG   D2B44710  15.670  24.060  20.710
 1904DOPG   C3B44711  15.330  24.050  21.030
 1904DOPG   C4B44712  15.290  24.330  21.340
 1905DOPG   GL044713  18.340  21.050  19.550
 1905DOPG   PO444714  18.490  21.450  19.640
 1905DOPG   GL144715  18.530  21.430  19.160
 1905DOPG   GL244716  18.290  21.450  18.900
 1905DOPG   C1A44717  18.810  21.580  18.790
 1905DOPG   D2A44718  18.770  21.930  18.490
 1905DOPG   C3A44719  18.500  22.050  18.160
 1905DOPG   C4A44720  18.550  22.390  17.870
 1905DOPG   C1B44721  18.390  21.560  18.470
 1905DOPG   D2B44722  18.720  21.480  18.140
 1905DOPG   C3B44723  18.670  21.740  17.780
 1905DOPG   C4B44724  18.370  22.070  17.480
 1906DOPG   GL044725  26.910  26.420  21.450
 1906DOPG   PO444726  26.630  26.790  21.390
 1906DOPG   GL144727  26.350  26.770  21.000
 1906DOPG   GL244728  26.270  26.470  20.770
 1906DOPG   C1A44729  26.050  27.010  20.720
 1906DOPG   D2A44730  25.950  27.150  20.370
 1906DOPG   C3A44731  25.540  27.290  20.230
 1906DOPG   C4A44732  25.190  27.210  19.840
 1906DOPG   C1B44733  25.900  26.570  20.620
 1906DOPG   D2B44734  25.620  26.820  20.320
 1906DOPG   C3B44735  25.420  26.800  19.990
 1906DOPG   C4B44736  24.970  26.730  19.850
 1907DOPG   GL044737  24.850  18.210  13.120
 1907DOPG   PO444738  24.810  18.580  12.800
 1907DOPG   GL144739  25.260  18.510  13.030
 1907DOPG   GL244740  25.460  18.770  13.080
 1907DOPG   C1A44741  25.680  18.320  12.830
 1907DOPG   D2A44742  26.060  18.190  12.970
 1907DOPG   C3A44743  26.150  18.370  13.400
 1907DOPG   C4A44744  25.780  18.640  13.470
 1907DOPG   C1B44745  25.970  18.720  13.010
 1907DOPG   D2B44746  26.280  18.720  12.890
 1907DOPG   C3B44747  26.530  18.430  12.990
 1907DOPG   C4B44748  26.520  17.990  13.230
 1908DOPG   GL044749   7.070  19.950   5.660
 1908DOPG   PO444750   7.240  19.770   5.970
 1908DOPG   GL144751   7.620  19.600   6.170
 1908DOPG   GL244752   7.610  19.410   6.470
 1908DOPG   C1A44753   7.940  19.320   6.050
 1908DOPG   D2A44754   8.010  18.900   6.250
 1908DOPG   C3A44755   8.470  18.730   6.440
 1908DOPG   C4A44756   8.940  18.690   6.640
 1908DOPG   C1B44757   8.030  19.400   6.540
 1908DOPG   D2B44758   8.410  19.230   6.540
 1908DOPG   C3B44759   8.790  19.240   6.660
 1908DOPG   C4B44760   9.150  19.030   6.960
 1909DOPG   GL044761  29.730  22.440   8.210
 1909DOPG   PO444762  29.590  22.660   8.680
 1909DOPG   GL144763  29.280  22.870   9.040
 1909DOPG   GL244764  29.000  23.030   9.040
 1909DOPG   C1A44765  29.200  22.720   9.440
 1909DOPG   D2A44766  28.960  22.740   9.780
 1909DOPG   C3A44767  28.630  22.580  10.020
 1909DOPG   C4A44768  28.300  22.450   9.960
 1909DOPG   C1B44769  28.630  23.000   9.290
 1909DOPG   D2B44770  28.670  23.130   9.610
 1909DOPG   C3B44771  28.300  22.920   9.810
 1909DOPG   C4B44772  27.870  22.790   9.930
 1910DOPG   GL044773  20.560  30.100  14.620
 1910DOPG   PO444774  20.740  30.420  14.370
 1910DOPG   GL144775  20.410  30.640  14.410
 1910DOPG   GL244776  20.470  30.720  14.660
 1910DOPG   C1A44777  20.070  30.950  14.510
 1910DOPG   D2A44778  19.890  31.240  14.890
 1910DOPG   C3A44779  19.940  31.340  15.280
 1910DOPG   C4A44780  19.980  31.020  15.570
 1910DOPG   C1B44781  20.610  31.130  14.770
 1910DOPG   D2B44782  20.320  31.480  14.980
 1910DOPG   C3B44783  20.170  31.780  15.300
 1910DOPG   C4B44784  20.340  32.230  15.270
 1911DOPG   GL044785  13.580  13.910  13.740
 1911DOPG   PO444786  13.540  14.300  13.550
 1911DOPG   GL144787  13.210  14.430  13.270
 1911DOPG   GL244788  13.120  14.110  13.000
 1911DOPG   C1A44789  12.860  14.650  13.380
 1911DOPG   D2A44790  12.410  14.930  13.350
 1911DOPG   C3A44791  12.340  15.320  13.410
 1911DOPG   C4A44792  12.170  15.710  13.700
 1911DOPG   C1B44793  12.810  14.320  12.760
 1911DOPG   D2B44794  12.550  14.590  12.550
 1911DOPG   C3B44795  12.760  14.690  12.160
 1911DOPG   C4B44796  13.050  14.830  11.890
 1912DOPG   GL044797  20.150  18.200  18.410
 1912DOPG   PO444798  19.900  18.020  18.680
 1912DOPG   GL144799  19.710  17.950  18.290
 1912DOPG   GL244800  19.500  18.210  18.320
 1912DOPG   C1A44801  19.590  17.710  18.060
 1912DOPG   D2A44802  19.470  17.320  17.760
 1912DOPG   C3A44803  19.430  17.480  17.410
 1912DOPG   C4A44804  19.590  17.300  16.970
 1912DOPG   C1B44805  19.410  18.310  17.890
 1912DOPG   D2B44806  19.260  18.470  17.520
 1912DOPG   C3B44807  19.370  18.190  17.220
 1912DOPG   C4B44808  19.380  17.800  16.940
 1913DOPG   GL044809  14.330  32.220  17.060
 1913DOPG   PO444810  13.920  32.040  17.240
 1913DOPG   GL144811  14.280  31.720  17.210
 1913DOPG   GL244812  14.050  31.520  17.080
 1913DOPG   C1A44813  14.590  31.370  16.960
 1913DOPG   D2A44814  14.910  31.050  16.920
 1913DOPG   C3A44815  15.160  31.100  16.540
 1913DOPG   C4A44816  14.960  30.990  16.090
 1913DOPG   C1B44817  14.270  31.290  17.420
 1913DOPG   D2B44818  14.290  30.960  17.670
 1913DOPG   C3B44819  14.460  30.690  17.420
 1913DOPG   C4B44820  14.920  30.690  17.310
 1914DOPG   GL044821  22.200  28.220  23.050
 1914DOPG   PO444822  22.130  27.850  22.820
 1914DOPG   GL144823  22.120  27.810  22.430
 1914DOPG   GL244824  21.820  27.800  22.310
 1914DOPG   C1A44825  22.310  27.580  22.170
 1914DOPG   D2A44826  22.370  27.640  21.730
 1914DOPG   C3A44827  22.170  27.390  21.350
 1914DOPG   C4A44828  21.930  27.170  20.940
 1914DOPG   C1B44829  21.820  27.460  22.090
 1914DOPG   D2B44830  22.030  27.210  21.790
 1914DOPG   C3B44831  22.430  27.070  21.830
 1914DOPG   C4B44832  22.490  26.770  21.580
 1915DOPG   GL044833  15.600  27.200  23.470
 1915DOPG   PO444834  15.550  27.370  23.020
 1915DOPG   GL144835  15.870  27.140  22.770
 1915DOPG   GL244836  16.100  27.280  22.460
 1915DOPG   C1A44837  16.170  26.800  22.660
 1915DOPG   D2A44838  16.580  26.820  22.390
 1915DOPG   C3A44839  16.570  26.950  21.870
 1915DOPG   C4A44840  16.440  26.920  21.500
 1915DOPG   C1B44841  16.160  27.030  22.180
 1915DOPG   D2B44842  16.170  26.640  21.970
 1915DOPG   C3B44843  16.510  26.480  21.790
 1915DOPG   C4B44844  16.780  26.520  21.430
 1916DOPG   GL044845  13.300  13.690  13.390
 1916DOPG   PO444846  13.120  13.350  13.420
 1916DOPG   GL144847  12.800  13.630  13.370
 1916DOPG   GL244848  12.710  13.460  13.090
 1916DOPG   C1A44849  12.420  13.760  13.470
 1916DOPG   D2A44850  12.110  14.120  13.630
 1916DOPG   C3A44851  12.170  14.470  13.830
 1916DOPG   C4A44852  12.230  14.890  13.800
 1916DOPG   C1B44853  12.580  13.810  12.880
 1916DOPG   D2B44854  12.240  14.120  12.850
 1916DOPG   C3B44855  11.980  14.100  13.130
 1916DOPG   C4B44856  11.750  13.740  13.250
 1917DOPG   GL044857  10.170  14.830  16.840
 1917DOPG   PO444858  10.540  14.810  16.660
 1917DOPG   GL144859  10.700  14.490  16.460
 1917DOPG   GL244860  11.100  14.490  16.610
 1917DOPG   C1A44861  10.430  14.010  16.540
 1917DOPG   D2A44862  10.170  13.780  16.440
 1917DOPG   C3A44863  10.270  13.410  16.440
 1917DOPG   C4A44864  10.650  13.110  16.290
 1917DOPG   C1B44865  10.900  14.020  16.720
 1917DOPG   D2B44866  10.780  13.570  16.640
 1917DOPG   C3B44867  10.750  13.210  16.750
 1917DOPG   C4B44868  10.550  12.790  16.630
 1918DOPG   GL044869  24.190  19.680  11.200
 1918DOPG   PO444870  23.940  19.520  11.520
 1918DOPG   GL144871  23.580  19.680  11.630
 1918DOPG   GL244872  23.360  19.440  11.670
 1918DOPG   C1A44873  23.210  19.960  11.740
 1918DOPG   D2A44874  22.700  20.020  11.750
 1918DOPG   C3A44875  22.500  20.380  11.670
 1918DOPG   C4A44876  22.650  20.450  11.180
 1918DOPG   C1B44877  22.900  19.550  11.580
 1918DOPG   D2B44878  22.510  19.780  11.370
 1918DOPG   C3B44879  22.350  20.110  11.070
 1918DOPG   C4B44880  22.100  20.430  11.040
 1919DOPG   GL044881  13.100  17.820   8.070
 1919DOPG   PO444882  12.750  17.940   8.190
 1919DOPG   GL144883  12.470  17.730   8.360
 1919DOPG   GL244884  12.370  17.530   8.150
 1919DOPG   C1A44885  12.140  17.520   8.580
 1919DOPG   D2A44886  12.160  17.500   9.030
 1919DOPG   C3A44887  11.990  17.870   9.200
 1919DOPG   C4A44888  11.970  18.240   9.090
 1919DOPG   C1B44889  11.930  17.390   8.070
 1919DOPG   D2B44890  11.660  17.210   8.460
 1919DOPG   C3B44891  11.780  17.260   8.800
 1919DOPG   C4B44892  11.800  17.250   9.310
 1920DOPG   GL044893  14.180  17.590   5.600
 1920DOPG   PO444894  13.980  17.750   5.300
 1920DOPG   GL144895  13.820  17.580   4.870
 1920DOPG   GL244896  13.620  17.260   4.900
 1920DOPG   C1A44897  13.830  17.810   4.370
 1920DOPG   D2A44898  14.110  18.140   4.430
 1920DOPG   C3A44899  14.500  18.010   4.190
 1920DOPG   C4A44900  14.740  17.690   4.100
 1920DOPG   C1B44901  13.430  17.260   4.550
 1920DOPG   D2B44902  13.090  17.350   4.350
 1920DOPG   C3B44903  12.870  17.450   4.690
 1920DOPG   C4B44904  12.600  17.790   4.940
 1921DOPG   GL044905  19.600  25.270  19.530
 1921DOPG   PO444906  19.910  25.060  19.420
 1921DOPG   GL144907  19.780  24.820  19.070
 1921DOPG   GL244908  19.340  24.850  19.130
 1921DOPG   C1A44909  19.980  24.940  18.730
 1921DOPG   D2A44910  20.420  25.010  18.590
 1921DOPG   C3A44911  20.480  24.680  18.240
 1921DOPG   C4A44912  20.530  24.500  17.910
 1921DOPG   C1B44913  19.460  24.910  18.720
 1921DOPG   D2B44914  19.680  24.850  18.310
 1921DOPG   C3B44915  20.110  25.100  18.230
 1921DOPG   C4B44916  20.590  25.080  17.940
 1922DOPG   GL044917  10.060  14.580   5.760
 1922DOPG   PO444918  10.430  14.390   5.630
 1922DOPG   GL144919  10.630  14.830   5.810
 1922DOPG   GL244920  10.540  15.100   5.710
 1922DOPG   C1A44921  10.990  14.970   6.030
 1922DOPG   D2A44922  11.160  15.380   6.160
 1922DOPG   C3A44923  11.520  15.270   6.440
 1922DOPG   C4A44924  11.940  15.100   6.560
 1922DOPG   C1B44925  11.040  15.240   5.600
 1922DOPG   D2B44926  11.520  15.420   5.550
 1922DOPG   C3B44927  11.590  15.640   5.920
 1922DOPG   C4B44928  11.730  16.010   6.180
 1923DOPG   GL044929  22.410  19.710  19.970
 1923DOPG   PO444930  22.760  19.950  19.860
 1923DOPG   GL144931  23.020  20.160  20.090
 1923DOPG   GL244932  23.190  19.880  20.290
 1923DOPG   C1A44933  23.250  20.510  20.320
 1923DOPG   D2A44934  23.580  20.580  20.610
 1923DOPG   C3A44935  23.970  20.580  20.520
 1923DOPG   C4A44936  24.240  20.280  20.740
 1923DOPG   C1B44937  23.460  20.090  20.450
 1923DOPG   D2B44938  23.790  20.100  20.640
 1923DOPG   C3B44939  23.990  19.840  20.700
 1923DOPG   C4B44940  24.010  19.440  20.890
 1924DOPG   GL044941   7.910  15.100  15.370
 1924DOPG   PO444942   8.120  14.750  15.070
 1924DOPG   GL144943   8.310  15.040  15.030
 1924DOPG   GL244944   8.180  15.440  15.140
 1924DOPG   C1A44945   8.710  15.330  14.980
 1924DOPG   D2A44946   9.110  15.600  14.860
 1924DOPG   C3A44947   9.180  15.940  14.830
 1924DOPG   C4A44948   8.980  16.320  14.760
 1924DOPG   C1B44949   8.470  15.210  15.440
 1924DOPG   D2B44950   8.950  15.300  15.600
 1924DOPG   C3B44951   9.090  15.690  15.820
 1924DOPG   C4B44952   9.050  16.040  15.770
 1925DOPG   GL044953  10.920  16.610  17.480
 1925DOPG   PO444954  10.660  16.210  17.350
 1925DOPG   GL144955  10.190  16.150  17.290
 1925DOPG   GL244956  10.010  16.340  17.280
 1925DOPG   C1A44957   9.800  15.900  17.210
 1925DOPG   D2A44958   9.630  15.510  17.160
 1925DOPG   C3A44959   9.690  15.330  16.790
 1925DOPG   C4A44960   9.920  15.280  16.420
 1925DOPG   C1B44961   9.500  16.490  17.250
 1925DOPG   D2B44962   9.350  16.730  17.590
 1925DOPG   C3B44963   8.940  16.610  17.790
 1925DOPG   C4B44964   8.660  16.780  18.050
 1926DOPG   GL044965  16.660  28.730  14.410
 1926DOPG   PO444966  16.870  28.490  14.740
 1926DOPG   GL144967  16.910  28.150  14.400
 1926DOPG   GL244968  16.690  28.000  14.160
 1926DOPG   C1A44969  17.260  27.800  14.340
 1926DOPG   D2A44970  17.340  27.440  14.240
 1926DOPG   C3A44971  17.520  27.300  13.840
 1926DOPG   C4A44972  17.460  27.050  13.410
 1926DOPG   C1B44973  16.790  27.850  13.770
 1926DOPG   D2B44974  16.720  27.770  13.330
 1926DOPG   C3B44975  16.790  27.330  13.160
 1926DOPG   C4B44976  17.020  26.920  13.080
 1927DOPG   GL044977  20.310  33.870   9.790
 1927DOPG   PO444978  20.240  33.580  10.110
 1927DOPG   GL144979  20.280  33.250  10.130
 1927DOPG   GL244980  20.260  33.140   9.790
 1927DOPG   C1A44981  20.380  32.890  10.500
 1927DOPG   D2A44982  20.690  32.510  10.380
 1927DOPG   C3A44983  21.030  32.260  10.560
 1927DOPG   C4A44984  21.380  31.860  10.530
 1927DOPG   C1B44985  19.870  32.750   9.740
 1927DOPG   D2B44986  19.580  32.360   9.700
 1927DOPG   C3B44987  19.570  32.100  10.030
 1927DOPG   C4B44988  19.730  32.100  10.390
 1928DOPG   GL044989  17.580  22.580  19.850
 1928DOPG   PO444990  17.920  22.530  19.610
 1928DOPG   GL144991  18.020  22.490  19.180
 1928DOPG   GL244992  17.700  22.440  18.980
 1928DOPG   C1A44993  18.150  22.480  18.790
 1928DOPG   D2A44994  18.410  22.560  18.450
 1928DOPG   C3A44995  18.110  22.790  18.150
 1928DOPG   C4A44996  17.970  23.140  17.830
 1928DOPG   C1B44997  17.760  22.450  18.460
 1928DOPG   D2B44998  18.070  22.320  18.080
 1928DOPG   C3B44999  18.150  22.560  17.670
 1928DOPG   C4B45000  18.410  22.860  17.540
 1929DOPG   GL045001  23.240  23.660   8.310
 1929DOPG   PO445002  22.930  23.300   8.160
 1929DOPG   GL145003  22.600  23.270   8.360
 1929DOPG   GL245004  22.500  23.390   8.720
 1929DOPG   C1A45005  22.250  22.990   8.600
 1929DOPG   D2A45006  21.840  22.750   8.510
 1929DOPG   C3A45007  21.750  22.300   8.420
 1929DOPG   C4A45008  21.630  21.930   8.540
 1929DOPG   C1B45009  22.130  23.410   8.450
 1929DOPG   D2B45010  21.790  23.680   8.220
 1929DOPG   C3B45011  21.650  23.950   8.410
 1929DOPG   C4B45012  21.440  24.000   8.710
 1930DOPG   GL045013  17.800  25.850  19.940
 1930DOPG   PO445014  17.650  25.440  20.060
 1930DOPG   GL145015  17.580  25.620  20.430
 1930DOPG   GL245016  17.390  25.910  20.510
 1930DOPG   C1A45017  17.530  25.500  20.810
 1930DOPG   D2A45018  17.440  25.450  21.120
 1930DOPG   C3A45019  17.600  25.730  21.420
 1930DOPG   C4A45020  17.790  26.130  21.700
 1930DOPG   C1B45021  17.210  26.320  20.620
 1930DOPG   D2B45022  16.950  26.370  21.000
 1930DOPG   C3B45023  16.830  26.080  21.240
 1930DOPG   C4B45024  16.600  25.770  21.610
 1931DOPG   GL045025  12.530  23.840  23.460
 1931DOPG   PO445026  12.460  23.380  23.410
 1931DOPG   GL145027  12.470  23.370  22.970
 1931DOPG   GL245028  12.530  23.650  22.840
 1931DOPG   C1A45029  12.500  23.340  22.450
 1931DOPG   D2A45030  12.500  23.270  22.020
 1931DOPG   C3A45031  12.720  23.340  21.550
 1931DOPG   C4A45032  12.890  23.530  21.160
 1931DOPG   C1B45033  12.950  23.450  22.770
 1931DOPG   D2B45034  13.220  23.220  22.590
 1931DOPG   C3B45035  13.440  23.190  22.200
 1931DOPG   C4B45036  13.690  23.090  21.920
 1932DOPG   GL045037  12.720  23.300  17.110
 1932DOPG   PO445038  12.900  22.940  17.060
 1932DOPG   GL145039  12.910  22.680  16.710
 1932DOPG   GL245040  12.860  22.300  16.680
 1932DOPG   C1A45041  12.900  22.390  16.260
 1932DOPG   D2A45042  13.110  22.450  15.810
 1932DOPG   C3A45043  13.330  22.320  15.400
 1932DOPG   C4A45044  13.670  22.150  15.170
 1932DOPG   C1B45045  13.270  22.060  16.640
 1932DOPG   D2B45046  13.680  22.170  16.710
 1932DOPG   C3B45047  13.860  22.450  16.600
 1932DOPG   C4B45048  13.990  22.840  16.560
 1933DOPG   GL045049  16.300  15.010   9.590
 1933DOPG   PO445050  16.660  15.040   9.810
 1933DOPG   GL145051  16.900  15.360  10.100
 1933DOPG   GL245052  17.180  15.420  10.200
 1933DOPG   C1A45053  16.820  15.530  10.580
 1933DOPG   D2A45054  16.920  15.790  11.020
 1933DOPG   C3A45055  16.990  16.210  11.040
 1933DOPG   C4A45056  16.990  16.750  11.160
 1933DOPG   C1B45057  16.890  15.840  10.180
 1933DOPG   D2B45058  16.820  16.060  10.580
 1933DOPG   C3B45059  16.500  16.090  10.920
 1933DOPG   C4B45060  16.220  16.250  11.140
 1934DOPG   GL045061   8.570  21.800  13.490
 1934DOPG   PO445062   8.670  21.570  13.830
 1934DOPG   GL145063   8.230  21.550  13.780
 1934DOPG   GL245064   8.210  21.580  14.090
 1934DOPG   C1A45065   7.880  21.580  13.600
 1934DOPG   D2A45066   7.570  21.340  13.380
 1934DOPG   C3A45067   7.230  21.460  13.270
 1934DOPG   C4A45068   6.920  21.150  13.230
 1934DOPG   C1B45069   7.960  21.980  13.960
 1934DOPG   D2B45070   7.530  21.960  14.100
 1934DOPG   C3B45071   7.300  22.280  13.870
 1934DOPG   C4B45072   7.280  22.430  13.380
 1935DOPG   GL045073  19.490  23.540  19.630
 1935DOPG   PO445074  19.350  23.670  19.340
 1935DOPG   GL145075  19.400  23.260  19.180
 1935DOPG   GL245076  19.690  23.220  19.190
 1935DOPG   C1A45077  19.240  23.130  18.790
 1935DOPG   D2A45078  19.230  23.060  18.390
 1935DOPG   C3A45079  19.150  23.480  18.190
 1935DOPG   C4A45080  19.230  23.990  18.270
 1935DOPG   C1B45081  19.820  23.010  18.890
 1935DOPG   D2B45082  19.740  22.930  18.420
 1935DOPG   C3B45083  20.020  22.920  18.230
 1935DOPG   C4B45084  20.220  22.740  17.990
 1936DOPG   GL045085  15.070  28.030  12.730
 1936DOPG   PO445086  15.440  28.110  12.960
 1936DOPG   GL145087  15.820  27.850  12.930
 1936DOPG   GL245088  16.080  27.850  13.200
 1936DOPG   C1A45089  15.990  27.540  12.570
 1936DOPG   D2A45090  15.900  27.160  12.290
 1936DOPG   C3A45091  15.500  27.030  12.210
 1936DOPG   C4A45092  15.300  26.570  12.170
 1936DOPG   C1B45093  16.100  27.470  13.390
 1936DOPG   D2B45094  16.180  27.030  13.220
 1936DOPG   C3B45095  16.210  26.970  12.740
 1936DOPG   C4B45096  16.140  26.590  12.570
 1937DOPG   GL045097  22.470  27.530   9.000
 1937DOPG   PO445098  22.780  27.780   9.070
 1937DOPG   GL145099  22.770  27.990   8.600
 1937DOPG   GL245100  23.010  27.980   8.510
 1937DOPG   C1A45101  22.500  28.000   8.240
 1937DOPG   D2A45102  22.430  28.030   7.730
 1937DOPG   C3A45103  22.840  28.030   7.470
 1937DOPG   C4A45104  23.180  28.330   7.550
 1937DOPG   C1B45105  23.070  28.450   8.390
 1937DOPG   D2B45106  22.990  28.790   8.090
 1937DOPG   C3B45107  23.140  29.190   8.090
 1937DOPG   C4B45108  23.010  29.590   8.190
 1938DOPG   GL045109  21.400  22.010   6.730
 1938DOPG   PO445110  21.360  21.800   7.060
 1938DOPG   GL145111  21.290  22.100   7.320
 1938DOPG   GL245112  21.100  22.250   7.090
 1938DOPG   C1A45113  21.480  22.210   7.710
 1938DOPG   D2A45114  21.280  22.430   8.060
 1938DOPG   C3A45115  21.220  22.280   8.420
 1938DOPG   C4A45116  21.140  21.910   8.760
 1938DOPG   C1B45117  20.780  22.020   7.360
 1938DOPG   D2B45118  20.480  21.780   7.610
 1938DOPG   C3B45119  20.280  21.770   7.990
 1938DOPG   C4B45120  20.150  21.450   8.270
 1939DOPG   GL045121   5.630  20.820   7.880
 1939DOPG   PO445122   5.780  21.260   8.110
 1939DOPG   GL145123   6.200  21.390   8.400
 1939DOPG   GL245124   6.400  21.310   8.730
 1939DOPG   C1A45125   6.590  21.580   8.310
 1939DOPG   D2A45126   6.900  21.650   8.000
 1939DOPG   C3A45127   7.040  22.070   8.010
 1939DOPG   C4A45128   7.130  22.510   7.900
 1939DOPG   C1B45129   6.640  21.180   9.040
 1939DOPG   D2B45130   6.840  20.780   9.250
 1939DOPG   C3B45131   7.190  20.780   9.530
 1939DOPG   C4B45132   7.560  20.690   9.590
 1940DOPG   GL045133  21.570  29.050  11.160
 1940DOPG   PO445134  21.590  28.650  11.330
 1940DOPG   GL145135  21.290  28.230  11.340
 1940DOPG   GL245136  21.230  28.290  11.590
 1940DOPG   C1A45137  21.100  27.930  11.310
 1940DOPG   D2A45138  20.990  27.700  11.770
 1940DOPG   C3A45139  21.050  27.260  11.780
 1940DOPG   C4A45140  21.090  26.790  11.830
 1940DOPG   C1B45141  21.450  27.980  11.810
 1940DOPG   D2B45142  21.440  27.500  11.930
 1940DOPG   C3B45143  21.340  27.310  12.250
 1940DOPG   C4B45144  21.100  27.050  12.390
 1941DOPG   GL045145  16.960  24.510  18.250
 1941DOPG   PO445146  16.590  24.340  18.290
 1941DOPG   GL145147  16.330  24.020  18.160
 1941DOPG   GL245148  16.180  24.120  17.830
 1941DOPG   C1A45149  16.350  23.640  17.890
 1941DOPG   D2A45150  16.490  23.440  17.500
 1941DOPG   C3A45151  16.780  23.520  17.160
 1941DOPG   C4A45152  16.960  23.540  16.720
 1941DOPG   C1B45153  16.400  23.940  17.460
 1941DOPG   D2B45154  16.620  24.010  17.040
 1941DOPG   C3B45155  16.430  24.010  16.610
 1941DOPG   C4B45156  16.470  24.180  16.190
 1942DOPG   GL045157  19.360  13.460  11.340
 1942DOPG   PO445158  19.390  13.170  11.650
 1942DOPG   GL145159  19.620  12.890  11.390
 1942DOPG   GL245160  19.780  12.960  11.330
 1942DOPG   C1A45161  19.390  12.500  11.300
 1942DOPG   D2A45162  19.520  12.220  11.050
 1942DOPG   C3A45163  19.500  11.830  10.970
 1942DOPG   C4A45164  19.860  11.580  10.980
 1942DOPG   C1B45165  19.930  12.460  11.130
 1942DOPG   D2B45166  19.990  12.140  10.850
 1942DOPG   C3B45167  20.260  11.830  10.880
 1942DOPG   C4B45168  20.320  11.470  10.770
 1943DOPG   GL045169  13.110  23.350   8.850
 1943DOPG   PO445170  13.200  22.950   8.870
 1943DOPG   GL145171  13.290  22.660   9.110
 1943DOPG   GL245172  13.050  22.650   9.400
 1943DOPG   C1A45173  13.520  22.390   9.290
 1943DOPG   D2A45174  13.780  22.000   9.100
 1943DOPG   C3A45175  14.070  21.750   9.360
 1943DOPG   C4A45176  14.420  21.530   9.190
 1943DOPG   C1B45177  13.050  22.330   9.640
 1943DOPG   D2B45178  13.240  22.060   9.780
 1943DOPG   C3B45179  13.790  22.120   9.810
 1943DOPG   C4B45180  14.180  22.160   9.620
 1944DOPG   GL045181  10.960  21.040  11.760
 1944DOPG   PO445182  10.840  21.160  11.310
 1944DOPG   GL145183  11.070  20.790  11.340
 1944DOPG   GL245184  11.310  20.680  11.640
 1944DOPG   C1A45185  11.190  20.400  11.160
 1944DOPG   D2A45186  11.320  20.020  11.170
 1944DOPG   C3A45187  11.460  19.940  11.470
 1944DOPG   C4A45188  11.880  19.670  11.570
 1944DOPG   C1B45189  11.570  20.780  11.910
 1944DOPG   D2B45190  12.010  20.960  12.100
 1944DOPG   C3B45191  12.100  20.920  12.530
 1944DOPG   C4B45192  11.940  20.730  12.900
 1945DOPG   GL045193  20.160  15.830  17.510
 1945DOPG   PO445194  20.360  15.780  17.000
 1945DOPG   GL145195  19.960  16.060  16.730
 1945DOPG   GL245196  20.040  16.030  16.320
 1945DOPG   C1A45197  19.880  16.480  16.920
 1945DOPG   D2A45198  19.950  16.820  17.030
 1945DOPG   C3A45199  20.070  17.070  16.640
 1945DOPG   C4A45200  20.200  17.430  16.290
 1945DOPG   C1B45201  19.630  16.250  16.400
 1945DOPG   D2B45202  19.340  16.400  16.650
 1945DOPG   C3B45203  19.000  16.650  16.520
 1945DOPG   C4B45204  18.870  16.900  16.200
 1946DOPG   GL045205   5.720  24.630   8.620
 1946DOPG   PO445206   5.810  24.850   9.020
 1946DOPG   GL145207   6.040  24.500   9.100
 1946DOPG   GL245208   5.920  24.390   9.390
 1946DOPG   C1A45209   6.370  24.530   8.850
 1946DOPG   D2A45210   6.630  24.780   8.670
 1946DOPG   C3A45211   6.950  24.860   9.040
 1946DOPG   C4A45212   7.200  24.760   9.470
 1946DOPG   C1B45213   6.300  24.250   9.470
 1946DOPG   D2B45214   6.650  24.070   9.710
 1946DOPG   C3B45215   6.940  23.840   9.520
 1946DOPG   C4B45216   6.970  23.600   9.070
 1947DOPG   GL045217  19.930  16.420  17.390
 1947DOPG   PO445218  20.370  16.690  17.340
 1947DOPG   GL145219  20.380  17.080  17.130
 1947DOPG   GL245220  20.650  17.150  16.950
 1947DOPG   C1A45221  20.120  17.420  17.100
 1947DOPG   D2A45222  19.900  17.720  16.930
 1947DOPG   C3A45223  19.780  17.970  17.250
 1947DOPG   C4A45224  19.770  17.770  17.610
 1947DOPG   C1B45225  20.430  17.540  16.740
 1947DOPG   D2B45226  20.260  17.890  16.520
 1947DOPG   C3B45227  19.990  17.880  16.290
 1947DOPG   C4B45228  19.430  17.750  16.190
 1948DOPG   GL045229  14.660  15.750   8.510
 1948DOPG   PO445230  14.420  15.950   8.820
 1948DOPG   GL145231  14.600  16.140   9.230
 1948DOPG   GL245232  14.970  16.270   9.360
 1948DOPG   C1A45233  14.460  16.420   9.600
 1948DOPG   D2A45234  14.110  16.700   9.730
 1948DOPG   C3A45235  13.730  16.580   9.940
 1948DOPG   C4A45236  13.630  16.480  10.170
 1948DOPG   C1B45237  14.970  16.220   9.840
 1948DOPG   D2B45238  14.840  16.280  10.260
 1948DOPG   C3B45239  14.520  16.250  10.600
 1948DOPG   C4B45240  14.360  15.910  10.800
 1949DOPG   GL045241  23.750  23.790  18.520
 1949DOPG   PO445242  23.850  23.490  18.850
 1949DOPG   GL145243  23.930  23.460  19.410
 1949DOPG   GL245244  23.740  23.280  19.650
 1949DOPG   C1A45245  24.170  23.420  19.840
 1949DOPG   D2A45246  24.220  23.610  20.260
 1949DOPG   C3A45247  24.440  23.530  20.650
 1949DOPG   C4A45248  24.800  23.410  20.850
 1949DOPG   C1B45249  23.650  23.270  20.060
 1949DOPG   D2B45250  23.790  23.360  20.360
 1949DOPG   C3B45251  23.890  23.610  20.650
 1949DOPG   C4B45252  24.100  23.650  21.060
 1950DOPG   GL045253  21.890  29.390  12.710
 1950DOPG   PO445254  21.900  29.770  12.590
 1950DOPG   GL145255  22.070  30.160  12.640
 1950DOPG   GL245256  22.390  30.230  12.810
 1950DOPG   C1A45257  22.290  30.630  12.570
 1950DOPG   D2A45258  22.350  31.100  12.270
 1950DOPG   C3A45259  22.130  31.430  12.060
 1950DOPG   C4A45260  21.970  31.880  12.080
 1950DOPG   C1B45261  22.480  30.590  13.070
 1950DOPG   D2B45262  22.840  30.890  13.160
 1950DOPG   C3B45263  22.690  31.280  13.380
 1950DOPG   C4B45264  22.620  31.770  13.230
 1951DOPG   GL045265  19.590  27.440  17.660
 1951DOPG   PO445266  19.520  27.750  17.260
 1951DOPG   GL145267  19.390  27.380  17.210
 1951DOPG   GL245268  19.470  27.180  16.880
 1951DOPG   C1A45269  19.120  26.920  17.220
 1951DOPG   D2A45270  19.120  26.470  17.390
 1951DOPG   C3A45271  19.200  26.060  17.170
 1951DOPG   C4A45272  19.130  26.000  16.790
 1951DOPG   C1B45273  19.400  27.100  16.450
 1951DOPG   D2B45274  19.120  26.970  16.210
 1951DOPG   C3B45275  19.210  26.540  15.990
 1951DOPG   C4B45276  19.490  26.170  15.950
 1952DOPG   GL045277  17.490  33.740  15.940
 1952DOPG   PO445278  17.730  34.030  16.210
 1952DOPG   GL145279  17.750  33.550  16.270
 1952DOPG   GL245280  18.040  33.610  16.080
 1952DOPG   C1A45281  18.010  33.210  16.470
 1952DOPG   D2A45282  18.430  32.950  16.630
 1952DOPG   C3A45283  18.670  32.640  16.330
 1952DOPG   C4A45284  18.820  32.320  16.030
 1952DOPG   C1B45285  17.820  33.420  15.800
 1952DOPG   D2B45286  17.720  33.150  15.410
 1952DOPG   C3B45287  17.440  33.280  15.010
 1952DOPG   C4B45288  17.030  33.070  14.920
 1953DOPG   GL045289  24.120  18.060  13.780
 1953DOPG   PO445290  23.750  18.180  13.900
 1953DOPG   GL145291  23.360  18.300  13.950
 1953DOPG   GL245292  23.170  17.970  13.890
 1953DOPG   C1A45293  22.970  18.450  13.810
 1953DOPG   D2A45294  22.660  18.700  13.780
 1953DOPG   C3A45295  22.290  18.840  13.660
 1953DOPG   C4A45296  22.180  19.210  13.440
 1953DOPG   C1B45297  22.700  17.940  13.980
 1953DOPG   D2B45298  22.410  18.220  13.770
 1953DOPG   C3B45299  21.960  18.040  13.520
 1953DOPG   C4B45300  21.670  17.970  13.840
 1954DOPG   GL045301  22.260  15.940  12.090
 1954DOPG   PO445302  22.250  16.210  12.280
 1954DOPG   GL145303  21.930  16.480  12.440
 1954DOPG   GL245304  21.840  16.340  12.730
 1954DOPG   C1A45305  22.100  16.900  12.570
 1954DOPG   D2A45306  22.020  17.310  12.720
 1954DOPG   C3A45307  22.310  17.540  12.860
 1954DOPG   C4A45308  22.410  17.880  12.810
 1954DOPG   C1B45309  21.540  16.460  13.100
 1954DOPG   D2B45310  21.230  16.710  13.420
 1954DOPG   C3B45311  20.760  16.750  13.280
 1954DOPG   C4B45312  20.710  17.080  12.860
 1955DOPG   GL045313  24.680  27.720  12.870
 1955DOPG   PO445314  24.670  27.280  12.760
 1955DOPG   GL145315  24.380  27.300  13.020
 1955DOPG   GL245316  24.080  27.320  12.920
 1955DOPG   C1A45317  24.200  26.930  13.270
 1955DOPG   D2A45318  24.040  26.510  13.530
 1955DOPG   C3A45319  23.760  26.240  13.420
 1955DOPG   C4A45320  23.300  26.040  13.290
 1955DOPG   C1B45321  23.640  27.100  12.900
 1955DOPG   D2B45322  23.300  26.990  12.890
 1955DOPG   C3B45323  22.990  26.750  13.140
 1955DOPG   C4B45324  22.850  26.510  13.480
 1956DOPG   GL045325  20.350   9.780  18.410
 1956DOPG   PO445326  20.320  10.060  18.120
 1956DOPG   GL145327  20.420  10.450  17.860
 1956DOPG   GL245328  20.360  10.410  17.480
 1956DOPG   C1A45329  20.310  10.870  17.960
 1956DOPG   D2A45330  20.110  11.110  17.550
 1956DOPG   C3A45331  20.020  11.530  17.350
 1956DOPG   C4A45332  20.170  11.910  17.020
 1956DOPG   C1B45333  20.020  10.600  17.570
 1956DOPG   D2B45334  19.710  10.880  17.720
 1956DOPG   C3B45335  19.520  11.190  17.500
 1956DOPG   C4B45336  19.640  11.210  17.090
 1957DOPG   GL045337  15.740  20.230  19.380
 1957DOPG   PO445338  16.000  20.580  19.410
 1957DOPG   GL145339  16.070  20.350  19.010
 1957DOPG   GL245340  16.260  20.410  18.730
 1957DOPG   C1A45341  16.170  19.920  18.690
 1957DOPG   D2A45342  16.210  19.510  18.430
 1957DOPG   C3A45343  16.560  19.300  18.430
 1957DOPG   C4A45344  16.930  19.280  18.030
 1957DOPG   C1B45345  16.570  20.510  18.470
 1957DOPG   D2B45346  16.430  20.820  18.120
 1957DOPG   C3B45347  16.070  20.800  17.800
 1957DOPG   C4B45348  16.000  21.270  17.570
 1958DOPG   GL045349  17.090  25.790  19.260
 1958DOPG   PO445350  17.080  25.540  19.610
 1958DOPG   GL145351  16.720  25.570  19.920
 1958DOPG   GL245352  16.670  25.410  20.230
 1958DOPG   C1A45353  16.430  25.860  20.200
 1958DOPG   D2A45354  16.320  26.000  20.680
 1958DOPG   C3A45355  15.990  26.210  20.880
 1958DOPG   C4A45356  15.600  26.340  21.000
 1958DOPG   C1B45357  16.530  25.500  20.620
 1958DOPG   D2B45358  16.580  25.680  20.950
 1958DOPG   C3B45359  16.340  25.950  21.220
 1958DOPG   C4B45360  16.330  26.430  21.260
 1959DOPG   GL045361  19.170  27.720   8.920
 1959DOPG   PO445362  18.870  27.640   9.250
 1959DOPG   GL145363  19.090  27.320   9.230
 1959DOPG   GL245364  19.510  27.330   9.200
 1959DOPG   C1A45365  19.200  26.950   9.490
 1959DOPG   D2A45366  19.470  26.710   9.730
 1959DOPG   C3A45367  19.810  26.730  10.020
 1959DOPG   C4A45368  19.960  26.860  10.420
 1959DOPG   C1B45369  19.710  27.080   9.510
 1959DOPG   D2B45370  20.170  27.020   9.720
 1959DOPG   C3B45371  20.260  26.610   9.800
 1959DOPG   C4B45372  20.130  26.360  10.060
 1960DOPG   GL045373  29.280  18.930  18.100
 1960DOPG   PO445374  29.290  19.110  17.770
 1960DOPG   GL145375  28.870  19.310  17.630
 1960DOPG   GL245376  28.770  19.130  17.390
 1960DOPG   C1A45377  28.380  19.240  17.680
 1960DOPG   D2A45378  27.890  19.310  17.680
 1960DOPG   C3A45379  27.610  18.930  17.830
 1960DOPG   C4A45380  27.470  18.490  17.850
 1960DOPG   C1B45381  28.630  19.430  17.250
 1960DOPG   D2B45382  28.160  19.640  17.320
 1960DOPG   C3B45383  27.860  19.740  16.980
 1960DOPG   C4B45384  27.450  19.960  17.130
 1961DOPG   GL045385  23.360  27.900  11.100
 1961DOPG   PO445386  23.310  27.440  11.080
 1961DOPG   GL145387  23.000  27.090  11.130
 1961DOPG   GL245388  22.720  27.000  10.890
 1961DOPG   C1A45389  22.830  26.600  11.270
 1961DOPG   D2A45390  22.430  26.470  11.150
 1961DOPG   C3A45391  21.970  26.410  11.400
 1961DOPG   C4A45392  21.630  26.280  11.610
 1961DOPG   C1B45393  22.520  27.270  11.270
 1961DOPG   D2B45394  22.290  27.520  11.550
 1961DOPG   C3B45395  21.880  27.470  11.670
 1961DOPG   C4B45396  21.500  27.590  11.460
 1962DOPG   GL045397  13.320  19.820  18.490
 1962DOPG   PO445398  13.010  20.170  18.440
 1962DOPG   GL145399  13.020  20.440  18.000
 1962DOPG   GL245400  13.300  20.490  17.890
 1962DOPG   C1A45401  13.090  20.130  17.600
 1962DOPG   D2A45402  13.110  20.020  17.130
 1962DOPG   C3A45403  13.200  19.640  16.920
 1962DOPG   C4A45404  13.290  19.320  16.680
 1962DOPG   C1B45405  13.380  20.480  17.490
 1962DOPG   D2B45406  13.640  20.160  17.230
 1962DOPG   C3B45407  13.580  20.010  16.900
 1962DOPG   C4B45408  13.620  19.720  16.620
 1963DOPG   GL045409  17.830  20.910  19.530
 1963DOPG   PO445410  17.740  20.610  19.220
 1963DOPG   GL145411  17.740  20.650  18.770
 1963DOPG   GL245412  17.440  20.640  18.640
 1963DOPG   C1A45413  17.860  20.570  18.410
 1963DOPG   D2A45414  17.920  20.620  17.930
 1963DOPG   C3A45415  17.600  20.770  17.680
 1963DOPG   C4A45416  17.470  21.060  17.440
 1963DOPG   C1B45417  17.460  20.840  18.240
 1963DOPG   D2B45418  17.780  21.110  18.170
 1963DOPG   C3B45419  17.760  21.300  17.810
 1963DOPG   C4B45420  17.780  21.390  17.310
 1964DOPG   GL045421  20.940  18.680   7.550
 1964DOPG   PO445422  20.800  18.950   7.800
 1964DOPG   GL145423  20.400  19.070   7.940
 1964DOPG   GL245424  20.090  19.080   7.830
 1964DOPG   C1A45425  20.310  19.460   8.180
 1964DOPG   D2A45426  20.270  19.800   8.260
 1964DOPG   C3A45427  20.060  20.050   8.610
 1964DOPG   C4A45428  20.300  20.410   8.800
 1964DOPG   C1B45429  19.690  18.900   7.640
 1964DOPG   D2B45430  19.380  18.970   7.940
 1964DOPG   C3B45431  19.450  19.270   8.250
 1964DOPG   C4B45432  19.270  19.590   8.460
 1965DOPG   GL045433  17.650  34.530  11.730
 1965DOPG   PO445434  17.810  34.190  12.020
 1965DOPG   GL145435  17.740  33.810  12.160
 1965DOPG   GL245436  18.010  33.580  12.330
 1965DOPG   C1A45437  17.530  33.410  12.150
 1965DOPG   D2A45438  17.170  33.410  11.970
 1965DOPG   C3A45439  17.100  33.460  11.480
 1965DOPG   C4A45440  17.330  33.260  11.100
 1965DOPG   C1B45441  17.930  33.060  12.180
 1965DOPG   D2B45442  17.980  32.780  11.870
 1965DOPG   C3B45443  17.870  32.300  11.680
 1965DOPG   C4B45444  17.560  31.990  11.640
 1966DOPG   GL045445  22.570  16.710  11.690
 1966DOPG   PO445446  22.170  16.880  11.530
 1966DOPG   GL145447  22.020  17.210  11.590
 1966DOPG   GL245448  21.730  17.090  11.710
 1966DOPG   C1A45449  22.000  17.630  11.590
 1966DOPG   D2A45450  21.940  17.820  11.960
 1966DOPG   C3A45451  21.560  18.060  12.040
 1966DOPG   C4A45452  21.220  18.280  11.860
 1966DOPG   C1B45453  21.540  17.460  11.900
 1966DOPG   D2B45454  21.170  17.640  12.010
 1966DOPG   C3B45455  20.840  17.620  12.370
 1966DOPG   C4B45456  20.840  17.540  12.750
 1967DOPG   GL045457  24.240  26.180  15.020
 1967DOPG   PO445458  24.000  26.430  15.240
 1967DOPG   GL145459  23.760  26.140  15.040
 1967DOPG   GL245460  23.790  25.900  15.220
 1967DOPG   C1A45461  23.370  26.170  15.050
 1967DOPG   D2A45462  22.930  26.100  15.140
 1967DOPG   C3A45463  22.630  25.770  14.910
 1967DOPG   C4A45464  22.400  25.470  14.710
 1967DOPG   C1B45465  23.640  25.680  14.800
 1967DOPG   D2B45466  23.820  25.480  14.500
 1967DOPG   C3B45467  24.060  25.120  14.840
 1967DOPG   C4B45468  24.060  24.730  14.920
 1968DOPG   GL045469  17.610  26.730  23.530
 1968DOPG   PO445470  17.610  27.140  23.600
 1968DOPG   GL145471  17.680  27.170  23.100
 1968DOPG   GL245472  17.960  26.910  23.210
 1968DOPG   C1A45473  17.720  26.900  22.780
 1968DOPG   D2A45474  17.820  26.720  22.260
 1968DOPG   C3A45475  17.490  26.570  21.910
 1968DOPG   C4A45476  17.230  26.750  21.680
 1968DOPG   C1B45477  17.980  26.520  23.000
 1968DOPG   D2B45478  17.800  26.250  22.610
 1968DOPG   C3B45479  17.600  25.860  22.660
 1968DOPG   C4B45480  17.370  25.520  22.800
 1969DOPG   GL045481  15.740  21.770  24.530
 1969DOPG   PO445482  15.640  21.790  24.150
 1969DOPG   GL145483  15.860  21.670  23.730
 1969DOPG   GL245484  16.090  21.920  23.700
 1969DOPG   C1A45485  15.740  21.800  23.300
 1969DOPG   D2A45486  15.730  21.820  22.890
 1969DOPG   C3A45487  15.710  21.750  22.450
 1969DOPG   C4A45488  15.790  21.540  22.070
 1969DOPG   C1B45489  15.790  22.230  23.590
 1969DOPG   D2B45490  15.510  22.580  23.600
 1969DOPG   C3B45491  15.380  22.810  23.340
 1969DOPG   C4B45492  15.660  22.940  23.080
 1970DOPG   GL045493  11.980  25.190  11.540
 1970DOPG   PO445494  12.190  24.900  11.290
 1970DOPG   GL145495  12.530  24.610  11.400
 1970DOPG   GL245496  12.370  24.340  11.450
 1970DOPG   C1A45497  12.920  24.370  11.290
 1970DOPG   D2A45498  13.400  24.310  11.280
 1970DOPG   C3A45499  13.740  23.930  11.360
 1970DOPG   C4A45500  14.140  23.990  11.480
 1970DOPG   C1B45501  12.770  24.060  11.700
 1970DOPG   D2B45502  12.790  23.990  12.140
 1970DOPG   C3B45503  12.650  23.640  12.290
 1970DOPG   C4B45504  12.640  23.260  12.090
 1971DOPG   GL045505  19.030  14.660  10.710
 1971DOPG   PO445506  19.370  14.810  11.060
 1971DOPG   GL145507  19.290  15.260  11.330
 1971DOPG   GL245508  19.440  15.290  11.530
 1971DOPG   C1A45509  18.970  15.500  11.330
 1971DOPG   D2A45510  18.740  15.900  11.270
 1971DOPG   C3A45511  18.850  16.290  11.260
 1971DOPG   C4A45512  18.950  16.730  11.440
 1971DOPG   C1B45513  19.170  15.530  11.750
 1971DOPG   D2B45514  19.050  15.750  12.200
 1971DOPG   C3B45515  18.790  16.060  12.230
 1971DOPG   C4B45516  18.530  16.490  12.350
 1972DOPG   GL045517  15.720  12.180   3.870
 1972DOPG   PO445518  15.800  12.050   3.490
 1972DOPG   GL145519  16.220  12.210   3.690
 1972DOPG   GL245520  16.350  12.300   3.510
 1972DOPG   C1A45521  16.250  12.510   4.040
 1972DOPG   D2A45522  16.170  12.850   4.220
 1972DOPG   C3A45523  15.930  13.080   4.540
 1972DOPG   C4A45524  16.060  13.290   4.940
 1972DOPG   C1B45525  16.290  12.770   3.550
 1972DOPG   D2B45526  16.210  13.180   3.720
 1972DOPG   C3B45527  16.210  13.720   3.830
 1972DOPG   C4B45528  16.220  13.940   4.220
 1973DOPG   GL045529  18.060  21.420  19.390
 1973DOPG   PO445530  17.650  21.470  19.190
 1973DOPG   GL145531  17.610  21.460  18.770
 1973DOPG   GL245532  17.580  21.170  18.730
 1973DOPG   C1A45533  17.380  21.360  18.320
 1973DOPG   D2A45534  17.250  21.210  17.950
 1973DOPG   C3A45535  16.890  21.440  17.760
 1973DOPG   C4A45536  16.830  21.770  17.430
 1973DOPG   C1B45537  17.990  21.120  18.600
 1973DOPG   D2B45538  18.350  21.090  18.320
 1973DOPG   C3B45539  18.390  20.800  17.880
 1973DOPG   C4B45540  18.460  20.820  17.390
 1974DOPG   GL045541  10.300  18.150  16.380
 1974DOPG   PO445542  10.360  18.280  15.970
 1974DOPG   GL145543  10.820  18.290  15.750
 1974DOPG   GL245544  10.990  18.040  15.850
 1974DOPG   C1A45545  10.980  18.320  15.360
 1974DOPG   D2A45546  11.070  18.410  14.960
 1974DOPG   C3A45547  10.910  18.640  14.820
 1974DOPG   C4A45548  10.740  19.060  14.620
 1974DOPG   C1B45549  11.320  17.990  15.500
 1974DOPG   D2B45550  11.530  18.200  15.150
 1974DOPG   C3B45551  11.490  18.200  14.810
 1974DOPG   C4B45552  11.300  18.530  14.520
 1975DOPG   GL045553  21.790  18.840   7.500
 1975DOPG   PO445554  21.770  18.760   7.000
 1975DOPG   GL145555  22.010  18.430   6.880
 1975DOPG   GL245556  22.290  18.310   6.970
 1975DOPG   C1A45557  22.150  18.220   6.500
 1975DOPG   D2A45558  22.220  17.920   6.190
 1975DOPG   C3A45559  22.500  17.730   5.900
 1975DOPG   C4A45560  22.840  17.770   5.600
 1975DOPG   C1B45561  22.560  18.090   6.790
 1975DOPG   D2B45562  22.670  17.900   6.370
 1975DOPG   C3B45563  23.040  17.700   6.180
 1975DOPG   C4B45564  23.400  17.430   6.370
 1976DOPG   GL045565  14.220  15.540  15.770
 1976DOPG   PO445566  13.900  15.350  15.770
 1976DOPG   GL145567  13.650  15.460  15.530
 1976DOPG   GL245568  13.420  15.710  15.550
 1976DOPG   C1A45569  13.550  15.590  15.110
 1976DOPG   D2A45570  13.320  15.900  14.850
 1976DOPG   C3A45571  13.580  16.140  14.480
 1976DOPG   C4A45572  13.510  16.320  14.010
 1976DOPG   C1B45573  13.440  16.000  15.320
 1976DOPG   D2B45574  13.580  16.310  14.970
 1976DOPG   C3B45575  13.280  16.630  14.870
 1976DOPG   C4B45576  13.220  16.520  14.420
 1977DOPG   GL045577  21.020  23.730   7.270
 1977DOPG   PO445578  21.200  23.420   7.050
 1977DOPG   GL145579  20.960  23.250   7.310
 1977DOPG   GL245580  20.580  23.090   7.300
 1977DOPG   C1A45581  20.990  23.320   7.760
 1977DOPG   D2A45582  21.130  23.230   8.260
 1977DOPG   C3A45583  20.880  23.220   8.600
 1977DOPG   C4A45584  20.750  23.320   8.940
 1977DOPG   C1B45585  20.590  23.050   7.740
 1977DOPG   D2B45586  20.630  23.210   8.170
 1977DOPG   C3B45587  20.700  23.640   8.080
 1977DOPG   C4B45588  20.890  23.870   7.810
 1978DOPG   GL045589  13.270  32.290  14.350
 1978DOPG   PO445590  13.550  32.400  14.650
 1978DOPG   GL145591  13.710  32.090  14.390
 1978DOPG   GL245592  13.870  32.170  14.090
 1978DOPG   C1A45593  13.660  31.660  14.280
 1978DOPG   D2A45594  13.780  31.270  14.050
 1978DOPG   C3A45595  14.080  31.210  13.730
 1978DOPG   C4A45596  14.020  31.140  13.210
 1978DOPG   C1B45597  14.290  32.150  13.880
 1978DOPG   D2B45598  14.600  31.870  13.640
 1978DOPG   C3B45599  14.560  31.400  13.700
 1978DOPG   C4B45600  14.850  31.360  13.850
 1979DOPG   GL045601  23.020  21.820   9.180
 1979DOPG   PO445602  23.120  22.040   8.870
 1979DOPG   GL145603  22.770  22.200   9.100
 1979DOPG   GL245604  22.890  22.290   9.350
 1979DOPG   C1A45605  22.380  22.350   9.330
 1979DOPG   D2A45606  22.280  22.740   9.580
 1979DOPG   C3A45607  21.890  22.910   9.670
 1979DOPG   C4A45608  21.460  22.860   9.740
 1979DOPG   C1B45609  22.710  22.510   9.730
 1979DOPG   D2B45610  22.390  22.600  10.050
 1979DOPG   C3B45611  22.140  22.930  10.170
 1979DOPG   C4B45612  21.830  23.070  10.140
 1980DOPG   GL045613  17.930  19.170   6.590
 1980DOPG   PO445614  17.640  19.200   6.790
 1980DOPG   GL145615  17.560  19.350   7.220
 1980DOPG   GL245616  17.110  19.350   7.290
 1980DOPG   C1A45617  17.510  19.750   7.500
 1980DOPG   D2A45618  17.160  20.030   7.690
 1980DOPG   C3A45619  16.730  19.900   7.810
 1980DOPG   C4A45620  16.240  19.840   7.690
 1980DOPG   C1B45621  16.990  19.510   7.710
 1980DOPG   D2B45622  17.090  19.650   8.170
 1980DOPG   C3B45623  17.420  19.980   8.150
 1980DOPG   C4B45624  17.730  19.990   7.860
 1981DOPG   GL045625  19.210  18.820   6.100
 1981DOPG   PO445626  19.340  18.960   6.550
 1981DOPG   GL145627  19.150  19.090   6.920
 1981DOPG   GL245628  19.330  18.900   7.280
 1981DOPG   C1A45629  19.040  19.430   7.310
 1981DOPG   D2A45630  19.150  19.730   7.480
 1981DOPG   C3A45631  19.210  19.830   7.880
 1981DOPG   C4A45632  19.360  20.050   8.180
 1981DOPG   C1B45633  19.220  18.550   7.640
 1981DOPG   D2B45634  19.190  18.070   7.660
 1981DOPG   C3B45635  19.100  17.800   8.070
 1981DOPG   C4B45636  19.070  17.450   8.200
 1982DOPG   GL045637  22.990  29.520   4.940
 1982DOPG   PO445638  22.820  29.000   4.990
 1982DOPG   GL145639  22.890  28.700   5.210
 1982DOPG   GL245640  22.610  28.510   5.140
 1982DOPG   C1A45641  22.810  28.470   5.590
 1982DOPG   D2A45642  22.550  28.160   5.620
 1982DOPG   C3A45643  22.550  27.800   5.850
 1982DOPG   C4A45644  22.400  27.640   6.340
 1982DOPG   C1B45645  22.170  28.440   5.300
 1982DOPG   D2B45646  22.030  28.230   5.720
 1982DOPG   C3B45647  21.600  28.100   5.780
 1982DOPG   C4B45648  21.260  27.920   5.700
 1983DOPG   GL045649  23.620  17.420  14.400
 1983DOPG   PO445650  23.230  17.590  14.190
 1983DOPG   GL145651  22.820  17.470  14.220
 1983DOPG   GL245652  22.640  17.200  14.080
 1983DOPG   C1A45653  22.390  17.700  14.270
 1983DOPG   D2A45654  22.070  18.090  14.140
 1983DOPG   C3A45655  21.680  18.100  14.310
 1983DOPG   C4A45656  21.400  18.450  14.270
 1983DOPG   C1B45657  22.260  17.140  14.340
 1983DOPG   D2B45658  21.830  17.180  14.560
 1983DOPG   C3B45659  21.420  17.450  14.570
 1983DOPG   C4B45660  20.990  17.510  14.560
 1984DOPG   GL045661  20.800  25.780   7.150
 1984DOPG   PO445662  20.560  25.510   7.320
 1984DOPG   GL145663  20.480  25.180   7.690
 1984DOPG   GL245664  20.560  25.250   8.020
 1984DOPG   C1A45665  20.090  25.040   7.920
 1984DOPG   D2A45666  20.020  25.140   8.340
 1984DOPG   C3A45667  20.310  24.920   8.690
 1984DOPG   C4A45668  20.390  24.910   9.160
 1984DOPG   C1B45669  20.490  24.740   8.190
 1984DOPG   D2B45670  20.270  24.420   8.480
 1984DOPG   C3B45671  20.500  24.280   8.800
 1984DOPG   C4B45672  20.480  24.410   9.190
 1985DOPG   GL045673  11.680  20.850   9.170
 1985DOPG   PO445674  11.580  20.590   9.550
 1985DOPG   GL145675  11.840  20.310   9.630
 1985DOPG   GL245676  12.100  20.280   9.880
 1985DOPG   C1A45677  11.680  19.860   9.940
 1985DOPG   D2A45678  11.360  19.660  10.200
 1985DOPG   C3A45679  11.040  19.730  10.110
 1985DOPG   C4A45680  10.740  19.430  10.170
 1985DOPG   C1B45681  12.220  20.430  10.260
 1985DOPG   D2B45682  12.100  20.430  10.720
 1985DOPG   C3B45683  12.370  20.240  10.900
 1985DOPG   C4B45684  12.750  20.330  11.190
 1986DOPG   GL045685  22.740  29.000  13.010
 1986DOPG   PO445686  22.450  28.810  13.110
 1986DOPG   GL145687  22.280  28.520  13.240
 1986DOPG   GL245688  22.030  28.480  13.050
 1986DOPG   C1A45689  22.230  28.160  13.440
 1986DOPG   D2A45690  21.910  27.840  13.480
 1986DOPG   C3A45691  21.990  27.670  13.820
 1986DOPG   C4A45692  22.020  27.280  14.020
 1986DOPG   C1B45693  21.850  28.430  13.520
 1986DOPG   D2B45694  21.530  28.090  13.690
 1986DOPG   C3B45695  21.460  27.660  13.640
 1986DOPG   C4B45696  21.530  27.430  14.050
 1987DOPG   GL045697  12.670  23.910   8.810
 1987DOPG   PO445698  12.640  23.600   9.060
 1987DOPG   GL145699  12.710  23.560   9.490
 1987DOPG   GL245700  12.860  23.800   9.610
 1987DOPG   C1A45701  12.550  23.450   9.880
 1987DOPG   D2A45702  12.650  23.370  10.410
 1987DOPG   C3A45703  12.670  22.930  10.260
 1987DOPG   C4A45704  12.330  22.630  10.100
 1987DOPG   C1B45705  12.980  23.630  10.060
 1987DOPG   D2B45706  13.430  23.660  10.260
 1987DOPG   C3B45707  13.520  23.870  10.550
 1987DOPG   C4B45708  13.850  23.980  10.470
 1988DOPG   GL045709  15.640  12.590   9.240
 1988DOPG   PO445710  15.510  12.660   9.650
 1988DOPG   GL145711  15.290  12.300   9.690
 1988DOPG   GL245712  15.040  12.320   9.470
 1988DOPG   C1A45713  15.290  11.890   9.440
 1988DOPG   D2A45714  15.550  11.730   9.150
 1988DOPG   C3A45715  15.640  11.290   9.270
 1988DOPG   C4A45716  15.440  10.940   9.440
 1988DOPG   C1B45717  14.830  12.050   9.150
 1988DOPG   D2B45718  14.690  12.000   8.760
 1988DOPG   C3B45719  14.330  12.160   8.560
 1988DOPG   C4B45720  13.880  12.260   8.570
 1989DOPG   GL045721  17.090  13.980   1.740
 1989DOPG   PO445722  16.570  13.910   1.760
 1989DOPG   GL145723  16.700  14.230   2.050
 1989DOPG   GL245724  17.010  14.180   2.240
 1989DOPG   C1A45725  16.750  14.590   2.390
 1989DOPG   D2A45726  17.140  14.790   2.640
 1989DOPG   C3A45727  17.060  15.180   2.790
 1989DOPG   C4A45728  17.170  15.360   3.110
 1989DOPG   C1B45729  17.370  14.460   2.330
 1989DOPG   D2B45730  17.490  14.880   2.250
 1989DOPG   C3B45731  17.580  15.170   2.590
 1989DOPG   C4B45732  17.500  15.530   2.680
 1990DOPG   GL045733   8.640  20.820  15.830
 1990DOPG   PO445734   9.050  21.060  16.090
 1990DOPG   GL145735   8.720  21.250  16.170
 1990DOPG   GL245736   8.590  21.540  16.320
 1990DOPG   C1A45737   8.240  21.220  16.120
 1990DOPG   D2A45738   8.010  21.440  16.430
 1990DOPG   C3A45739   7.940  21.810  16.260
 1990DOPG   C4A45740   8.340  22.050  16.330
 1990DOPG   C1B45741   8.370  21.650  16.700
 1990DOPG   D2B45742   8.030  21.730  16.880
 1990DOPG   C3B45743   7.670  21.790  16.710
 1990DOPG   C4B45744   7.480  22.020  16.530
 1991DOPG   GL045745  23.280  23.910   2.360
 1991DOPG   PO445746  23.610  24.200   2.310
 1991DOPG   GL145747  23.580  24.160   2.720
 1991DOPG   GL245748  23.520  23.840   2.960
 1991DOPG   C1A45749  23.120  24.020   2.880
 1991DOPG   D2A45750  23.130  23.730   3.240
 1991DOPG   C3A45751  23.040  23.640   3.630
 1991DOPG   C4A45752  22.770  23.520   3.930
 1991DOPG   C1B45753  23.460  24.120   3.300
 1991DOPG   D2B45754  23.340  24.050   3.710
 1991DOPG   C3B45755  23.140  24.410   3.930
 1991DOPG   C4B45756  22.840  24.630   4.280
 1992DOPG   GL045757  13.000  18.950   5.040
 1992DOPG   PO445758  13.070  18.990   5.500
 1992DOPG   GL145759  12.690  18.910   5.410
 1992DOPG   GL245760  12.520  18.640   5.380
 1992DOPG   C1A45761  12.280  19.070   5.230
 1992DOPG   D2A45762  11.980  18.900   4.890
 1992DOPG   C3A45763  12.250  19.070   4.530
 1992DOPG   C4A45764  12.660  18.990   4.260
 1992DOPG   C1B45765  12.500  18.770   4.900
 1992DOPG   D2B45766  12.390  18.590   4.490
 1992DOPG   C3B45767  12.270  18.160   4.500
 1992DOPG   C4B45768  12.210  17.740   4.650
 1993DOPG   GL045769  23.180  28.500  15.790
 1993DOPG   PO445770  23.230  28.740  15.430
 1993DOPG   GL145771  23.300  29.150  15.720
 1993DOPG   GL245772  23.710  29.200  15.700
 1993DOPG   C1A45773  23.380  29.520  15.960
 1993DOPG   D2A45774  23.870  29.580  16.080
 1993DOPG   C3A45775  24.290  29.780  15.860
 1993DOPG   C4A45776  24.530  29.950  15.480
 1993DOPG   C1B45777  24.080  29.290  15.680
 1993DOPG   D2B45778  24.500  29.220  15.820
 1993DOPG   C3B45779  24.830  29.560  15.800
 1993DOPG   C4B45780  25.010  29.590  15.410
 1994DOPG   GL045781  21.290  16.330  16.900
 1994DOPG   PO445782  21.000  16.530  16.680
 1994DOPG   GL145783  20.910  16.910  16.540
 1994DOPG   GL245784  21.060  17.290  16.740
 1994DOPG   C1A45785  20.550  17.100  16.370
 1994DOPG   D2A45786  20.640  17.420  16.040
 1994DOPG   C3A45787  20.490  17.740  16.070
 1994DOPG   C4A45788  20.450  18.130  16.110
 1994DOPG   C1B45789  20.860  17.680  16.500
 1994DOPG   D2B45790  20.750  18.100  16.560
 1994DOPG   C3B45791  20.460  18.420  16.670
 1994DOPG   C4B45792  20.220  18.690  16.850
 1995DOPG   GL045793  14.640  15.480   5.790
 1995DOPG   PO445794  15.040  15.490   5.500
 1995DOPG   GL145795  14.650  15.330   5.260
 1995DOPG   GL245796  14.780  15.350   4.980
 1995DOPG   C1A45797  14.550  14.940   5.170
 1995DOPG   D2A45798  14.260  14.710   4.940
 1995DOPG   C3A45799  13.780  14.600   5.080
 1995DOPG   C4A45800  13.310  14.410   4.990
 1995DOPG   C1B45801  14.420  15.260   4.790
 1995DOPG   D2B45802  14.100  15.420   4.580
 1995DOPG   C3B45803  14.140  15.520   4.200
 1995DOPG   C4B45804  14.030  15.790   3.980
 1996DOPG   GL045805   9.240  21.380  12.660
 1996DOPG   PO445806   9.130  21.020  12.800
 1996DOPG   GL145807   8.870  20.810  13.000
 1996DOPG   GL245808   8.640  20.870  13.290
 1996DOPG   C1A45809   8.610  20.410  13.010
 1996DOPG   D2A45810   8.460  19.970  12.970
 1996DOPG   C3A45811   8.460  19.670  13.160
 1996DOPG   C4A45812   8.410  19.170  13.170
 1996DOPG   C1B45813   8.220  20.610  13.300
 1996DOPG   D2B45814   8.100  20.330  13.130
 1996DOPG   C3B45815   8.160  20.310  12.670
 1996DOPG   C4B45816   8.190  20.030  12.370
 1997DOPG   GL045817  22.900  17.850  14.510
 1997DOPG   PO445818  22.920  17.510  14.720
 1997DOPG   GL145819  22.580  17.490  14.770
 1997DOPG   GL245820  22.540  17.710  14.980
 1997DOPG   C1A45821  22.160  17.550  14.670
 1997DOPG   D2A45822  21.820  17.630  14.320
 1997DOPG   C3A45823  22.020  17.610  13.900
 1997DOPG   C4A45824  22.300  17.690  13.720
 1997DOPG   C1B45825  22.190  17.920  14.940
 1997DOPG   D2B45826  22.030  18.190  14.650
 1997DOPG   C3B45827  21.630  18.330  14.800
 1997DOPG   C4B45828  21.360  18.150  15.100
 1998DOPG   GL045829  22.970  22.550   8.690
 1998DOPG   PO445830  23.180  22.870   8.650
 1998DOPG   GL145831  22.770  22.980   8.930
 1998DOPG   GL245832  22.740  22.710   9.120
 1998DOPG   C1A45833  22.330  22.980   9.090
 1998DOPG   D2A45834  22.100  23.260   8.960
 1998DOPG   C3A45835  21.690  23.340   8.950
 1998DOPG   C4A45836  21.360  23.500   8.620
 1998DOPG   C1B45837  22.870  22.980   9.430
 1998DOPG   D2B45838  22.970  23.430   9.590
 1998DOPG   C3B45839  23.100  23.270  10.030
 1998DOPG   C4B45840  23.130  23.100  10.450
 1999DOPG   GL045841  12.130  16.100  16.540
 1999DOPG   PO445842  12.590  16.220  16.580
 1999DOPG   GL145843  12.690  16.630  16.240
 1999DOPG   GL245844  12.510  17.010  16.240
 1999DOPG   C1A45845  12.750  16.700  15.790
 1999DOPG   D2A45846  12.850  16.570  15.430
 1999DOPG   C3A45847  12.840  16.730  15.010
 1999DOPG   C4A45848  12.690  16.740  14.650
 1999DOPG   C1B45849  12.620  17.270  15.910
 1999DOPG   D2B45850  13.030  17.300  15.740
 1999DOPG   C3B45851  13.390  17.340  16.030
 1999DOPG   C4B45852  13.740  17.120  16.120
 2000DOPG   GL045853  17.870  13.650  14.380
 2000DOPG   PO445854  17.590  13.750  14.040
 2000DOPG   GL145855  17.440  14.110  14.260
 2000DOPG   GL245856  17.540  14.190  14.530
 2000DOPG   C1A45857  17.030  14.470  14.250
 2000DOPG   D2A45858  16.770  14.590  14.050
 2000DOPG   C3A45859  16.450  14.820  14.280
 2000DOPG   C4A45860  16.070  15.050  14.160
 2000DOPG   C1B45861  17.450  14.590  14.590
 2000DOPG   D2B45862  17.750  14.990  14.700
 2000DOPG   C3B45863  17.610  15.400  14.530
 2000DOPG   C4B45864  17.470  15.830  14.580
 2001DOPG   GL045865  26.130  24.230  16.430
 2001DOPG   PO445866  26.290  23.880  16.520
 2001DOPG   GL145867  26.590  23.900  16.760
 2001DOPG   GL245868  26.550  24.220  16.750
 2001DOPG   C1A45869  26.770  23.880  17.130
 2001DOPG   D2A45870  27.140  23.680  17.240
 2001DOPG   C3A45871  27.330  23.320  17.340
 2001DOPG   C4A45872  27.600  23.280  17.580
 2001DOPG   C1B45873  26.600  24.380  17.140
 2001DOPG   D2B45874  26.540  24.490  17.600
 2001DOPG   C3B45875  26.990  24.520  17.770
 2001DOPG   C4B45876  27.270  24.790  17.930
 2002DOPG   GL045877   6.680  18.490  11.240
 2002DOPG   PO445878   6.340  18.760  11.110
 2002DOPG   GL145879   6.640  18.970  11.170
 2002DOPG   GL245880   6.630  19.260  11.170
 2002DOPG   C1A45881   7.120  18.980  11.140
 2002DOPG   D2A45882   7.650  18.980  10.980
 2002DOPG   C3A45883   7.890  19.430  11.080
 2002DOPG   C4A45884   8.140  19.780  11.020
 2002DOPG   C1B45885   6.970  19.440  11.190
 2002DOPG   D2B45886   7.380  19.480  11.200
 2002DOPG   C3B45887   7.570  19.890  11.350
 2002DOPG   C4B45888   7.770  20.170  11.170
 2003DOPG   GL045889  15.100  11.660   4.060
 2003DOPG   PO445890  15.410  11.660   4.370
 2003DOPG   GL145891  15.430  12.100   4.400
 2003DOPG   GL245892  15.280  12.160   4.130
 2003DOPG   C1A45893  15.620  12.290   4.730
 2003DOPG   D2A45894  15.770  12.790   4.890
 2003DOPG   C3A45895  16.040  12.850   5.170
 2003DOPG   C4A45896  16.330  12.920   4.800
 2003DOPG   C1B45897  15.150  12.570   4.010
 2003DOPG   D2B45898  15.130  12.970   4.130
 2003DOPG   C3B45899  15.450  13.110   4.360
 2003DOPG   C4B45900  15.570  13.390   4.720
 2004DOPG   GL045901  20.140  20.200  20.010
 2004DOPG   PO445902  20.580  20.130  20.120
 2004DOPG   GL145903  20.270  20.140  20.520
 2004DOPG   GL245904  19.940  20.140  20.700
 2004DOPG   C1A45905  20.410  20.000  20.950
 2004DOPG   D2A45906  20.650  19.750  21.110
 2004DOPG   C3A45907  20.610  19.630  21.530
 2004DOPG   C4A45908  20.810  19.490  21.950
 2004DOPG   C1B45909  19.850  19.860  21.010
 2004DOPG   D2B45910  20.110  19.560  21.240
 2004DOPG   C3B45911  20.150  19.550  21.670
 2004DOPG   C4B45912  19.980  19.360  22.000
 2005DOPG   GL045913  17.390  21.750  19.600
 2005DOPG   PO445914  17.810  21.820  19.510
 2005DOPG   GL145915  17.800  21.950  19.090
 2005DOPG   GL245916  18.180  22.020  19.030
 2005DOPG   C1A45917  17.640  21.920  18.660
 2005DOPG   D2A45918  17.440  21.950  18.340
 2005DOPG   C3A45919  17.440  21.710  17.880
 2005DOPG   C4A45920  17.260  21.520  17.490
 2005DOPG   C1B45921  18.130  21.970  18.600
 2005DOPG   D2B45922  17.970  21.790  18.110
 2005DOPG   C3B45923  18.010  21.850  17.730
 2005DOPG   C4B45924  17.650  21.850  17.430
 2006DOPG   GL045925  21.180  14.590  12.990
 2006DOPG   PO445926  21.180  14.960  12.690
 2006DOPG   GL145927  20.850  15.200  12.640
 2006DOPG   GL245928  20.740  15.400  12.360
 2006DOPG   C1A45929  20.660  15.490  12.900
 2006DOPG   D2A45930  20.820  15.830  13.030
 2006DOPG   C3A45931  20.840  16.040  12.690
 2006DOPG   C4A45932  20.850  16.330  12.360
 2006DOPG   C1B45933  20.940  15.800  12.270
 2006DOPG   D2B45934  21.120  16.080  12.060
 2006DOPG   C3B45935  21.180  16.530  11.960
 2006DOPG   C4B45936  21.290  16.990  11.910
 2007DOPG   GL045937  10.230  17.160  16.070
 2007DOPG   PO445938  10.610  17.450  16.000
 2007DOPG   GL145939  10.630  17.190  15.660
 2007DOPG   GL245940  10.380  17.200  15.400
 2007DOPG   C1A45941  10.790  17.290  15.260
 2007DOPG   D2A45942  10.970  17.430  14.920
 2007DOPG   C3A45943  11.330  17.280  14.720
 2007DOPG   C4A45944  11.490  17.510  14.410
 2007DOPG   C1B45945  10.060  16.970  15.120
 2007DOPG   D2B45946   9.680  16.840  14.880
 2007DOPG   C3B45947   9.610  16.660  14.450
 2007DOPG   C4B45948   9.840  16.360  14.190
 2008DOPG   GL045949  13.280  23.720   8.170
 2008DOPG   PO445950  13.160  23.880   8.640
 2008DOPG   GL145951  13.600  23.580   8.710
 2008DOPG   GL245952  13.960  23.730   8.670
 2008DOPG   C1A45953  13.850  23.490   9.060
 2008DOPG   D2A45954  14.230  23.460   9.470
 2008DOPG   C3A45955  14.650  23.280   9.440
 2008DOPG   C4A45956  15.090  23.410   9.520
 2008DOPG   C1B45957  13.820  23.990   8.880
 2008DOPG   D2B45958  13.690  24.350   9.220
 2008DOPG   C3B45959  13.860  24.630   9.250
 2008DOPG   C4B45960  14.260  24.710   9.420
 2009DOPG   GL045961  12.050  18.330  17.570
 2009DOPG   PO445962  12.270  18.170  17.200
 2009DOPG   GL145963  12.360  18.260  16.790
 2009DOPG   GL245964  12.530  18.630  16.710
 2009DOPG   C1A45965  12.550  18.400  16.270
 2009DOPG   D2A45966  12.700  18.640  16.060
 2009DOPG   C3A45967  12.780  18.550  15.660
 2009DOPG   C4A45968  13.060  18.650  15.430
 2009DOPG   C1B45969  12.570  18.900  16.470
 2009DOPG   D2B45970  13.010  19.020  16.300
 2009DOPG   C3B45971  13.230  19.390  16.140
 2009DOPG   C4B45972  13.260  19.590  15.750
 2010DOPG   GL045973  25.980  26.240  13.220
 2010DOPG   PO445974  25.720  26.570  13.210
 2010DOPG   GL145975  26.230  26.620  13.000
 2010DOPG   GL245976  26.480  26.300  13.010
 2010DOPG   C1A45977  26.550  26.840  12.680
 2010DOPG   D2A45978  26.640  27.050  12.260
 2010DOPG   C3A45979  26.590  27.370  12.040
 2010DOPG   C4A45980  26.840  27.760  11.750
 2010DOPG   C1B45981  26.970  26.310  13.020
 2010DOPG   D2B45982  27.380  26.440  13.050
 2010DOPG   C3B45983  27.540  26.720  13.320
 2010DOPG   C4B45984  27.570  27.100  13.360
 2011DOPG   GL045985  16.700  21.400   5.990
 2011DOPG   PO445986  16.720  21.670   6.250
 2011DOPG   GL145987  16.950  21.680   6.650
 2011DOPG   GL245988  17.210  21.800   6.630
 2011DOPG   C1A45989  16.930  21.900   7.010
 2011DOPG   D2A45990  16.950  22.200   7.330
 2011DOPG   C3A45991  17.230  22.170   7.730
 2011DOPG   C4A45992  17.610  22.170   7.850
 2011DOPG   C1B45993  17.270  21.430   6.910
 2011DOPG   D2B45994  17.330  21.260   7.310
 2011DOPG   C3B45995  17.350  21.330   7.670
 2011DOPG   C4B45996  17.150  21.620   7.900
 2012DOPG   GL045997  17.710  32.740   6.960
 2012DOPG   PO445998  17.410  32.440   7.080
 2012DOPG   GL145999  17.580  31.960   7.350
 2012DOPG   GL246000  17.910  31.860   7.280
 2012DOPG   C1A46001  17.600  31.720   7.640
 2012DOPG   D2A46002  17.610  31.320   7.740
 2012DOPG   C3A46003  17.360  31.170   8.110
 2012DOPG   C4A46004  17.040  30.910   8.230
 2012DOPG   C1B46005  18.000  31.420   7.260
 2012DOPG   D2B46006  17.970  31.050   7.550
 2012DOPG   C3B46007  17.840  30.850   7.890
 2012DOPG   C4B46008  17.690  30.960   8.360
 2013DOPG   GL046009   6.130  25.730   8.710
 2013DOPG   PO446010   6.410  25.350   8.680
 2013DOPG   GL146011   6.750  25.300   8.940
 2013DOPG   GL246012   6.720  25.160   9.330
 2013DOPG   C1A46013   7.220  25.260   8.810
 2013DOPG   D2A46014   7.570  25.010   8.910
 2013DOPG   C3A46015   7.620  24.620   9.190
 2013DOPG   C4A46016   7.680  24.180   9.250
 2013DOPG   C1B46017   7.190  25.260   9.310
 2013DOPG   D2B46018   7.590  25.160   9.400
 2013DOPG   C3B46019   7.670  24.890   9.720
 2013DOPG   C4B46020   7.470  24.680  10.130
 2014DOPG   GL046021  23.660  21.920  18.200
 2014DOPG   PO446022  23.520  21.770  17.820
 2014DOPG   GL146023  23.300  21.840  17.440
 2014DOPG   GL246024  22.960  22.040  17.540
 2014DOPG   C1A46025  23.210  22.050  17.050
 2014DOPG   D2A46026  23.440  22.270  16.830
 2014DOPG   C3A46027  23.790  22.520  16.830
 2014DOPG   C4A46028  24.100  22.600  16.630
 2014DOPG   C1B46029  22.720  22.170  17.240
 2014DOPG   D2B46030  22.430  22.060  17.020
 2014DOPG   C3B46031  22.320  22.360  16.800
 2014DOPG   C4B46032  22.120  22.520  16.420
 2015DOPG   GL046033  14.450  22.490  18.690
 2015DOPG   PO446034  14.470  22.000  18.580
 2015DOPG   GL146035  14.500  21.790  18.310
 2015DOPG   GL246036  14.160  21.810  18.120
 2015DOPG   C1A46037  14.880  21.680  17.990
 2015DOPG   D2A46038  15.160  21.470  17.910
 2015DOPG   C3A46039  15.610  21.400  18.050
 2015DOPG   C4A46040  15.980  21.640  17.880
 2015DOPG   C1B46041  14.320  21.540  17.760
 2015DOPG   D2B46042  14.670  21.370  17.670
 2015DOPG   C3B46043  15.000  21.460  17.380
 2015DOPG   C4B46044  15.060  21.390  16.920
 2016DOPG   GL046045  22.600  25.560   8.660
 2016DOPG   PO446046  22.980  25.340   8.850
 2016DOPG   GL146047  22.920  25.120   9.130
 2016DOPG   GL246048  22.660  24.940   8.940
 2016DOPG   C1A46049  22.700  24.850   9.460
 2016DOPG   D2A46050  22.310  24.930   9.610
 2016DOPG   C3A46051  22.090  25.330   9.670
 2016DOPG   C4A46052  22.000  25.760   9.590
 2016DOPG   C1B46053  22.240  25.170   9.100
 2016DOPG   D2B46054  21.870  25.160   8.850
 2016DOPG   C3B46055  21.690  24.800   8.880
 2016DOPG   C4B46056  21.660  24.360   9.020
 2017DOPG   GL046057  15.310  25.460  17.800
 2017DOPG   PO446058  15.180  25.250  17.380
 2017DOPG   GL146059  15.500  25.220  16.970
 2017DOPG   GL246060  15.490  25.490  16.840
 2017DOPG   C1A46061  15.620  24.850  16.710
 2017DOPG   D2A46062  15.850  24.610  16.320
 2017DOPG   C3A46063  15.840  24.270  16.200
 2017DOPG   C4A46064  15.690  23.830  15.980
 2017DOPG   C1B46065  15.500  25.310  16.400
 2017DOPG   D2B46066  15.490  25.010  16.100
 2017DOPG   C3B46067  15.800  24.870  15.840
 2017DOPG   C4B46068  15.750  24.750  15.420
 2018DOPG   GL046069  17.010  22.680  20.380
 2018DOPG   PO446070  17.420  22.420  20.300
 2018DOPG   GL146071  17.450  22.330  20.710
 2018DOPG   GL246072  17.740  22.530  20.700
 2018DOPG   C1A46073  17.290  22.240  21.120
 2018DOPG   D2A46074  17.130  22.390  21.550
 2018DOPG   C3A46075  16.840  22.320  21.730
 2018DOPG   C4A46076  16.670  21.880  21.930
 2018DOPG   C1B46077  17.700  22.650  21.080
 2018DOPG   D2B46078  17.420  22.810  21.390
 2018DOPG   C3B46079  17.410  22.700  21.830
 2018DOPG   C4B46080  17.430  22.300  22.220
 2019DOPG   GL046081  22.520  16.020   9.160
 2019DOPG   PO446082  22.340  16.270   9.560
 2019DOPG   GL146083  22.810  16.250   9.570
 2019DOPG   GL246084  23.040  16.160   9.770
 2019DOPG   C1A46085  23.070  16.250   9.250
 2019DOPG   D2A46086  23.470  16.150   9.040
 2019DOPG   C3A46087  23.780  15.960   9.300
 2019DOPG   C4A46088  23.890  15.930   9.880
 2019DOPG   C1B46089  23.370  15.950   9.580
 2019DOPG   D2B46090  23.440  15.490   9.510
 2019DOPG   C3B46091  23.860  15.500   9.420
 2019DOPG   C4B46092  24.320  15.740   9.560
 2020DOPG   GL046093  14.440  15.130  15.290
 2020DOPG   PO446094  14.690  15.250  15.690
 2020DOPG   GL146095  14.800  15.680  15.540
 2020DOPG   GL246096  14.730  15.540  15.230
 2020DOPG   C1A46097  14.980  15.980  15.220
 2020DOPG   D2A46098  14.990  16.330  15.040
 2020DOPG   C3A46099  14.660  16.300  14.820
 2020DOPG   C4A46100  14.500  16.290  14.290
 2020DOPG   C1B46101  14.870  15.830  14.780
 2020DOPG   D2B46102  15.070  15.710  14.420
 2020DOPG   C3B46103  15.160  15.320  14.200
 2020DOPG   C4B46104  15.550  15.190  14.090
 2021DOPG   GL046105  11.380  12.120  21.330
 2021DOPG   PO446106  11.450  12.620  21.290
 2021DOPG   GL146107  11.140  12.980  21.280
 2021DOPG   GL246108  11.240  13.210  21.600
 2021DOPG   C1A46109  11.240  13.470  21.070
 2021DOPG   D2A46110  11.110  13.840  20.890
 2021DOPG   C3A46111  11.050  13.780  20.490
 2021DOPG   C4A46112  11.180  13.910  20.190
 2021DOPG   C1B46113  11.550  13.420  21.520
 2021DOPG   D2B46114  12.010  13.590  21.610
 2021DOPG   C3B46115  12.060  13.980  21.770
 2021DOPG   C4B46116  12.230  14.260  22.110
 2022DOPG   GL046117  24.840  22.120  14.680
 2022DOPG   PO446118  25.130  22.310  14.500
 2022DOPG   GL146119  24.660  22.310  14.270
 2022DOPG   GL246120  24.630  22.630  14.180
 2022DOPG   C1A46121  24.290  22.300  13.990
 2022DOPG   D2A46122  24.030  22.170  13.830
 2022DOPG   C3A46123  23.810  21.850  13.790
 2022DOPG   C4A46124  23.530  21.410  13.890
 2022DOPG   C1B46125  24.210  22.770  14.020
 2022DOPG   D2B46126  24.120  23.140  13.690
 2022DOPG   C3B46127  23.660  23.200  13.610
 2022DOPG   C4B46128  23.320  23.140  13.880
 2023DOPG   GL046129  26.610  23.690  14.010
 2023DOPG   PO446130  26.850  23.290  13.780
 2023DOPG   GL146131  27.190  23.190  13.800
 2023DOPG   GL246132  27.440  23.370  13.700
 2023DOPG   C1A46133  27.560  22.870  13.760
 2023DOPG   D2A46134  27.880  22.940  13.990
 2023DOPG   C3A46135  28.020  22.740  14.370
 2023DOPG   C4A46136  28.220  22.780  14.710
 2023DOPG   C1B46137  27.600  23.290  14.160
 2023DOPG   D2B46138  27.860  23.320  14.470
 2023DOPG   C3B46139  28.240  23.340  14.510
 2023DOPG   C4B46140  28.560  23.260  14.170
 2024DOPG   GL046141  13.230  24.670   7.770
 2024DOPG   PO446142  13.270  25.070   7.950
 2024DOPG   GL146143  13.220  25.380   7.650
 2024DOPG   GL246144  13.410  25.430   7.390
 2024DOPG   C1A46145  12.890  25.640   7.270
 2024DOPG   D2A46146  12.600  25.870   7.030
 2024DOPG   C3A46147  12.220  25.940   6.810
 2024DOPG   C4A46148  12.190  26.100   6.450
 2024DOPG   C1B46149  13.390  25.410   6.980
 2024DOPG   D2B46150  13.400  25.520   6.450
 2024DOPG   C3B46151  13.150  25.780   6.260
 2024DOPG   C4B46152  12.720  25.720   6.140
 2025DOPG   GL046153  16.930  28.430   9.090
 2025DOPG   PO446154  17.210  28.130   8.980
 2025DOPG   GL146155  17.260  28.010   9.330
 2025DOPG   GL246156  17.000  27.770   9.660
 2025DOPG   C1A46157  17.460  27.910   9.720
 2025DOPG   D2A46158  17.880  27.820   9.830
 2025DOPG   C3A46159  18.110  27.400   9.900
 2025DOPG   C4A46160  18.340  27.220  10.280
 2025DOPG   C1B46161  17.230  27.640  10.040
 2025DOPG   D2B46162  17.480  27.400  10.310
 2025DOPG   C3B46163  17.840  27.190  10.310
 2025DOPG   C4B46164  18.000  26.870  10.500
 2026DOPG   GL046165  20.720  25.950  18.450
 2026DOPG   PO446166  20.280  25.750  18.380
 2026DOPG   GL146167  20.270  25.520  18.020
 2026DOPG   GL246168  20.280  25.800  17.770
 2026DOPG   C1A46169  20.070  25.210  17.670
 2026DOPG   D2A46170  20.390  24.890  17.560
 2026DOPG   C3A46171  20.250  24.420  17.500
 2026DOPG   C4A46172  20.030  24.040  17.460
 2026DOPG   C1B46173  20.090  25.730  17.380
 2026DOPG   D2B46174  19.930  25.440  17.110
 2026DOPG   C3B46175  20.110  25.030  16.940
 2026DOPG   C4B46176  20.470  24.800  17.050
 2027DOPG   GL046177  20.050  16.130  18.360
 2027DOPG   PO446178  20.460  16.120  18.290
 2027DOPG   GL146179  20.570  15.800  18.670
 2027DOPG   GL246180  20.340  15.700  18.890
 2027DOPG   C1A46181  20.800  15.700  19.050
 2027DOPG   D2A46182  20.990  15.570  19.460
 2027DOPG   C3A46183  21.350  15.500  19.650
 2027DOPG   C4A46184  21.720  15.410  19.820
 2027DOPG   C1B46185  20.440  15.390  19.190
 2027DOPG   D2B46186  20.730  15.050  19.190
 2027DOPG   C3B46187  20.810  14.760  19.480
 2027DOPG   C4B46188  20.970  14.670  19.930
 2028DOPG   GL046189  12.460  13.660  16.050
 2028DOPG   PO446190  12.160  13.750  15.840
 2028DOPG   GL146191  11.720  13.640  15.800
 2028DOPG   GL246192  11.730  13.400  15.650
 2028DOPG   C1A46193  11.350  13.780  15.830
 2028DOPG   D2A46194  10.960  13.460  16.030
 2028DOPG   C3A46195  10.600  13.680  16.190
 2028DOPG   C4A46196  10.360  13.990  16.040
 2028DOPG   C1B46197  11.190  13.360  15.530
 2028DOPG   D2B46198  10.800  13.130  15.670
 2028DOPG   C3B46199  10.450  13.190  15.350
 2028DOPG   C4B46200  10.350  13.560  15.020
 2029DOPG   GL046201  13.090  26.190  14.390
 2029DOPG   PO446202  13.240  25.710  14.470
 2029DOPG   GL146203  13.600  25.460  14.630
 2029DOPG   GL246204  13.730  25.590  14.840
 2029DOPG   C1A46205  13.980  25.190  14.580
 2029DOPG   D2A46206  14.310  24.860  14.560
 2029DOPG   C3A46207  14.390  24.990  14.130
 2029DOPG   C4A46208  14.420  25.110  13.710
 2029DOPG   C1B46209  13.930  25.920  14.580
 2029DOPG   D2B46210  14.080  26.360  14.410
 2029DOPG   C3B46211  14.310  26.490  13.950
 2029DOPG   C4B46212  14.700  26.360  13.700
 2030DOPG   GL046213  19.920   8.510  14.070
 2030DOPG   PO446214  19.760   8.780  13.840
 2030DOPG   GL146215  19.500   9.010  14.130
 2030DOPG   GL246216  19.390   8.990  14.450
 2030DOPG   C1A46217  19.180   9.220  14.010
 2030DOPG   D2A46218  19.110   9.580  14.100
 2030DOPG   C3A46219  18.670   9.640  14.330
 2030DOPG   C4A46220  18.380   9.920  14.400
 2030DOPG   C1B46221  19.490   9.400  14.410
 2030DOPG   D2B46222  19.720   9.760  14.690
 2030DOPG   C3B46223  19.550  10.170  14.750
 2030DOPG   C4B46224  19.460  10.500  14.440
 2031DOPG   GL046225   7.870  15.030  21.290
 2031DOPG   PO446226   8.170  15.360  21.280
 2031DOPG   GL146227   8.440  15.380  20.900
 2031DOPG   GL246228   8.600  15.150  20.670
 2031DOPG   C1A46229   8.770  15.580  20.490
 2031DOPG   D2A46230   9.120  15.520  20.210
 2031DOPG   C3A46231   9.430  15.620  19.870
 2031DOPG   C4A46232   9.880  15.660  19.850
 2031DOPG   C1B46233   8.720  14.900  20.250
 2031DOPG   D2B46234   8.730  14.820  19.660
 2031DOPG   C3B46235   9.100  14.970  19.430
 2031DOPG   C4B46236   9.270  15.330  19.230
 2032DOPG   GL046237  14.030  14.790  10.360
 2032DOPG   PO446238  13.850  14.440  10.020
 2032DOPG   GL146239  13.470  14.640  10.290
 2032DOPG   GL246240  13.340  14.280  10.440
 2032DOPG   C1A46241  13.080  14.830  10.370
 2032DOPG   D2A46242  12.640  14.710  10.360
 2032DOPG   C3A46243  12.420  14.610   9.950
 2032DOPG   C4A46244  12.660  14.480   9.530
 2032DOPG   C1B46245  12.940  14.340  10.240
 2032DOPG   D2B46246  12.470  14.220  10.270
 2032DOPG   C3B46247  12.200  14.470  10.470
 2032DOPG   C4B46248  12.120  14.960  10.610
 2033DOPG   GL046249  22.590  28.590  16.050
 2033DOPG   PO446250  22.560  28.820  16.380
 2033DOPG   GL146251  22.570  29.150  16.310
 2033DOPG   GL246252  22.430  29.170  15.980
 2033DOPG   C1A46253  22.960  29.410  16.220
 2033DOPG   D2A46254  22.990  29.830  16.250
 2033DOPG   C3A46255  23.230  30.190  16.450
 2033DOPG   C4A46256  23.550  30.070  16.610
 2033DOPG   C1B46257  22.470  29.580  16.150
 2033DOPG   D2B46258  22.300  29.850  16.270
 2033DOPG   C3B46259  22.410  30.250  16.290
 2033DOPG   C4B46260  22.520  30.720  16.460
 2034DOPG   GL046261  12.620  21.450   9.280
 2034DOPG   PO446262  12.270  21.150   9.270
 2034DOPG   GL146263  12.410  21.050   9.600
 2034DOPG   GL246264  12.210  21.280   9.880
 2034DOPG   C1A46265  12.530  20.750   9.940
 2034DOPG   D2A46266  12.640  20.670  10.230
 2034DOPG   C3A46267  12.980  20.490  10.180
 2034DOPG   C4A46268  13.420  20.420  10.430
 2034DOPG   C1B46269  12.500  21.500  10.160
 2034DOPG   D2B46270  12.660  21.890  10.440
 2034DOPG   C3B46271  12.820  21.740  10.860
 2034DOPG   C4B46272  12.850  21.270  10.950
 2035DOPG   GL046273  22.340  18.710   8.870
 2035DOPG   PO446274  22.580  18.920   9.180
 2035DOPG   GL146275  22.210  19.140   9.470
 2035DOPG   GL246276  21.970  18.940   9.500
 2035DOPG   C1A46277  22.000  19.500   9.510
 2035DOPG   D2A46278  21.750  19.930   9.320
 2035DOPG   C3A46279  21.380  19.970   9.220
 2035DOPG   C4A46280  21.050  20.100   9.460
 2035DOPG   C1B46281  21.650  19.250   9.320
 2035DOPG   D2B46282  21.260  19.100   9.280
 2035DOPG   C3B46283  20.860  19.350   9.530
 2035DOPG   C4B46284  20.820  19.620   9.900
 2036DOPG   GL046285   4.430  22.510  15.800
 2036DOPG   PO446286   4.670  22.530  15.510
 2036DOPG   GL146287   5.160  22.470  15.500
 2036DOPG   GL246288   5.500  22.670  15.340
 2036DOPG   C1A46289   5.590  22.140  15.580
 2036DOPG   D2A46290   5.940  22.080  15.410
 2036DOPG   C3A46291   6.110  21.830  15.050
 2036DOPG   C4A46292   6.380  21.580  14.790
 2036DOPG   C1B46293   5.590  22.330  15.060
 2036DOPG   D2B46294   5.610  21.840  15.060
 2036DOPG   C3B46295   5.810  21.470  15.360
 2036DOPG   C4B46296   5.860  21.060  15.600
 2037DOPG   GL046297  20.420  27.350   8.130
 2037DOPG   PO446298  19.990  27.580   8.050
 2037DOPG   GL146299  19.960  27.830   7.690
 2037DOPG   GL246300  19.600  27.960   7.830
 2037DOPG   C1A46301  20.110  27.930   7.310
 2037DOPG   D2A46302  20.460  27.950   7.010
 2037DOPG   C3A46303  20.880  27.900   7.050
 2037DOPG   C4A46304  21.320  27.910   6.750
 2037DOPG   C1B46305  19.670  28.380   7.680
 2037DOPG   D2B46306  19.860  28.730   7.520
 2037DOPG   C3B46307  19.670  28.870   7.240
 2037DOPG   C4B46308  19.430  29.310   7.190
 2038DOPG   GL046309  24.080  22.340  17.230
 2038DOPG   PO446310  24.250  22.100  17.110
 2038DOPG   GL146311  23.910  22.000  16.810
 2038DOPG   GL246312  23.660  21.820  16.880
 2038DOPG   C1A46313  23.750  22.080  16.460
 2038DOPG   D2A46314  23.440  22.300  16.170
 2038DOPG   C3A46315  23.100  22.200  16.360
 2038DOPG   C4A46316  22.890  22.330  16.750
 2038DOPG   C1B46317  23.340  21.730  16.650
 2038DOPG   D2B46318  22.960  21.620  16.630
 2038DOPG   C3B46319  22.640  21.860  16.580
 2038DOPG   C4B46320  22.250  22.000  16.310
 2039DOPG   GL046321  17.590  29.610  15.430
 2039DOPG   PO446322  17.410  29.950  15.460
 2039DOPG   GL146323  17.640  30.340  15.670
 2039DOPG   GL246324  17.890  30.490  15.570
 2039DOPG   C1A46325  17.550  30.690  15.910
 2039DOPG   D2A46326  17.330  30.650  16.310
 2039DOPG   C3A46327  17.030  30.890  16.560
 2039DOPG   C4A46328  16.750  31.250  16.570
 2039DOPG   C1B46329  18.120  30.810  15.680
 2039DOPG   D2B46330  18.200  31.260  15.970
 2039DOPG   C3B46331  18.230  31.050  16.340
 2039DOPG   C4B46332  18.110  30.700  16.780
 2040DOPG   GL046333  16.490  24.530  17.700
 2040DOPG   PO446334  16.250  24.970  17.730
 2040DOPG   GL146335  16.320  25.030  17.320
 2040DOPG   GL246336  16.420  24.730  17.200
 2040DOPG   C1A46337  16.530  25.140  16.930
 2040DOPG   D2A46338  16.810  24.850  16.660
 2040DOPG   C3A46339  17.230  24.930  16.650
 2040DOPG   C4A46340  17.450  25.320  16.580
 2040DOPG   C1B46341  16.250  24.580  16.760
 2040DOPG   D2B46342  16.400  24.720  16.510
 2040DOPG   C3B46343  16.280  24.640  16.000
 2040DOPG   C4B46344  16.140  24.610  15.610
 2041DOPG   GL046345  20.320  23.630   1.590
 2041DOPG   PO446346  19.930  23.900   1.470
 2041DOPG   GL146347  19.810  23.900   1.840
 2041DOPG   GL246348  19.880  24.200   1.950
 2041DOPG   C1A46349  19.700  23.590   2.200
 2041DOPG   D2A46350  19.740  23.500   2.650
 2041DOPG   C3A46351  19.430  23.410   2.980
 2041DOPG   C4A46352  19.070  23.320   3.120
 2041DOPG   C1B46353  19.810  24.140   2.330
 2041DOPG   D2B46354  19.540  24.100   2.700
 2041DOPG   C3B46355  19.830  23.950   3.090
 2041DOPG   C4B46356  19.850  24.050   3.510
 2042DOPG   GL046357  24.550  21.230  10.060
 2042DOPG   PO446358  24.170  21.250  10.160
 2042DOPG   GL146359  23.900  21.280  10.570
 2042DOPG   GL246360  23.620  21.130  10.640
 2042DOPG   C1A46361  23.950  21.490  10.980
 2042DOPG   D2A46362  23.810  21.540  11.330
 2042DOPG   C3A46363  23.460  21.820  11.530
 2042DOPG   C4A46364  23.480  22.010  11.980
 2042DOPG   C1B46365  23.390  21.330  10.950
 2042DOPG   D2B46366  23.310  21.310  11.410
 2042DOPG   C3B46367  23.050  21.520  11.650
 2042DOPG   C4B46368  22.610  21.710  11.580
 2043DOPG   GL046369  13.170  23.480  18.180
 2043DOPG   PO446370  12.810  23.610  18.210
 2043DOPG   GL146371  12.570  24.020  18.360
 2043DOPG   GL246372  12.720  24.350  18.560
 2043DOPG   C1A46373  12.240  24.200  18.640
 2043DOPG   D2A46374  12.000  24.480  18.780
 2043DOPG   C3A46375  12.070  24.810  18.960
 2043DOPG   C4A46376  11.970  25.170  19.020
 2043DOPG   C1B46377  12.580  24.440  18.990
 2043DOPG   D2B46378  12.200  24.350  19.250
 2043DOPG   C3B46379  12.030  24.760  19.430
 2043DOPG   C4B46380  12.000  25.120  19.500
 2044DOPG   GL046381  24.280  33.010  10.970
 2044DOPG   PO446382  24.550  32.650  11.150
 2044DOPG   GL146383  24.390  32.200  11.260
 2044DOPG   GL246384  24.620  32.070  10.960
 2044DOPG   C1A46385  24.090  31.810  11.370
 2044DOPG   D2A46386  23.870  31.440  11.600
 2044DOPG   C3A46387  24.170  31.540  11.940
 2044DOPG   C4A46388  24.360  31.910  12.230
 2044DOPG   C1B46389  24.470  31.680  11.110
 2044DOPG   D2B46390  24.340  31.260  11.220
 2044DOPG   C3B46391  24.590  30.950  11.240
 2044DOPG   C4B46392  24.650  30.550  11.420
 2045DOPG   GL046393  19.260  28.040   9.320
 2045DOPG   PO446394  19.270  27.640   9.580
 2045DOPG   GL146395  19.440  27.440   9.800
 2045DOPG   GL246396  19.510  27.590  10.030
 2045DOPG   C1A46397  19.780  27.180  10.030
 2045DOPG   D2A46398  20.150  27.370  10.270
 2045DOPG   C3A46399  20.210  27.330  10.730
 2045DOPG   C4A46400  20.030  27.100  11.050
 2045DOPG   C1B46401  19.570  27.420  10.440
 2045DOPG   D2B46402  19.710  27.190  10.700
 2045DOPG   C3B46403  19.520  27.090  11.030
 2045DOPG   C4B46404  19.190  27.190  11.190
 2046DOPG   GL046405  24.670  20.410  13.640
 2046DOPG   PO446406  24.820  20.170  14.060
 2046DOPG   GL146407  24.450  20.490  14.120
 2046DOPG   GL246408  24.190  20.420  14.010
 2046DOPG   C1A46409  24.180  20.980  14.090
 2046DOPG   D2A46410  23.780  20.930  13.910
 2046DOPG   C3A46411  23.410  21.030  14.190
 2046DOPG   C4A46412  23.280  21.440  14.450
 2046DOPG   C1B46413  23.890  20.550  14.250
 2046DOPG   D2B46414  23.550  20.510  14.290
 2046DOPG   C3B46415  23.250  20.580  13.980
 2046DOPG   C4B46416  22.970  20.950  13.980
 2047DOPG   GL046417  21.440  26.520   8.100
 2047DOPG   PO446418  21.240  26.440   8.500
 2047DOPG   GL146419  21.090  26.130   8.650
 2047DOPG   GL246420  20.820  26.090   8.510
 2047DOPG   C1A46421  21.260  25.830   8.890
 2047DOPG   D2A46422  21.440  25.760   9.370
 2047DOPG   C3A46423  21.090  25.430   9.590
 2047DOPG   C4A46424  20.740  25.430   9.670
 2047DOPG   C1B46425  20.710  25.790   8.800
 2047DOPG   D2B46426  20.910  25.680   9.200
 2047DOPG   C3B46427  20.890  25.880   9.550
 2047DOPG   C4B46428  20.600  26.130   9.880
 2048DOPG   GL046429  15.560  27.130  15.150
 2048DOPG   PO446430  15.640  27.510  15.400
 2048DOPG   GL146431  16.010  27.360  15.250
 2048DOPG   GL246432  16.280  27.470  15.300
 2048DOPG   C1A46433  16.020  26.960  15.120
 2048DOPG   D2A46434  16.110  26.590  15.370
 2048DOPG   C3A46435  16.200  26.020  15.400
 2048DOPG   C4A46436  16.250  25.650  15.630
 2048DOPG   C1B46437  16.470  27.250  15.010
 2048DOPG   D2B46438  16.700  27.150  14.600
 2048DOPG   C3B46439  17.160  26.970  14.580
 2048DOPG   C4B46440  17.530  26.940  14.890
 2049DOPG   GL046441  12.120  18.500   8.660
 2049DOPG   PO446442  12.120  18.810   8.340
 2049DOPG   GL146443  11.790  18.460   8.320
 2049DOPG   GL246444  11.790  18.280   8.090
 2049DOPG   C1A46445  11.630  18.280   8.700
 2049DOPG   D2A46446  11.510  18.110   9.160
 2049DOPG   C3A46447  11.360  17.670   9.160
 2049DOPG   C4A46448  11.350  17.270   9.090
 2049DOPG   C1B46449  11.410  18.240   7.890
 2049DOPG   D2B46450  11.170  18.270   7.570
 2049DOPG   C3B46451  10.780  18.130   7.440
 2049DOPG   C4B46452  10.420  17.820   7.410
 2050DOPG   GL046453  17.080  26.930   8.360
 2050DOPG   PO446454  17.510  26.620   8.520
 2050DOPG   GL146455  17.740  26.670   8.980
 2050DOPG   GL246456  17.400  26.590   9.140
 2050DOPG   C1A46457  17.880  26.520   9.410
 2050DOPG   D2A46458  18.320  26.180   9.450
 2050DOPG   C3A46459  18.280  25.810   9.080
 2050DOPG   C4A46460  17.850  25.640   8.990
 2050DOPG   C1B46461  17.220  26.200   9.350
 2050DOPG   D2B46462  17.150  25.980   9.640
 2050DOPG   C3B46463  17.190  25.900  10.140
 2050DOPG   C4B46464  17.050  25.560  10.460
 2051DOPG   GL046465  24.040  18.730  11.370
 2051DOPG   PO446466  23.650  18.650  11.680
 2051DOPG   GL146467  23.350  18.920  11.910
 2051DOPG   GL246468  23.300  18.640  12.230
 2051DOPG   C1A46469  22.990  19.280  11.990
 2051DOPG   D2A46470  23.180  19.650  12.120
 2051DOPG   C3A46471  22.960  20.020  12.210
 2051DOPG   C4A46472  22.570  20.190  12.190
 2051DOPG   C1B46473  23.150  19.040  12.440
 2051DOPG   D2B46474  22.800  19.380  12.450
 2051DOPG   C3B46475  22.640  19.680  12.090
 2051DOPG   C4B46476  22.390  19.520  11.800
 2052DOPG   GL046477  20.120  15.350  14.880
 2052DOPG   PO446478  20.030  14.960  14.900
 2052DOPG   GL146479  19.740  15.210  15.090
 2052DOPG   GL246480  19.660  15.480  15.360
 2052DOPG   C1A46481  19.570  15.580  14.800
 2052DOPG   D2A46482  19.270  15.930  14.660
 2052DOPG   C3A46483  19.420  16.440  14.730
 2052DOPG   C4A46484  19.480  16.750  15.060
 2052DOPG   C1B46485  19.310  15.780  15.230
 2052DOPG   D2B46486  19.010  16.170  15.110
 2052DOPG   C3B46487  19.020  16.590  15.180
 2052DOPG   C4B46488  19.180  17.080  15.320
 2053DOPG   GL046489  16.980  28.750  11.640
 2053DOPG   PO446490  17.420  28.770  11.500
 2053DOPG   GL146491  17.460  28.470  11.240
 2053DOPG   GL246492  17.620  28.430  11.050
 2053DOPG   C1A46493  17.640  27.990  11.340
 2053DOPG   D2A46494  18.010  27.820  11.400
 2053DOPG   C3A46495  17.950  27.530  11.080
 2053DOPG   C4A46496  17.690  27.230  10.840
 2053DOPG   C1B46497  18.060  28.260  11.220
 2053DOPG   D2B46498  18.240  28.200  11.660
 2053DOPG   C3B46499  18.160  27.890  11.920
 2053DOPG   C4B46500  18.380  27.570  12.170
 2054DOPG   GL046501  14.390  14.530  10.560
 2054DOPG   PO446502  14.380  14.250  10.840
 2054DOPG   GL146503  14.140  14.670  10.960
 2054DOPG   GL246504  14.410  14.820  11.040
 2054DOPG   C1A46505  13.850  14.960  10.780
 2054DOPG   D2A46506  13.680  15.320  10.980
 2054DOPG   C3A46507  13.900  15.690  10.840
 2054DOPG   C4A46508  13.720  16.090  10.600
 2054DOPG   C1B46509  14.170  15.300  11.010
 2054DOPG   D2B46510  14.010  15.450  11.400
 2054DOPG   C3B46511  14.140  15.220  11.760
 2054DOPG   C4B46512  14.360  14.970  12.100
 2055DOPG   GL046513  13.040  16.450  16.560
 2055DOPG   PO446514  13.160  16.790  16.880
 2055DOPG   GL146515  12.940  17.070  16.620
 2055DOPG   GL246516  12.780  17.280  16.740
 2055DOPG   C1A46517  12.950  17.370  16.280
 2055DOPG   D2A46518  13.170  17.760  16.180
 2055DOPG   C3A46519  13.420  17.730  15.760
 2055DOPG   C4A46520  13.130  17.580  15.350
 2055DOPG   C1B46521  12.470  17.460  16.500
 2055DOPG   D2B46522  12.460  17.870  16.390
 2055DOPG   C3B46523  12.790  17.990  16.540
 2055DOPG   C4B46524  13.060  17.700  16.690
 2056DOPG   GL046525  15.130  25.830  18.060
 2056DOPG   PO446526  15.540  26.130  18.070
 2056DOPG   GL146527  15.250  26.280  18.490
 2056DOPG   GL246528  14.880  26.180  18.440
 2056DOPG   C1A46529  15.060  26.600  18.740
 2056DOPG   D2A46530  14.830  26.580  19.190
 2056DOPG   C3A46531  14.480  26.630  19.290
 2056DOPG   C4A46532  14.090  26.860  19.330
 2056DOPG   C1B46533  14.640  26.500  18.520
 2056DOPG   D2B46534  14.320  26.610  18.750
 2056DOPG   C3B46535  13.930  26.820  18.800
 2056DOPG   C4B46536  13.630  27.100  19.100
 2057DOPG   GL046537  14.440  12.160  12.950
 2057DOPG   PO446538  14.420  11.880  12.690
 2057DOPG   GL146539  14.360  11.490  12.840
 2057DOPG   GL246540  14.100  11.370  12.710
 2057DOPG   C1A46541  14.410  10.980  12.850
 2057DOPG   D2A46542  14.210  10.630  12.760
 2057DOPG   C3A46543  14.330  10.220  12.920
 2057DOPG   C4A46544  14.560   9.830  12.770
 2057DOPG   C1B46545  13.920  10.980  12.550
 2057DOPG   D2B46546  13.530  10.760  12.230
 2057DOPG   C3B46547  13.580  10.510  11.890
 2057DOPG   C4B46548  13.690  10.200  11.660
 2058DOPG   GL046549  22.660  24.680  18.530
 2058DOPG   PO446550  22.360  24.540  18.230
 2058DOPG   GL146551  22.050  24.380  17.960
 2058DOPG   GL246552  22.290  24.060  18.010
 2058DOPG   C1A46553  21.990  24.160  17.520
 2058DOPG   D2A46554  21.840  23.770  17.450
 2058DOPG   C3A46555  21.910  23.500  17.180
 2058DOPG   C4A46556  21.630  23.250  16.780
 2058DOPG   C1B46557  22.310  23.820  17.650
 2058DOPG   D2B46558  22.520  23.520  17.440
 2058DOPG   C3B46559  22.610  23.600  16.980
 2058DOPG   C4B46560  22.310  23.750  16.710
 2059DOPG   GL046561  18.790  28.310  16.010
 2059DOPG   PO446562  18.510  28.400  15.640
 2059DOPG   GL146563  18.630  27.990  15.440
 2059DOPG   GL246564  18.920  27.970  15.570
 2059DOPG   C1A46565  18.610  27.750  14.990
 2059DOPG   D2A46566  18.860  27.520  14.880
 2059DOPG   C3A46567  18.620  27.070  14.930
 2059DOPG   C4A46568  18.870  26.670  14.980
 2059DOPG   C1B46569  18.790  27.760  15.870
 2059DOPG   D2B46570  18.670  27.410  15.900
 2059DOPG   C3B46571  18.740  27.310  16.220
 2059DOPG   C4B46572  19.070  27.410  16.600
 2060DOPG   GL046573  13.640  16.830  19.830
 2060DOPG   PO446574  13.640  17.240  19.700
 2060DOPG   GL146575  13.310  17.190  20.050
 2060DOPG   GL246576  13.540  16.990  20.260
 2060DOPG   C1A46577  13.080  16.930  20.370
 2060DOPG   D2A46578  13.080  16.540  20.490
 2060DOPG   C3A46579  13.190  16.270  20.890
 2060DOPG   C4A46580  12.970  15.860  20.950
 2060DOPG   C1B46581  13.620  16.610  20.240
 2060DOPG   D2B46582  13.480  16.140  20.290
 2060DOPG   C3B46583  13.500  15.850  20.500
 2060DOPG   C4B46584  13.250  15.630  20.590
 2061DOPG   GL046585  22.570  21.200  18.600
 2061DOPG   PO446586  22.400  21.590  18.710
 2061DOPG   GL146587  22.270  21.360  18.260
 2061DOPG   GL246588  22.420  21.290  18.000
 2061DOPG   C1A46589  21.890  21.410  18.080
 2061DOPG   D2A46590  21.450  21.610  18.180
 2061DOPG   C3A46591  21.220  21.950  18.400
 2061DOPG   C4A46592  21.340  22.350  18.500
 2061DOPG   C1B46593  22.230  21.190  17.620
 2061DOPG   D2B46594  22.020  21.090  17.320
 2061DOPG   C3B46595  22.040  21.150  16.850
 2061DOPG   C4B46596  22.170  20.970  16.470
 2062DOPG   GL046597  17.020  14.750  15.530
 2062DOPG   PO446598  16.750  14.910  15.850
 2062DOPG   GL146599  16.610  15.250  15.780
 2062DOPG   GL246600  16.730  15.510  15.980
 2062DOPG   C1A46601  16.480  15.470  15.390
 2062DOPG   D2A46602  16.600  15.750  15.170
 2062DOPG   C3A46603  16.470  15.900  14.780
 2062DOPG   C4A46604  16.230  15.820  14.430
 2062DOPG   C1B46605  16.390  15.710  15.920
 2062DOPG   D2B46606  16.180  15.880  15.540
 2062DOPG   C3B46607  16.060  15.610  15.160
 2062DOPG   C4B46608  16.240  15.470  14.850
 2063DOPG   GL046609  25.510  23.060  12.370
 2063DOPG   PO446610  25.550  22.720  12.690
 2063DOPG   GL146611  25.140  22.840  12.630
 2063DOPG   GL246612  25.190  23.130  12.780
 2063DOPG   C1A46613  24.670  22.850  12.710
 2063DOPG   D2A46614  24.410  23.180  12.530
 2063DOPG   C3A46615  24.530  23.380  12.100
 2063DOPG   C4A46616  24.630  23.680  11.650
 2063DOPG   C1B46617  24.730  23.380  12.930
 2063DOPG   D2B46618  24.350  23.160  12.970
 2063DOPG   C3B46619  24.350  22.680  13.020
 2063DOPG   C4B46620  24.010  22.430  13.070
 2064DOPG   GL046621  14.960  24.960  17.780
 2064DOPG   PO446622  15.010  24.680  17.450
 2064DOPG   GL146623  15.420  24.760  17.260
 2064DOPG   GL246624  15.320  24.540  17.020
 2064DOPG   C1A46625  15.780  24.580  17.120
 2064DOPG   D2A46626  16.160  24.320  17.240
 2064DOPG   C3A46627  15.890  24.020  17.390
 2064DOPG   C4A46628  15.970  23.620  17.430
 2064DOPG   C1B46629  15.640  24.350  16.690
 2064DOPG   D2B46630  15.930  24.160  16.810
 2064DOPG   C3B46631  16.110  23.830  16.930
 2064DOPG   C4B46632  16.280  23.450  17.060
 2065DOPG   GL046633  18.630  25.910  19.650
 2065DOPG   PO446634  18.570  25.960  20.060
 2065DOPG   GL146635  18.600  25.680  20.390
 2065DOPG   GL246636  18.520  25.350  20.380
 2065DOPG   C1A46637  18.770  25.770  20.770
 2065DOPG   D2A46638  18.930  25.830  21.200
 2065DOPG   C3A46639  18.700  25.950  21.640
 2065DOPG   C4A46640  18.430  25.930  21.970
 2065DOPG   C1B46641  18.530  25.330  20.850
 2065DOPG   D2B46642  18.400  25.620  21.080
 2065DOPG   C3B46643  18.340  25.640  21.510
 2065DOPG   C4B46644  18.530  25.460  21.820
 2066DOPG   GL046645  10.650  20.050  16.850
 2066DOPG   PO446646  10.930  20.260  16.610
 2066DOPG   GL146647  11.360  20.300  16.580
 2066DOPG   GL246648  11.570  20.430  16.390
 2066DOPG   C1A46649  11.610  19.950  16.330
 2066DOPG   D2A46650  11.780  19.890  16.000
 2066DOPG   C3A46651  12.230  19.900  15.890
 2066DOPG   C4A46652  12.540  19.930  15.600
 2066DOPG   C1B46653  11.870  20.410  16.670
 2066DOPG   D2B46654  12.220  19.990  16.810
 2066DOPG   C3B46655  12.600  19.920  16.560
 2066DOPG   C4B46656  12.950  19.750  16.510
 2067DOPG   GL046657  18.090  23.780   1.190
 2067DOPG   PO446658  18.100  24.220   1.170
 2067DOPG   GL146659  18.210  24.150   1.550
 2067DOPG   GL246660  17.980  24.030   1.860
 2067DOPG   C1A46661  18.330  23.740   1.710
 2067DOPG   D2A46662  18.300  23.600   2.070
 2067DOPG   C3A46663  18.310  23.880   2.270
 2067DOPG   C4A46664  18.230  23.840   2.760
 2067DOPG   C1B46665  17.820  24.090   2.260
 2067DOPG   D2B46666  17.690  24.030   2.620
 2067DOPG   C3B46667  17.740  23.620   2.700
 2067DOPG   C4B46668  17.790  23.230   2.540
 2068DOPG   GL046669  13.960  26.800  15.960
 2068DOPG   PO446670  13.880  27.250  15.940
 2068DOPG   GL146671  13.920  27.550  16.370
 2068DOPG   GL246672  13.780  27.440  16.680
 2068DOPG   C1A46673  13.670  27.920  16.510
 2068DOPG   D2A46674  13.570  28.370  16.300
 2068DOPG   C3A46675  13.740  28.760  16.470
 2068DOPG   C4A46676  13.570  29.110  16.510
 2068DOPG   C1B46677  13.550  27.630  17.030
 2068DOPG   D2B46678  13.590  27.880  17.370
 2068DOPG   C3B46679  13.260  28.170  17.400
 2068DOPG   C4B46680  13.150  28.620  17.420
 2069DOPG   GL046681  18.260  16.280  17.880
 2069DOPG   PO446682  18.630  16.460  17.830
 2069DOPG   GL146683  18.410  16.480  17.470
 2069DOPG   GL246684  18.390  16.470  17.210
 2069DOPG   C1A46685  17.950  16.720  17.420
 2069DOPG   D2A46686  17.730  16.880  17.040
 2069DOPG   C3A46687  17.400  17.070  16.830
 2069DOPG   C4A46688  17.050  16.990  16.610
 2069DOPG   C1B46689  18.220  16.710  16.830
 2069DOPG   D2B46690  18.380  16.980  16.440
 2069DOPG   C3B46691  18.120  17.060  16.100
 2069DOPG   C4B46692  18.280  17.380  15.860
 2070DOPG   GL046693   8.920  21.400  15.110
 2070DOPG   PO446694   8.730  21.150  14.820
 2070DOPG   GL146695   8.420  21.350  15.010
 2070DOPG   GL246696   8.460  21.680  15.260
 2070DOPG   C1A46697   8.020  21.610  14.880
 2070DOPG   D2A46698   7.920  21.950  14.860
 2070DOPG   C3A46699   7.730  22.230  14.500
 2070DOPG   C4A46700   7.840  22.450  14.200
 2070DOPG   C1B46701   7.920  21.750  15.310
 2070DOPG   D2B46702   7.470  21.770  15.010
 2070DOPG   C3B46703   7.370  21.820  14.590
 2070DOPG   C4B46704   7.200  22.080  14.410
 2071DOPG   GL046705  18.990  25.770   7.490
 2071DOPG   PO446706  18.590  25.540   7.390
 2071DOPG   GL146707  18.750  25.370   7.820
 2071DOPG   GL246708  18.970  25.000   7.740
 2071DOPG   C1A46709  18.470  25.050   8.040
 2071DOPG   D2A46710  18.200  24.960   8.400
 2071DOPG   C3A46711  18.120  24.640   8.650
 2071DOPG   C4A46712  18.470  24.360   8.980
 2071DOPG   C1B46713  19.060  24.710   8.100
 2071DOPG   D2B46714  19.240  24.570   8.520
 2071DOPG   C3B46715  19.480  24.300   8.610
 2071DOPG   C4B46716  19.770  24.120   8.780
 2072DOPG   GL046717  19.190  26.740  18.770
 2072DOPG   PO446718  19.430  26.320  18.490
 2072DOPG   GL146719  19.070  25.990  18.400
 2072DOPG   GL246720  18.920  25.720  18.460
 2072DOPG   C1A46721  18.760  25.850  18.020
 2072DOPG   D2A46722  18.660  25.550  17.720
 2072DOPG   C3A46723  18.350  25.260  17.850
 2072DOPG   C4A46724  17.870  25.270  17.920
 2072DOPG   C1B46725  18.770  25.380  18.220
 2072DOPG   D2B46726  18.860  25.070  17.870
 2072DOPG   C3B46727  18.790  25.220  17.400
 2072DOPG   C4B46728  18.730  25.480  17.130
 2073DOPG   GL046729  14.670  24.760   7.150
 2073DOPG   PO446730  14.750  24.430   7.060
 2073DOPG   GL146731  14.740  24.630   6.640
 2073DOPG   GL246732  14.650  24.950   6.680
 2073DOPG   C1A46733  14.780  24.560   6.170
 2073DOPG   D2A46734  14.870  24.770   5.810
 2073DOPG   C3A46735  15.100  24.590   5.510
 2073DOPG   C4A46736  15.080  24.600   5.090
 2073DOPG   C1B46737  14.430  25.110   6.300
 2073DOPG   D2B46738  14.020  25.090   6.210
 2073DOPG   C3B46739  13.960  25.360   5.830
 2073DOPG   C4B46740  13.880  25.570   5.490
 2074DOPG   GL046741  17.700  14.880   9.700
 2074DOPG   PO446742  17.630  15.210   9.850
 2074DOPG   GL146743  17.690  15.630  10.080
 2074DOPG   GL246744  18.030  15.660  10.140
 2074DOPG   C1A46745  17.630  16.030   9.960
 2074DOPG   D2A46746  17.500  16.470   9.940
 2074DOPG   C3A46747  17.370  16.720  10.230
 2074DOPG   C4A46748  17.500  16.750  10.680
 2074DOPG   C1B46749  18.480  15.920  10.290
 2074DOPG   D2B46750  18.810  16.180  10.460
 2074DOPG   C3B46751  18.920  16.520  10.700
 2074DOPG   C4B46752  18.770  16.770  10.950
 2075DOPG   GL046753   7.330  24.750  17.300
 2075DOPG   PO446754   7.490  24.800  17.650
 2075DOPG   GL146755   7.930  24.850  17.710
 2075DOPG   GL246756   8.040  24.610  18.100
 2075DOPG   C1A46757   8.400  24.830  17.690
 2075DOPG   D2A46758   8.850  24.680  17.660
 2075DOPG   C3A46759   9.020  24.620  17.250
 2075DOPG   C4A46760   9.360  24.570  17.010
 2075DOPG   C1B46761   8.450  24.730  18.190
 2075DOPG   D2B46762   8.790  25.080  18.100
 2075DOPG   C3B46763   9.220  24.970  17.780
 2075DOPG   C4B46764   9.450  24.790  17.470
 2076DOPG   GL046765  18.290  14.190  12.300
 2076DOPG   PO446766  18.660  14.180  12.520
 2076DOPG   GL146767  18.610  14.570  12.460
 2076DOPG   GL246768  18.390  14.660  12.250
 2076DOPG   C1A46769  18.440  15.080  12.600
 2076DOPG   D2A46770  18.230  15.500  12.670
 2076DOPG   C3A46771  18.180  15.720  13.040
 2076DOPG   C4A46772  17.970  15.950  13.250
 2076DOPG   C1B46773  18.580  14.990  12.150
 2076DOPG   D2B46774  18.840  15.310  12.200
 2076DOPG   C3B46775  18.450  15.520  12.260
 2076DOPG   C4B46776  18.200  15.280  12.060
 2077DOPG   GL046777  12.560  25.920  11.770
 2077DOPG   PO446778  12.820  25.560  11.540
 2077DOPG   GL146779  13.290  25.460  11.550
 2077DOPG   GL246780  13.560  25.740  11.690
 2077DOPG   C1A46781  13.510  25.120  11.440
 2077DOPG   D2A46782  13.660  24.730  11.220
 2077DOPG   C3A46783  14.040  24.470  11.270
 2077DOPG   C4A46784  14.380  24.530  11.480
 2077DOPG   C1B46785  13.920  25.480  11.450
 2077DOPG   D2B46786  14.030  25.050  11.230
 2077DOPG   C3B46787  14.130  24.870  10.830
 2077DOPG   C4B46788  14.360  24.620  10.910
 2078DOPG   GL046789  23.500  27.490  17.510
 2078DOPG   PO446790  23.440  27.820  17.790
 2078DOPG   GL146791  23.690  27.830  18.100
 2078DOPG   GL246792  24.080  27.950  18.020
 2078DOPG   C1A46793  23.910  28.060  18.540
 2078DOPG   D2A46794  23.710  28.080  18.880
 2078DOPG   C3A46795  23.860  27.990  19.320
 2078DOPG   C4A46796  24.080  28.100  19.670
 2078DOPG   C1B46797  24.460  28.010  18.050
 2078DOPG   D2B46798  24.640  28.380  18.020
 2078DOPG   C3B46799  24.630  28.640  18.360
 2078DOPG   C4B46800  24.500  28.980  18.540
 2079DOPG   GL046801  11.890  23.500  15.210
 2079DOPG   PO446802  11.990  23.880  15.340
 2079DOPG   GL146803  12.380  23.630  15.080
 2079DOPG   GL246804  12.630  23.830  14.970
 2079DOPG   C1A46805  12.860  23.470  15.200
 2079DOPG   D2A46806  13.300  23.440  15.340
 2079DOPG   C3A46807  13.590  23.110  15.180
 2079DOPG   C4A46808  13.810  23.020  14.840
 2079DOPG   C1B46809  12.910  23.670  14.610
 2079DOPG   D2B46810  13.080  23.240  14.430
 2079DOPG   C3B46811  13.400  23.100  14.510
 2079DOPG   C4B46812  13.640  23.280  14.350
 2080DOPG   GL046813  17.590  29.230  13.650
 2080DOPG   PO446814  17.570  28.810  13.360
 2080DOPG   GL146815  17.850  28.390  13.310
 2080DOPG   GL246816  17.850  28.090  13.530
 2080DOPG   C1A46817  17.930  28.010  13.050
 2080DOPG   D2A46818  17.740  27.570  12.930
 2080DOPG   C3A46819  18.010  27.380  12.690
 2080DOPG   C4A46820  18.420  27.270  12.760
 2080DOPG   C1B46821  18.170  27.850  13.790
 2080DOPG   D2B46822  18.490  27.710  14.010
 2080DOPG   C3B46823  18.660  27.650  14.470
 2080DOPG   C4B46824  18.870  27.390  14.440
 2081DOPG   GL046825  13.680  18.100  19.600
 2081DOPG   PO446826  13.600  18.500  19.580
 2081DOPG   GL146827  13.500  18.540  19.990
 2081DOPG   GL246828  13.800  18.480  20.280
 2081DOPG   C1A46829  13.390  18.870  20.240
 2081DOPG   D2A46830  13.400  19.050  20.760
 2081DOPG   C3A46831  13.700  19.310  20.930
 2081DOPG   C4A46832  13.780  19.560  20.610
 2081DOPG   C1B46833  13.760  18.350  20.760
 2081DOPG   D2B46834  13.470  18.110  20.930
 2081DOPG   C3B46835  13.300  17.810  21.190
 2081DOPG   C4B46836  13.390  17.550  21.450
 2082DOPG   GL046837  16.330  13.620  13.990
 2082DOPG   PO446838  16.200  14.010  14.080
 2082DOPG   GL146839  16.310  14.370  13.960
 2082DOPG   GL246840  16.120  14.510  14.160
 2082DOPG   C1A46841  16.240  14.740  13.730
 2082DOPG   D2A46842  16.240  15.150  13.670
 2082DOPG   C3A46843  16.020  15.550  13.970
 2082DOPG   C4A46844  15.630  15.700  14.130
 2082DOPG   C1B46845  15.750  14.690  14.240
 2082DOPG   D2B46846  15.380  14.960  14.480
 2082DOPG   C3B46847  15.440  15.450  14.600
 2082DOPG   C4B46848  15.800  15.840  14.760
 2083DOPG   GL046849  25.470  23.220  10.520
 2083DOPG   PO446850  25.810  23.020  10.310
 2083DOPG   GL146851  26.060  23.200  10.040
 2083DOPG   GL246852  26.330  23.240  10.270
 2083DOPG   C1A46853  26.300  23.300   9.690
 2083DOPG   D2A46854  26.460  23.610   9.570
 2083DOPG   C3A46855  26.880  23.660   9.370
 2083DOPG   C4A46856  27.250  23.430   9.510
 2083DOPG   C1B46857  26.520  22.920  10.050
 2083DOPG   D2B46858  26.760  22.630   9.970
 2083DOPG   C3B46859  27.230  22.660  10.150
 2083DOPG   C4B46860  27.590  22.520  10.210
 2084DOPG   GL046861  18.080  22.980  19.200
 2084DOPG   PO446862  17.830  23.170  18.940
 2084DOPG   GL146863  17.960  23.420  18.650
 2084DOPG   GL246864  17.840  23.250  18.440
 2084DOPG   C1A46865  18.240  23.760  18.400
 2084DOPG   D2A46866  18.460  24.190  18.320
 2084DOPG   C3A46867  18.800  24.150  18.000
 2084DOPG   C4A46868  19.020  23.850  17.770
 2084DOPG   C1B46869  17.680  23.670  18.200
 2084DOPG   D2B46870  17.520  23.940  17.900
 2084DOPG   C3B46871  17.470  23.940  17.480
 2084DOPG   C4B46872  17.610  24.150  17.120
 2085DOPG   GL046873   9.410  22.280  10.560
 2085DOPG   PO446874   9.060  22.050  10.250
 2085DOPG   GL146875   8.690  22.050  10.150
 2085DOPG   GL246876   8.640  21.720  10.330
 2085DOPG   C1A46877   8.250  21.980   9.960
 2085DOPG   D2A46878   7.980  22.160   9.680
 2085DOPG   C3A46879   7.660  21.830   9.730
 2085DOPG   C4A46880   7.480  21.800  10.050
 2085DOPG   C1B46881   8.300  21.550  10.280
 2085DOPG   D2B46882   7.980  21.610  10.170
 2085DOPG   C3B46883   7.670  21.340  10.130
 2085DOPG   C4B46884   7.500  21.180   9.690
 2086DOPG   GL046885  15.280  33.820  11.910
 2086DOPG   PO446886  15.520  33.670  11.580
 2086DOPG   GL146887  15.810  33.290  11.490
 2086DOPG   GL246888  15.920  33.340  11.080
 2086DOPG   C1A46889  15.970  32.870  11.450
 2086DOPG   D2A46890  16.230  32.460  11.400
 2086DOPG   C3A46891  16.650  32.220  11.340
 2086DOPG   C4A46892  17.040  31.910  11.370
 2086DOPG   C1B46893  15.770  32.920  11.010
 2086DOPG   D2B46894  15.950  32.630  10.980
 2086DOPG   C3B46895  15.810  32.610  10.540
 2086DOPG   C4B46896  15.850  32.460  10.130
 2087DOPG   GL046897  23.380  19.770   9.140
 2087DOPG   PO446898  23.530  19.820   8.760
 2087DOPG   GL146899  23.760  19.670   8.380
 2087DOPG   GL246900  23.540  19.800   8.130
 2087DOPG   C1A46901  23.970  19.470   8.060
 2087DOPG   D2A46902  24.030  19.130   7.730
 2087DOPG   C3A46903  24.300  19.040   7.410
 2087DOPG   C4A46904  24.720  18.860   7.230
 2087DOPG   C1B46905  23.780  19.830   7.790
 2087DOPG   D2B46906  23.850  19.580   7.390
 2087DOPG   C3B46907  23.710  19.840   6.940
 2087DOPG   C4B46908  23.810  19.690   6.520
 2088DOPG   GL046909  15.150  27.510  15.320
 2088DOPG   PO446910  15.000  27.090  15.520
 2088DOPG   GL146911  15.170  26.800  15.330
 2088DOPG   GL246912  14.940  26.640  15.300
 2088DOPG   C1A46913  15.350  26.670  14.960
 2088DOPG   D2A46914  15.700  26.740  14.770
 2088DOPG   C3A46915  15.990  26.550  14.460
 2088DOPG   C4A46916  16.350  26.310  14.370
 2088DOPG   C1B46917  14.800  26.590  14.930
 2088DOPG   D2B46918  14.410  26.330  14.860
 2088DOPG   C3B46919  14.320  25.850  14.930
 2088DOPG   C4B46920  14.360  25.480  14.750
 2089DOPG   GL046921  16.370  27.980  13.640
 2089DOPG   PO446922  16.080  28.170  13.760
 2089DOPG   GL146923  15.890  27.750  13.910
 2089DOPG   GL246924  15.490  27.560  13.840
 2089DOPG   C1A46925  15.920  27.410  14.100
 2089DOPG   D2A46926  15.960  26.940  14.180
 2089DOPG   C3A46927  16.110  26.600  13.940
 2089DOPG   C4A46928  16.040  26.320  13.600
 2089DOPG   C1B46929  15.760  27.170  13.670
 2089DOPG   D2B46930  15.820  26.760  13.510
 2089DOPG   C3B46931  15.930  26.660  13.090
 2089DOPG   C4B46932  16.210  26.320  13.080
 2090DOPG   GL046933  23.490  27.990  12.160
 2090DOPG   PO446934  23.250  27.580  12.180
 2090DOPG   GL146935  22.900  27.450  12.290
 2090DOPG   GL246936  23.030  27.370  12.620
 2090DOPG   C1A46937  22.680  27.120  12.280
 2090DOPG   D2A46938  22.400  26.960  12.250
 2090DOPG   C3A46939  22.530  26.560  12.070
 2090DOPG   C4A46940  22.650  26.220  12.050
 2090DOPG   C1B46941  22.780  27.050  12.770
 2090DOPG   D2B46942  22.610  26.660  12.580
 2090DOPG   C3B46943  22.390  26.340  12.690
 2090DOPG   C4B46944  21.900  26.330  12.910
 2091DOPG   GL046945   9.830  23.370   3.770
 2091DOPG   PO446946  10.160  23.550   3.790
 2091DOPG   GL146947  10.240  23.760   4.220
 2091DOPG   GL246948   9.890  23.720   4.390
 2091DOPG   C1A46949  10.350  23.740   4.690
 2091DOPG   D2A46950  10.700  23.580   4.910
 2091DOPG   C3A46951  10.760  23.200   5.170
 2091DOPG   C4A46952  10.490  22.990   5.410
 2091DOPG   C1B46953   9.860  23.340   4.630
 2091DOPG   D2B46954   9.580  23.150   4.800
 2091DOPG   C3B46955   9.570  22.990   5.210
 2091DOPG   C4B46956   9.500  23.090   5.590
 2092DOPG   GL046957   7.560  20.960  20.790
 2092DOPG   PO446958   7.770  20.610  20.660
 2092DOPG   GL146959   8.230  20.500  20.390
 2092DOPG   GL246960   8.480  20.710  20.590
 2092DOPG   C1A46961   8.640  20.320  20.240
 2092DOPG   D2A46962   8.890  20.030  20.320
 2092DOPG   C3A46963   9.240  19.880  20.100
 2092DOPG   C4A46964   9.610  19.680  20.090
 2092DOPG   C1B46965   8.940  20.640  20.510
 2092DOPG   D2B46966   9.280  20.640  20.320
 2092DOPG   C3B46967   9.460  20.350  19.980
 2092DOPG   C4B46968   9.630  20.040  19.630
 2093DOPG   GL046969  24.220  21.230  16.290
 2093DOPG   PO446970  24.160  20.770  16.370
 2093DOPG   GL146971  24.130  20.820  15.980
 2093DOPG   GL246972  24.290  21.030  15.850
 2093DOPG   C1A46973  23.830  20.860  15.710
 2093DOPG   D2A46974  23.400  20.800  15.380
 2093DOPG   C3A46975  23.120  21.130  15.260
 2093DOPG   C4A46976  22.970  21.520  15.140
 2093DOPG   C1B46977  23.970  21.340  15.750
 2093DOPG   D2B46978  23.930  21.510  15.410
 2093DOPG   C3B46979  23.710  21.840  15.330
 2093DOPG   C4B46980  23.840  22.100  15.040
 2094DOPG   GL046981  20.620  19.060  18.620
 2094DOPG   PO446982  20.550  19.370  18.860
 2094DOPG   GL146983  20.320  19.460  18.540
 2094DOPG   GL246984  20.210  19.240  18.410
 2094DOPG   C1A46985  20.170  19.750  18.230
 2094DOPG   D2A46986  20.230  19.810  17.880
 2094DOPG   C3A46987  20.130  19.960  17.480
 2094DOPG   C4A46988  19.910  20.130  17.090
 2094DOPG   C1B46989  19.940  19.220  18.100
 2094DOPG   D2B46990  19.850  19.260  17.620
 2094DOPG   C3B46991  20.180  19.480  17.400
 2094DOPG   C4B46992  20.220  19.700  17.010
 2095DOPG   GL046993  16.220  13.970  11.300
 2095DOPG   PO446994  16.340  13.920  11.710
 2095DOPG   GL146995  16.230  14.310  11.720
 2095DOPG   GL246996  16.100  14.630  11.650
 2095DOPG   C1A46997  16.020  14.550  12.110
 2095DOPG   D2A46998  15.790  14.940  12.310
 2095DOPG   C3A46999  15.290  14.880  12.160
 2095DOPG   C4A47000  14.840  14.810  12.070
 2095DOPG   C1B47001  16.050  15.030  11.780
 2095DOPG   D2B47002  16.420  15.320  11.800
 2095DOPG   C3B47003  16.720  15.530  11.500
 2095DOPG   C4B47004  16.460  15.840  11.360
 2096DOPG   GL047005  15.510  18.440  18.950
 2096DOPG   PO447006  15.510  18.360  18.500
 2096DOPG   GL147007  15.770  18.560  18.220
 2096DOPG   GL247008  16.050  18.470  18.200
 2096DOPG   C1A47009  15.840  18.510  17.750
 2096DOPG   D2A47010  15.920  18.490  17.260
 2096DOPG   C3A47011  15.920  18.800  16.960
 2096DOPG   C4A47012  15.720  19.070  16.670
 2096DOPG   C1B47013  15.810  18.020  17.930
 2096DOPG   D2B47014  15.860  17.640  17.740
 2096DOPG   C3B47015  16.170  17.630  17.400
 2096DOPG   C4B47016  16.420  17.110  17.320
 2097DOPG   GL047017  21.960  20.420  18.620
 2097DOPG   PO447018  22.160  20.820  18.600
 2097DOPG   GL147019  21.780  20.920  18.390
 2097DOPG   GL247020  21.740  20.880  18.100
 2097DOPG   C1A47021  21.300  21.060  18.260
 2097DOPG   D2A47022  21.040  20.930  17.880
 2097DOPG   C3A47023  21.040  21.060  17.530
 2097DOPG   C4A47024  20.820  21.520  17.380
 2097DOPG   C1B47025  21.710  21.030  17.800
 2097DOPG   D2B47026  21.390  21.370  17.730
 2097DOPG   C3B47027  21.300  21.420  17.300
 2097DOPG   C4B47028  21.060  21.250  17.060
 2098DOPG   GL047029  15.560  24.610   1.900
 2098DOPG   PO447030  15.600  25.120   1.940
 2098DOPG   GL147031  15.730  24.960   2.360
 2098DOPG   GL247032  15.360  24.760   2.410
 2098DOPG   C1A47033  15.860  24.590   2.630
 2098DOPG   D2A47034  15.740  24.240   2.960
 2098DOPG   C3A47035  15.680  24.490   3.310
 2098DOPG   C4A47036  15.460  24.610   3.680
 2098DOPG   C1B47037  15.420  24.690   2.900
 2098DOPG   D2B47038  15.230  24.710   3.280
 2098DOPG   C3B47039  14.800  24.370   3.350
 2098DOPG   C4B47040  14.680  24.030   3.550
 2099DOPG   GL047041  10.260  30.210  13.510
 2099DOPG   PO447042   9.930  29.940  13.750
 2099DOPG   GL147043  10.150  29.600  13.730
 2099DOPG   GL247044  10.080  29.300  13.710
 2099DOPG   C1A47045  10.500  29.360  13.480
 2099DOPG   D2A47046  10.830  29.030  13.370
 2099DOPG   C3A47047  10.880  29.020  13.030
 2099DOPG   C4A47048  10.690  28.760  12.880
 2099DOPG   C1B47049   9.990  29.360  13.290
 2099DOPG   D2B47050  10.270  29.210  13.040
 2099DOPG   C3B47051  10.360  29.000  13.180
 2099DOPG   C4B47052  10.220  28.790  13.610
 2100DOPG   GL047053  22.610  16.380  13.600
 2100DOPG   PO447054  22.560  16.420  13.130
 2100DOPG   GL147055  22.380  16.740  13.420
 2100DOPG   GL247056  22.180  16.610  13.730
 2100DOPG   C1A47057  22.140  17.120  13.810
 2100DOPG   D2A47058  21.690  17.360  13.620
 2100DOPG   C3A47059  21.370  17.240  13.380
 2100DOPG   C4A47060  21.190  17.050  12.990
 2100DOPG   C1B47061  22.060  16.730  14.200
 2100DOPG   D2B47062  22.070  16.720  14.670
 2100DOPG   C3B47063  22.090  17.060  15.030
 2100DOPG   C4B47064  22.250  17.370  15.170
 2101DOPG   GL047065  18.100  25.630   7.900
 2101DOPG   PO447066  17.760  25.760   7.980
 2101DOPG   GL147067  17.490  25.550   8.250
 2101DOPG   GL247068  17.520  25.600   8.560
 2101DOPG   C1A47069  17.240  25.180   8.460
 2101DOPG   D2A47070  17.260  24.690   8.610
 2101DOPG   C3A47071  17.250  24.470   8.990
 2101DOPG   C4A47072  17.440  24.610   9.320
 2101DOPG   C1B47073  17.680  25.170   8.710
 2101DOPG   D2B47074  17.680  24.880   8.780
 2101DOPG   C3B47075  17.870  24.640   9.070
 2101DOPG   C4B47076  18.090  24.390   9.370
 2102DOPG   GL047077  15.860  12.530  14.910
 2102DOPG   PO447078  15.940  12.370  15.290
 2102DOPG   GL147079  15.800  11.940  15.630
 2102DOPG   GL247080  15.710  11.690  15.380
 2102DOPG   C1A47081  15.860  11.510  15.970
 2102DOPG   D2A47082  16.100  11.420  16.280
 2102DOPG   C3A47083  16.090  11.050  16.250
 2102DOPG   C4A47084  15.990  10.650  16.190
 2102DOPG   C1B47085  15.920  11.320  15.500
 2102DOPG   D2B47086  15.850  10.960  15.810
 2102DOPG   C3B47087  16.060  10.540  15.670
 2102DOPG   C4B47088  16.050  10.200  15.890
 2103DOPG   GL047089  18.590  34.060  14.330
 2103DOPG   PO447090  18.870  34.290  14.090
 2103DOPG   GL147091  18.720  33.920  13.790
 2103DOPG   GL247092  18.630  33.890  13.360
 2103DOPG   C1A47093  19.030  33.550  13.500
 2103DOPG   D2A47094  18.950  33.160  13.260
 2103DOPG   C3A47095  18.730  33.330  12.900
 2103DOPG   C4A47096  18.670  33.720  12.800
 2103DOPG   C1B47097  18.560  33.510  13.410
 2103DOPG   D2B47098  18.720  33.150  13.690
 2103DOPG   C3B47099  18.760  33.280  14.110
 2103DOPG   C4B47100  18.770  33.610  14.500
 2104DOPG   GL047101  21.930  15.950  16.270
 2104DOPG   PO447102  21.490  16.000  16.270
 2104DOPG   GL147103  21.280  16.290  15.950
 2104DOPG   GL247104  21.000  16.480  16.160
 2104DOPG   C1A47105  21.320  16.710  15.850
 2104DOPG   D2A47106  21.080  17.070  15.880
 2104DOPG   C3A47107  20.810  17.120  15.530
 2104DOPG   C4A47108  20.530  16.950  15.230
 2104DOPG   C1B47109  20.790  16.660  15.810
 2104DOPG   D2B47110  20.430  16.820  15.780
 2104DOPG   C3B47111  20.310  17.310  15.720
 2104DOPG   C4B47112  20.280  17.670  15.360
 2105DOPG   GL047113  16.780  25.380  18.610
 2105DOPG   PO447114  16.600  25.290  18.270
 2105DOPG   GL147115  16.630  25.290  17.840
 2105DOPG   GL247116  16.770  24.990  17.730
 2105DOPG   C1A47117  16.760  25.520  17.610
 2105DOPG   D2A47118  16.870  25.650  17.160
 2105DOPG   C3A47119  17.200  25.330  17.090
 2105DOPG   C4A47120  17.580  25.080  17.300
 2105DOPG   C1B47121  17.000  24.610  17.770
 2105DOPG   D2B47122  17.280  24.360  17.860
 2105DOPG   C3B47123  17.700  24.410  17.900
 2105DOPG   C4B47124  17.910  24.810  17.760
 2106DOPG   GL047125  24.750  19.480  14.450
 2106DOPG   PO447126  24.540  19.180  14.500
 2106DOPG   GL147127  24.160  19.410  14.530
 2106DOPG   GL247128  24.120  19.590  14.420
 2106DOPG   C1A47129  23.740  19.260  14.370
 2106DOPG   D2A47130  23.370  19.340  14.090
 2106DOPG   C3A47131  23.030  19.370  14.300
 2106DOPG   C4A47132  22.590  19.290  14.350
 2106DOPG   C1B47133  24.060  20.020  14.230
 2106DOPG   D2B47134  23.820  20.060  13.880
 2106DOPG   C3B47135  23.420  20.100  13.930
 2106DOPG   C4B47136  23.070  20.140  14.090
 2107DOPG   GL047137  15.280  13.720  11.190
 2107DOPG   PO447138  15.260  14.170  11.280
 2107DOPG   GL147139  14.750  14.340  11.410
 2107DOPG   GL247140  14.470  14.240  11.380
 2107DOPG   C1A47141  14.680  14.710  11.510
 2107DOPG   D2A47142  14.640  15.090  11.380
 2107DOPG   C3A47143  14.560  15.430  11.630
 2107DOPG   C4A47144  14.590  15.950  11.580
 2107DOPG   C1B47145  14.220  14.610  11.460
 2107DOPG   D2B47146  13.870  14.890  11.340
 2107DOPG   C3B47147  13.560  14.860  11.230
 2107DOPG   C4B47148  13.350  15.270  11.350
 2108DOPG   GL047149  13.520  22.720  18.020
 2108DOPG   PO447150  13.840  22.650  18.260
 2108DOPG   GL147151  13.940  22.630  17.820
 2108DOPG   GL247152  13.690  22.410  17.700
 2108DOPG   C1A47153  14.180  22.540  17.460
 2108DOPG   D2A47154  14.640  22.470  17.400
 2108DOPG   C3A47155  14.770  22.280  17.000
 2108DOPG   C4A47156  14.670  22.080  16.600
 2108DOPG   C1B47157  14.060  22.080  17.660
 2108DOPG   D2B47158  14.460  22.050  17.740
 2108DOPG   C3B47159  14.670  21.890  17.480
 2108DOPG   C4B47160  14.710  21.760  17.040
 2109DOPG   GL047161  18.260  20.500  19.360
 2109DOPG   PO447162  18.590  20.280  19.260
 2109DOPG   GL147163  18.750  20.330  18.830
 2109DOPG   GL247164  18.810  20.010  18.760
 2109DOPG   C1A47165  18.780  20.590  18.500
 2109DOPG   D2A47166  18.780  20.510  18.050
 2109DOPG   C3A47167  18.870  20.480  17.580
 2109DOPG   C4A47168  18.780  20.110  17.250
 2109DOPG   C1B47169  18.680  20.100  18.370
 2109DOPG   D2B47170  18.740  20.050  17.940
 2109DOPG   C3B47171  18.410  20.230  17.670
 2109DOPG   C4B47172  18.030  20.450  17.470
 2110DOPG   GL047173  16.970  23.850  24.940
 2110DOPG   PO447174  17.120  24.000  24.430
 2110DOPG   GL147175  17.290  23.730  24.160
 2110DOPG   GL247176  17.620  23.710  23.940
 2110DOPG   C1A47177  17.170  23.430  23.890
 2110DOPG   D2A47178  16.800  23.210  23.800
 2110DOPG   C3A47179  16.750  23.280  23.420
 2110DOPG   C4A47180  16.790  23.190  22.950
 2110DOPG   C1B47181  17.710  24.150  23.800
 2110DOPG   D2B47182  17.800  24.330  23.450
 2110DOPG   C3B47183  18.180  24.310  23.180
 2110DOPG   C4B47184  18.420  24.530  22.930
 2111DOPG   GL047185  18.840  26.900  18.060
 2111DOPG   PO447186  18.690  26.610  18.510
 2111DOPG   GL147187  18.810  26.370  18.120
 2111DOPG   GL247188  19.140  26.510  17.970
 2111DOPG   C1A47189  18.720  26.340  17.680
 2111DOPG   D2A47190  18.550  26.320  17.220
 2111DOPG   C3A47191  18.860  26.570  16.950
 2111DOPG   C4A47192  19.070  26.950  16.710
 2111DOPG   C1B47193  19.390  26.180  17.730
 2111DOPG   D2B47194  19.620  25.760  17.540
 2111DOPG   C3B47195  19.460  25.630  17.100
 2111DOPG   C4B47196  19.550  25.300  16.760
 2112DOPG   GL047197  20.160  17.810   1.330
 2112DOPG   PO447198  20.160  17.500   1.720
 2112DOPG   GL147199  19.950  17.490   2.070
 2112DOPG   GL247200  20.270  17.380   2.320
 2112DOPG   C1A47201  19.560  17.710   2.250
 2112DOPG   D2A47202  19.590  18.040   2.550
 2112DOPG   C3A47203  19.590  18.450   2.810
 2112DOPG   C4A47204  19.920  18.600   3.010
 2112DOPG   C1B47205  19.840  17.310   2.550
 2112DOPG   D2B47206  19.590  17.570   2.760
 2112DOPG   C3B47207  19.390  17.710   3.170
 2112DOPG   C4B47208  19.610  17.970   3.490
 2113DOPG   GL047209  13.710  15.510   1.530
 2113DOPG   PO447210  13.910  15.220   1.760
 2113DOPG   GL147211  13.890  15.270   2.240
 2113DOPG   GL247212  13.580  15.170   2.470
 2113DOPG   C1A47213  14.360  15.170   2.440
 2113DOPG   D2A47214  14.850  15.210   2.400
 2113DOPG   C3A47215  15.150  15.440   2.660
 2113DOPG   C4A47216  15.600  15.430   2.750
 2113DOPG   C1B47217  13.640  15.390   2.850
 2113DOPG   D2B47218  13.810  15.700   3.140
 2113DOPG   C3B47219  13.780  15.610   3.590
 2113DOPG   C4B47220  13.480  15.950   3.800
 2114DOPG   GL047221  14.000  26.260  15.940
 2114DOPG   PO447222  13.850  26.380  15.500
 2114DOPG   GL147223  14.240  26.140  15.310
 2114DOPG   GL247224  14.590  26.310  15.450
 2114DOPG   C1A47225  14.490  25.860  15.530
 2114DOPG   D2A47226  14.730  25.550  15.280
 2114DOPG   C3A47227  15.120  25.220  15.180
 2114DOPG   C4A47228  15.570  25.110  15.140
 2114DOPG   C1B47229  14.850  26.070  15.050
 2114DOPG   D2B47230  15.060  26.140  14.700
 2114DOPG   C3B47231  15.130  26.570  14.420
 2114DOPG   C4B47232  14.980  26.680  13.990
 2115DOPG   GL047233  11.170  19.220  16.540
 2115DOPG   PO447234  10.930  19.170  16.300
 2115DOPG   GL147235  11.090  19.160  15.910
 2115DOPG   GL247236  10.990  19.420  15.720
 2115DOPG   C1A47237  11.460  19.070  15.620
 2115DOPG   D2A47238  11.940  19.090  15.450
 2115DOPG   C3A47239  12.060  19.440  15.120
 2115DOPG   C4A47240  11.690  19.800  15.020
 2115DOPG   C1B47241  10.840  19.460  15.320
 2115DOPG   D2B47242  10.760  19.440  14.890
 2115DOPG   C3B47243  11.040  19.500  14.470
 2115DOPG   C4B47244  10.840  19.470  14.000
 2116DOPG   GL047245  12.060  26.110  21.730
 2116DOPG   PO447246  11.860  26.130  21.320
 2116DOPG   GL147247  11.770  25.980  20.900
 2116DOPG   GL247248  11.600  25.730  21.040
 2116DOPG   C1A47249  12.070  26.010  20.580
 2116DOPG   D2A47250  12.410  26.200  20.360
 2116DOPG   C3A47251  12.710  26.030  20.180
 2116DOPG   C4A47252  12.980  26.050  19.830
 2116DOPG   C1B47253  11.740  25.520  20.640
 2116DOPG   D2B47254  11.960  25.630  20.350
 2116DOPG   C3B47255  12.430  25.610  20.280
 2116DOPG   C4B47256  12.610  25.540  20.060
 2117DOPG   GL047257   5.660  20.300  12.640
 2117DOPG   PO447258   5.450  20.670  12.760
 2117DOPG   GL147259   5.620  20.910  12.970
 2117DOPG   GL247260   5.690  21.270  12.910
 2117DOPG   C1A47261   5.970  20.960  13.260
 2117DOPG   D2A47262   6.480  20.840  13.100
 2117DOPG   C3A47263   6.670  20.550  13.290
 2117DOPG   C4A47264   7.010  20.230  13.410
 2117DOPG   C1B47265   5.900  21.480  12.660
 2117DOPG   D2B47266   6.260  21.370  12.350
 2117DOPG   C3B47267   6.560  21.360  12.080
 2117DOPG   C4B47268   6.660  20.910  11.890
 2118DOPG   GL047269  18.800  28.790  11.220
 2118DOPG   PO447270  19.220  28.750  10.930
 2118DOPG   GL147271  19.330  28.520  11.290
 2118DOPG   GL247272  19.130  28.440  11.550
 2118DOPG   C1A47273  19.760  28.500  11.410
 2118DOPG   D2A47274  19.950  28.670  11.770
 2118DOPG   C3A47275  20.290  28.450  12.010
 2118DOPG   C4A47276  20.600  28.490  12.320
 2118DOPG   C1B47277  19.130  27.980  11.390
 2118DOPG   D2B47278  18.920  27.580  11.210
 2118DOPG   C3B47279  18.780  27.280  11.480
 2118DOPG   C4B47280  18.540  27.220  11.950
 2119DOPG   GL047281  14.050  19.840   7.490
 2119DOPG   PO447282  14.420  19.720   7.690
 2119DOPG   GL147283  14.590  20.060   8.020
 2119DOPG   GL247284  14.480  20.240   8.250
 2119DOPG   C1A47285  14.850  20.000   8.420
 2119DOPG   D2A47286  15.210  19.840   8.530
 2119DOPG   C3A47287  15.330  19.820   8.970
 2119DOPG   C4A47288  15.430  19.690   9.390
 2119DOPG   C1B47289  14.570  20.390   8.700
 2119DOPG   D2B47290  14.860  20.650   8.990
 2119DOPG   C3B47291  14.840  20.820   9.410
 2119DOPG   C4B47292  14.960  20.670   9.820
 2120DOPG   GL047293   8.680  21.450  11.620
 2120DOPG   PO447294   8.980  21.190  11.360
 2120DOPG   GL147295   8.630  20.950  11.030
 2120DOPG   GL247296   8.700  20.610  11.080
 2120DOPG   C1A47297   8.290  20.680  10.730
 2120DOPG   D2A47298   7.960  20.270  10.750
 2120DOPG   C3A47299   7.830  20.130  10.360
 2120DOPG   C4A47300   7.620  19.990   9.980
 2120DOPG   C1B47301   8.410  20.230  10.930
 2120DOPG   D2B47302   8.600  19.790  10.730
 2120DOPG   C3B47303   8.780  19.450  10.910
 2120DOPG   C4B47304   8.740  19.030  10.970
 2121DOPG   GL047305  23.100  19.430   9.880
 2121DOPG   PO447306  23.320  19.360  10.250
 2121DOPG   GL147307  23.220  19.770  10.320
 2121DOPG   GL247308  22.820  19.760  10.170
 2121DOPG   C1A47309  23.050  19.950  10.620
 2121DOPG   D2A47310  22.830  19.890  11.030
 2121DOPG   C3A47311  22.980  20.120  11.370
 2121DOPG   C4A47312  23.000  20.430  11.720
 2121DOPG   C1B47313  22.360  19.970  10.180
 2121DOPG   D2B47314  21.920  19.950  10.090
 2121DOPG   C3B47315  21.750  19.610   9.950
 2121DOPG   C4B47316  21.650  19.200   9.800
 2122DOPG   GL047317  10.860  22.770  16.360
 2122DOPG   PO447318  10.730  23.090  16.590
 2122DOPG   GL147319  10.270  23.060  16.600
 2122DOPG   GL247320  10.040  23.070  16.420
 2122DOPG   C1A47321  10.250  23.360  16.940
 2122DOPG   D2A47322  10.180  23.320  17.350
 2122DOPG   C3A47323  10.360  23.640  17.690
 2122DOPG   C4A47324  10.240  23.820  18.050
 2122DOPG   C1B47325   9.800  23.270  16.650
 2122DOPG   D2B47326   9.420  23.320  16.800
 2122DOPG   C3B47327   9.280  23.760  16.680
 2122DOPG   C4B47328   9.560  24.090  16.760
 2123DOPG   GL047329  12.670  24.670  16.900
 2123DOPG   PO447330  12.330  24.600  17.100
 2123DOPG   GL147331  12.240  24.620  17.530
 2123DOPG   GL247332  11.860  24.600  17.620
 2123DOPG   C1A47333  12.260  24.820  17.960
 2123DOPG   D2A47334  12.370  24.680  18.460
 2123DOPG   C3A47335  12.570  24.930  18.860
 2123DOPG   C4A47336  12.410  25.030  19.230
 2123DOPG   C1B47337  11.820  24.760  18.090
 2123DOPG   D2B47338  11.770  24.880  18.490
 2123DOPG   C3B47339  11.430  25.140  18.740
 2123DOPG   C4B47340  11.000  25.340  18.860
 2124DOPG   GL047341  25.180  25.540  15.830
 2124DOPG   PO447342  24.710  25.550  15.640
 2124DOPG   GL147343  24.310  25.660  15.470
 2124DOPG   GL247344  24.260  25.750  15.200
 2124DOPG   C1A47345  24.010  25.230  15.600
 2124DOPG   D2A47346  24.020  24.880  15.400
 2124DOPG   C3A47347  23.640  24.630  15.220
 2124DOPG   C4A47348  23.560  24.390  14.850
 2124DOPG   C1B47349  23.910  25.460  15.170
 2124DOPG   D2B47350  23.590  25.160  15.150
 2124DOPG   C3B47351  23.340  25.240  14.800
 2124DOPG   C4B47352  23.000  25.270  14.810
 2125DOPG   GL047353  22.120  25.260   8.280
 2125DOPG   PO447354  22.470  25.070   8.400
 2125DOPG   GL147355  22.240  24.720   8.570
 2125DOPG   GL247356  22.420  24.430   8.600
 2125DOPG   C1A47357  21.810  24.440   8.500
 2125DOPG   D2A47358  21.430  24.380   8.220
 2125DOPG   C3A47359  21.150  24.130   8.320
 2125DOPG   C4A47360  21.200  23.740   8.190
 2125DOPG   C1B47361  22.160  24.250   8.870
 2125DOPG   D2B47362  22.080  24.210   9.340
 2125DOPG   C3B47363  21.930  24.060   9.690
 2125DOPG   C4B47364  21.560  23.830   9.950
 2126DOPG   GL047365   4.670  21.460  11.150
 2126DOPG   PO447366   5.080  21.560  11.170
 2126DOPG   GL147367   5.350  21.920  11.180
 2126DOPG   GL247368   5.620  21.840  11.440
 2126DOPG   C1A47369   5.470  22.310  11.370
 2126DOPG   D2A47370   5.350  22.530  11.730
 2126DOPG   C3A47371   5.600  22.860  11.900
 2126DOPG   C4A47372   6.000  22.860  12.170
 2126DOPG   C1B47373   5.970  22.130  11.600
 2126DOPG   D2B47374   6.350  21.990  11.760
 2126DOPG   C3B47375   6.710  22.150  11.720
 2126DOPG   C4B47376   7.040  21.980  11.530
 2127DOPG   GL047377  20.850   9.610  12.090
 2127DOPG   PO447378  20.600   9.290  12.280
 2127DOPG   GL147379  20.350   9.630  12.280
 2127DOPG   GL247380  20.140   9.630  12.480
 2127DOPG   C1A47381  20.510  10.050  12.450
 2127DOPG   D2A47382  20.410  10.460  12.560
 2127DOPG   C3A47383  20.220  10.710  12.160
 2127DOPG   C4A47384  20.120  11.050  12.240
 2127DOPG   C1B47385  20.020  10.000  12.740
 2127DOPG   D2B47386  19.800  10.250  13.030
 2127DOPG   C3B47387  20.050  10.690  13.100
 2127DOPG   C4B47388  20.150  11.060  13.250
 2128DOPG   GL047389  11.830  24.250  12.960
 2128DOPG   PO447390  11.870  24.230  13.390
 2128DOPG   GL147391  12.230  24.070  13.300
 2128DOPG   GL247392  12.260  23.860  13.030
 2128DOPG   C1A47393  12.650  24.120  13.070
 2128DOPG   D2A47394  12.800  24.050  12.630
 2128DOPG   C3A47395  13.130  24.010  12.540
 2128DOPG   C4A47396  13.550  24.240  12.510
 2128DOPG   C1B47397  12.610  23.640  12.870
 2128DOPG   D2B47398  12.810  23.320  12.640
 2128DOPG   C3B47399  12.700  22.890  12.790
 2128DOPG   C4B47400  12.850  22.630  12.500
 2129DOPG   GL047401  15.850  23.910   6.540
 2129DOPG   PO447402  16.250  23.830   6.610
 2129DOPG   GL147403  16.470  23.520   6.860
 2129DOPG   GL247404  16.590  23.640   7.200
 2129DOPG   C1A47405  16.410  23.180   7.000
 2129DOPG   D2A47406  16.390  22.910   7.390
 2129DOPG   C3A47407  16.590  22.500   7.220
 2129DOPG   C4A47408  16.510  22.240   6.940
 2129DOPG   C1B47409  16.420  23.860   7.560
 2129DOPG   D2B47410  16.330  23.820   7.920
 2129DOPG   C3B47411  16.410  24.190   8.110
 2129DOPG   C4B47412  16.790  24.300   8.270
 2130DOPG   GL047413  14.540  25.760  16.660
 2130DOPG   PO447414  14.470  25.400  16.790
 2130DOPG   GL147415  14.780  25.260  16.460
 2130DOPG   GL247416  15.110  25.030  16.610
 2130DOPG   C1A47417  15.040  25.450  16.130
 2130DOPG   D2A47418  15.260  25.400  15.820
 2130DOPG   C3A47419  15.390  24.990  15.600
 2130DOPG   C4A47420  15.290  24.600  15.580
 2130DOPG   C1B47421  14.980  24.970  16.120
 2130DOPG   D2B47422  14.900  24.970  15.660
 2130DOPG   C3B47423  14.860  24.730  15.330
 2130DOPG   C4B47424  14.830  24.490  14.950
 2131DOPG   GL047425  13.410  20.720   7.690
 2131DOPG   PO447426  13.670  20.380   7.750
 2131DOPG   GL147427  13.780  20.630   8.120
 2131DOPG   GL247428  13.870  20.300   8.360
 2131DOPG   C1A47429  14.080  20.940   8.210
 2131DOPG   D2A47430  14.080  21.330   8.350
 2131DOPG   C3A47431  14.080  21.380   8.800
 2131DOPG   C4A47432  13.890  21.250   9.270
 2131DOPG   C1B47433  13.970  20.300   8.810
 2131DOPG   D2B47434  14.230  19.990   9.070
 2131DOPG   C3B47435  14.390  19.690   9.110
 2131DOPG   C4B47436  14.410  19.320   9.370
 2132DOPG   GL047437  14.220  20.550   7.830
 2132DOPG   PO447438  14.490  20.360   7.630
 2132DOPG   GL147439  14.920  20.270   7.630
 2132DOPG   GL247440  15.050  20.540   7.510
 2132DOPG   C1A47441  15.190  20.150   8.010
 2132DOPG   D2A47442  15.320  20.370   8.410
 2132DOPG   C3A47443  15.090  20.290   8.790
 2132DOPG   C4A47444  14.760  19.980   8.910
 2132DOPG   C1B47445  15.270  20.700   7.820
 2132DOPG   D2B47446  15.500  20.850   8.250
 2132DOPG   C3B47447  15.510  21.250   8.540
 2132DOPG   C4B47448  15.640  21.350   8.920
 2133DOPG   GL047449  29.580  26.800  17.820
 2133DOPG   PO447450  29.630  26.410  17.620
 2133DOPG   GL147451  29.220  26.110  17.600
 2133DOPG   GL247452  29.080  25.770  17.420
 2133DOPG   C1A47453  28.690  26.080  17.480
 2133DOPG   D2A47454  28.390  25.820  17.270
 2133DOPG   C3A47455  28.030  25.900  17.300
 2133DOPG   C4A47456  27.800  25.590  17.410
 2133DOPG   C1B47457  28.870  25.790  17.000
 2133DOPG   D2B47458  28.530  25.990  16.780
 2133DOPG   C3B47459  28.210  25.780  16.780
 2133DOPG   C4B47460  27.930  25.540  16.650
 2134DOPG   GL047461   8.420  21.340  20.870
 2134DOPG   PO447462   8.740  21.110  20.950
 2134DOPG   GL147463   8.980  21.140  20.490
 2134DOPG   GL247464   9.360  21.020  20.640
 2134DOPG   C1A47465   8.950  21.130  20.090
 2134DOPG   D2A47466   8.980  21.070  19.640
 2134DOPG   C3A47467   8.820  20.830  19.350
 2134DOPG   C4A47468   8.550  20.600  19.070
 2134DOPG   C1B47469   9.740  21.230  20.630
 2134DOPG   D2B47470  10.140  21.010  20.560
 2134DOPG   C3B47471  10.350  21.260  20.200
 2134DOPG   C4B47472  10.380  21.310  19.850
 2135DOPG   GL047473  24.990  20.870  22.540
 2135DOPG   PO447474  24.970  20.440  22.470
 2135DOPG   GL147475  24.680  20.590  22.220
 2135DOPG   GL247476  24.590  20.880  22.210
 2135DOPG   C1A47477  24.540  20.580  21.700
 2135DOPG   D2A47478  24.540  20.730  21.330
 2135DOPG   C3A47479  24.330  21.090  21.180
 2135DOPG   C4A47480  24.270  21.440  21.420
 2135DOPG   C1B47481  24.670  21.320  22.260
 2135DOPG   D2B47482  24.690  21.530  21.800
 2135DOPG   C3B47483  24.510  21.970  21.710
 2135DOPG   C4B47484  24.580  22.310  21.430
 2136DOPG   GL047485  16.650  17.480   8.180
 2136DOPG   PO447486  16.520  17.060   8.400
 2136DOPG   GL147487  16.230  17.260   8.620
 2136DOPG   GL247488  16.360  17.390   8.890
 2136DOPG   C1A47489  15.900  17.520   8.890
 2136DOPG   D2A47490  15.850  17.550   9.270
 2136DOPG   C3A47491  16.060  17.940   9.550
 2136DOPG   C4A47492  16.310  18.000   9.910
 2136DOPG   C1B47493  16.350  17.640   9.200
 2136DOPG   D2B47494  16.350  17.580   9.580
 2136DOPG   C3B47495  15.940  17.500   9.790
 2136DOPG   C4B47496  15.980  17.720  10.170
 2137DOPG   GL047497  19.370  23.720  20.060
 2137DOPG   PO447498  19.170  24.100  20.090
 2137DOPG   GL147499  19.180  24.330  20.490
 2137DOPG   GL247500  19.390  24.180  20.790
 2137DOPG   C1A47501  18.970  24.400  20.890
 2137DOPG   D2A47502  18.900  24.570  21.210
 2137DOPG   C3A47503  19.130  24.900  21.170
 2137DOPG   C4A47504  19.360  25.210  21.390
 2137DOPG   C1B47505  19.450  24.550  20.970
 2137DOPG   D2B47506  19.550  24.730  21.400
 2137DOPG   C3B47507  19.520  24.540  21.760
 2137DOPG   C4B47508  19.210  24.290  22.070
 2138DOPG   GL047509  12.120  21.720  17.200
 2138DOPG   PO447510  12.340  21.650  16.910
 2138DOPG   GL147511  12.570  21.400  16.780
 2138DOPG   GL247512  12.420  21.130  16.720
 2138DOPG   C1A47513  12.830  21.440  16.320
 2138DOPG   D2A47514  12.990  21.400  15.990
 2138DOPG   C3A47515  13.180  21.550  15.680
 2138DOPG   C4A47516  13.310  21.820  15.390
 2138DOPG   C1B47517  12.520  21.000  16.430
 2138DOPG   D2B47518  12.960  20.860  16.230
 2138DOPG   C3B47519  13.120  20.820  15.810
 2138DOPG   C4B47520  13.210  20.550  15.370
 2139DOPG   GL047521  21.130  25.770  19.440
 2139DOPG   PO447522  21.460  25.980  19.720
 2139DOPG   GL147523  21.590  25.900  20.130
 2139DOPG   GL247524  21.820  26.130  20.260
 2139DOPG   C1A47525  21.390  25.760  20.550
 2139DOPG   D2A47526  21.120  25.640  20.910
 2139DOPG   C3A47527  21.110  25.840  21.340
 2139DOPG   C4A47528  20.930  26.020  21.680
 2139DOPG   C1B47529  21.710  26.530  20.470
 2139DOPG   D2B47530  21.660  26.690  20.780
 2139DOPG   C3B47531  21.710  26.630  21.160
 2139DOPG   C4B47532  21.700  26.900  21.560
 2140DOPG   GL047533  23.320  23.140  18.230
 2140DOPG   PO447534  23.430  22.820  17.950
 2140DOPG   GL147535  23.020  22.860  17.880
 2140DOPG   GL247536  22.830  23.010  18.150
 2140DOPG   C1A47537  22.680  22.570  17.610
 2140DOPG   D2A47538  22.660  22.610  17.060
 2140DOPG   C3A47539  22.360  22.850  16.930
 2140DOPG   C4A47540  22.160  23.260  16.800
 2140DOPG   C1B47541  22.500  23.000  17.950
 2140DOPG   D2B47542  22.390  23.410  17.970
 2140DOPG   C3B47543  21.950  23.660  17.990
 2140DOPG   C4B47544  21.710  24.020  17.950
 2141DOPG   GL047545  22.200  29.010  11.290
 2141DOPG   PO447546  22.520  28.910  10.980
 2141DOPG   GL147547  22.930  29.210  10.970
 2141DOPG   GL247548  22.830  29.230  10.630
 2141DOPG   C1A47549  23.320  29.390  10.950
 2141DOPG   D2A47550  23.760  29.530  10.830
 2141DOPG   C3A47551  23.960  29.960  10.900
 2141DOPG   C4A47552  23.870  30.350  10.740
 2141DOPG   C1B47553  23.050  29.580  10.530
 2141DOPG   D2B47554  23.020  29.960  10.520
 2141DOPG   C3B47555  23.330  30.370  10.550
 2141DOPG   C4B47556  23.280  30.790  10.530
 2142DOPG   GL047557  13.590  27.470  11.090
 2142DOPG   PO447558  13.700  27.610  10.760
 2142DOPG   GL147559  13.470  28.020  10.780
 2142DOPG   GL247560  13.610  28.370  10.780
 2142DOPG   C1A47561  13.090  28.280  10.860
 2142DOPG   D2A47562  12.830  28.690  10.710
 2142DOPG   C3A47563  12.790  29.070  10.710
 2142DOPG   C4A47564  12.580  29.460  10.740
 2142DOPG   C1B47565  13.290  28.760  10.830
 2142DOPG   D2B47566  13.390  29.160  10.760
 2142DOPG   C3B47567  13.060  29.470  10.710
 2142DOPG   C4B47568  12.940  29.880  10.860
 2143DOPG   GL047569  19.620  16.450   8.140
 2143DOPG   PO447570  19.420  16.760   8.320
 2143DOPG   GL147571  19.550  16.830   8.790
 2143DOPG   GL247572  19.830  17.090   8.650
 2143DOPG   C1A47573  19.270  17.010   9.080
 2143DOPG   D2A47574  19.150  17.310   9.280
 2143DOPG   C3A47575  19.220  17.580   9.600
 2143DOPG   C4A47576  19.300  17.640  10.050
 2143DOPG   C1B47577  19.740  17.300   9.030
 2143DOPG   D2B47578  19.730  17.370   9.500
 2143DOPG   C3B47579  19.520  17.150   9.830
 2143DOPG   C4B47580  19.140  17.120  10.180
 2144DOPG   GL047581  22.800  17.240  15.160
 2144DOPG   PO447582  22.800  16.900  15.440
 2144DOPG   GL147583  22.580  17.300  15.600
 2144DOPG   GL247584  22.560  17.460  15.840
 2144DOPG   C1A47585  22.350  17.740  15.510
 2144DOPG   D2A47586  22.070  17.950  15.630
 2144DOPG   C3A47587  21.770  18.110  15.360
 2144DOPG   C4A47588  21.620  18.550  15.280
 2144DOPG   C1B47589  22.100  17.320  15.780
 2144DOPG   D2B47590  21.840  17.080  15.440
 2144DOPG   C3B47591  21.690  17.360  15.040
 2144DOPG   C4B47592  21.710  17.820  14.890
 2145DOPG   GL047593  20.300  20.150   6.870
 2145DOPG   PO447594  20.670  20.530   6.870
 2145DOPG   GL147595  20.450  20.630   7.280
 2145DOPG   GL247596  20.670  20.490   7.600
 2145DOPG   C1A47597  20.200  20.680   7.600
 2145DOPG   D2A47598  19.940  20.560   7.780
 2145DOPG   C3A47599  19.610  20.830   7.880
 2145DOPG   C4A47600  19.310  21.020   8.190
 2145DOPG   C1B47601  20.590  20.870   7.920
 2145DOPG   D2B47602  20.990  21.050   8.040
 2145DOPG   C3B47603  21.240  21.320   7.940
 2145DOPG   C4B47604  21.620  21.440   8.090
 2146DOPG   GL047605  17.850  16.480  18.200
 2146DOPG   PO447606  18.060  16.900  18.370
 2146DOPG   GL147607  18.010  17.250  18.060
 2146DOPG   GL247608  18.260  17.500  18.020
 2146DOPG   C1A47609  17.760  17.580  17.810
 2146DOPG   D2A47610  17.600  17.780  17.320
 2146DOPG   C3A47611  17.520  18.270  17.140
 2146DOPG   C4A47612  17.240  18.640  17.000
 2146DOPG   C1B47613  18.250  17.470  17.500
 2146DOPG   D2B47614  18.140  17.710  17.010
 2146DOPG   C3B47615  17.950  18.200  16.970
 2146DOPG   C4B47616  17.780  18.520  16.760
 2147DOPG   GL047617  19.440  23.410   6.670
 2147DOPG   PO447618  19.160  23.840   6.560
 2147DOPG   GL147619  18.860  23.600   6.780
 2147DOPG   GL247620  18.690  23.310   6.740
 2147DOPG   C1A47621  18.740  23.670   7.240
 2147DOPG   D2A47622  18.640  23.430   7.560
 2147DOPG   C3A47623  18.330  23.630   7.860
 2147DOPG   C4A47624  18.200  23.450   8.190
 2147DOPG   C1B47625  18.420  23.230   7.080
 2147DOPG   D2B47626  18.180  23.210   7.510
 2147DOPG   C3B47627  18.150  22.990   7.910
 2147DOPG   C4B47628  18.300  22.910   8.350
 2148DOPG   GL047629  14.790  11.750  13.050
 2148DOPG   PO447630  14.580  11.500  13.320
 2148DOPG   GL147631  14.690  11.040  13.450
 2148DOPG   GL247632  14.770  10.950  13.820
 2148DOPG   C1A47633  14.650  10.700  13.210
 2148DOPG   D2A47634  14.700  10.280  13.270
 2148DOPG   C3A47635  15.050  10.100  13.570
 2148DOPG   C4A47636  15.530  10.140  13.600
 2148DOPG   C1B47637  14.700  10.540  13.830
 2148DOPG   D2B47638  14.510  10.200  13.750
 2148DOPG   C3B47639  14.200  10.070  14.120
 2148DOPG   C4B47640  13.990  10.330  14.400
 2149DOPG   GL047641  23.620  28.900  13.740
 2149DOPG   PO447642  23.580  29.080  13.280
 2149DOPG   GL147643  23.520  29.480  13.290
 2149DOPG   GL247644  23.580  29.600  13.030
 2149DOPG   C1A47645  23.580  29.880  13.440
 2149DOPG   D2A47646  23.680  30.330  13.380
 2149DOPG   C3A47647  23.840  30.690  13.630
 2149DOPG   C4A47648  23.750  31.070  13.420
 2149DOPG   C1B47649  23.490  29.760  12.680
 2149DOPG   D2B47650  23.560  29.920  12.360
 2149DOPG   C3B47651  23.960  30.200  12.430
 2149DOPG   C4B47652  24.100  30.620  12.640
 2150DOPG   GL047653  11.500  14.470  15.260
 2150DOPG   PO447654  11.760  14.270  14.990
 2150DOPG   GL147655  11.920  13.920  14.820
 2150DOPG   GL247656  12.300  13.710  14.810
 2150DOPG   C1A47657  11.680  13.560  14.720
 2150DOPG   D2A47658  11.250  13.300  14.630
 2150DOPG   C3A47659  10.940  13.620  14.720
 2150DOPG   C4A47660  10.660  13.880  14.820
 2150DOPG   C1B47661  12.150  13.690  14.430
 2150DOPG   D2B47662  11.930  13.970  14.120
 2150DOPG   C3B47663  11.450  14.070  14.230
 2150DOPG   C4B47664  11.150  14.060  14.610
 2151DOPG   GL047665  12.770  26.690  10.470
 2151DOPG   PO447666  12.670  27.130  10.470
 2151DOPG   GL147667  12.330  27.400  10.300
 2151DOPG   GL247668  12.010  27.500  10.530
 2151DOPG   C1A47669  12.280  27.690   9.880
 2151DOPG   D2A47670  12.510  28.020   9.570
 2151DOPG   C3A47671  12.390  28.430   9.550
 2151DOPG   C4A47672  12.130  28.570   9.770
 2151DOPG   C1B47673  11.830  27.540  10.150
 2151DOPG   D2B47674  11.520  27.800  10.010
 2151DOPG   C3B47675  11.140  28.040  10.080
 2151DOPG   C4B47676  10.760  28.190  10.270
 2152DOPG   GL047677  12.750  24.220  15.910
 2152DOPG   PO447678  12.990  24.620  16.070
 2152DOPG   GL147679  13.240  24.410  15.760
 2152DOPG   GL247680  13.390  24.170  16.010
 2152DOPG   C1A47681  13.600  24.250  15.580
 2152DOPG   D2A47682  13.780  23.790  15.440
 2152DOPG   C3A47683  13.740  23.590  15.110
 2152DOPG   C4A47684  13.890  23.600  14.620
 2152DOPG   C1B47685  13.830  23.940  15.920
 2152DOPG   D2B47686  14.180  23.710  15.950
 2152DOPG   C3B47687  14.350  23.290  15.810
 2152DOPG   C4B47688  14.420  23.110  15.320
 2153DOPG   GL047689  17.550  29.380  12.430
 2153DOPG   PO447690  17.620  28.950  12.300
 2153DOPG   GL147691  17.630  28.560  12.540
 2153DOPG   GL247692  17.540  28.450  12.950
 2153DOPG   C1A47693  17.910  28.210  12.560
 2153DOPG   D2A47694  17.920  27.840  12.500
 2153DOPG   C3A47695  18.280  27.770  12.790
 2153DOPG   C4A47696  18.230  27.610  13.230
 2153DOPG   C1B47697  17.470  28.130  12.750
 2153DOPG   D2B47698  17.520  28.080  12.330
 2153DOPG   C3B47699  17.120  27.880  12.230
 2153DOPG   C4B47700  16.800  27.870  12.350
 2154DOPG   GL047701  19.870  22.440   6.300
 2154DOPG   PO447702  20.000  22.550   6.630
 2154DOPG   GL147703  19.970  22.310   7.000
 2154DOPG   GL247704  19.850  22.040   7.110
 2154DOPG   C1A47705  20.310  22.270   7.450
 2154DOPG   D2A47706  20.410  22.240   7.830
 2154DOPG   C3A47707  20.470  22.670   8.030
 2154DOPG   C4A47708  20.150  22.950   8.090
 2154DOPG   C1B47709  19.910  22.030   7.570
 2154DOPG   D2B47710  19.970  22.130   8.070
 2154DOPG   C3B47711  20.250  22.350   8.340
 2154DOPG   C4B47712  19.980  22.590   8.690
 2155DOPG   GL047713  25.230  22.300  12.690
 2155DOPG   PO447714  25.290  22.040  12.490
 2155DOPG   GL147715  25.000  22.140  12.240
 2155DOPG   GL247716  24.920  22.490  12.280
 2155DOPG   C1A47717  24.650  22.150  11.960
 2155DOPG   D2A47718  24.210  22.360  12.120
 2155DOPG   C3A47719  24.200  22.740  12.510
 2155DOPG   C4A47720  23.980  22.880  12.720
 2155DOPG   C1B47721  24.650  22.460  12.460
 2155DOPG   D2B47722  24.270  22.240  12.600
 2155DOPG   C3B47723  23.840  22.430  12.530
 2155DOPG   C4B47724  23.460  22.350  12.380
 2156DOPG   GL047725  18.580  25.850   7.790
 2156DOPG   PO447726  18.770  26.150   8.100
 2156DOPG   GL147727  18.980  26.050   8.440
 2156DOPG   GL247728  19.110  25.720   8.180
 2156DOPG   C1A47729  18.930  25.780   8.830
 2156DOPG   D2A47730  18.670  25.480   9.040
 2156DOPG   C3A47731  18.660  25.610   9.470
 2156DOPG   C4A47732  18.530  25.590   9.850
 2156DOPG   C1B47733  19.170  25.500   8.580
 2156DOPG   D2B47734  19.400  25.290   8.970
 2156DOPG   C3B47735  19.300  24.920   9.050
 2156DOPG   C4B47736  19.260  24.550   9.160
 2157DOPG   GL047737  20.630  15.400  16.380
 2157DOPG   PO447738  20.700  15.730  16.640
 2157DOPG   GL147739  20.440  16.120  16.600
 2157DOPG   GL247740  20.600  16.280  16.440
 2157DOPG   C1A47741  20.150  16.530  16.510
 2157DOPG   D2A47742  19.700  16.710  16.450
 2157DOPG   C3A47743  19.730  17.040  16.220
 2157DOPG   C4A47744  19.820  17.380  15.950
 2157DOPG   C1B47745  20.250  16.370  16.030
 2157DOPG   D2B47746  19.790  16.540  15.810
 2157DOPG   C3B47747  19.930  16.810  15.440
 2157DOPG   C4B47748  19.990  17.010  15.110
 2158DOPG   GL047749  17.000  22.360   5.750
 2158DOPG   PO447750  16.740  22.480   6.140
 2158DOPG   GL147751  16.730  22.590   6.540
 2158DOPG   GL247752  16.950  22.390   6.620
 2158DOPG   C1A47753  16.320  22.670   6.780
 2158DOPG   D2A47754  15.930  22.800   7.030
 2158DOPG   C3A47755  15.990  23.200   7.260
 2158DOPG   C4A47756  16.180  23.390   7.610
 2158DOPG   C1B47757  17.270  22.320   6.930
 2158DOPG   D2B47758  17.460  22.160   7.180
 2158DOPG   C3B47759  17.280  21.820   7.340
 2158DOPG   C4B47760  16.890  21.610   7.390
 2159DOPG   GL047761  10.490  20.270   9.020
 2159DOPG   PO447762  10.200  20.000   8.870
 2159DOPG   GL147763   9.910  19.970   8.630
 2159DOPG   GL247764   9.760  20.330   8.500
 2159DOPG   C1A47765   9.490  19.770   8.440
 2159DOPG   D2A47766   9.180  19.850   8.090
 2159DOPG   C3A47767   9.020  19.720   7.730
 2159DOPG   C4A47768   9.110  19.890   7.350
 2159DOPG   C1B47769   9.370  20.300   8.380
 2159DOPG   D2B47770   9.030  20.410   8.150
 2159DOPG   C3B47771   8.890  20.730   7.910
 2159DOPG   C4B47772   8.790  20.990   7.630
 2160DOPG   GL047773  11.050  21.230  14.830
 2160DOPG   PO447774  10.940  21.180  15.250
 2160DOPG   GL147775  11.380  21.060  15.200
 2160DOPG   GL247776  11.550  21.260  14.900
 2160DOPG   C1A47777  11.750  20.810  15.070
 2160DOPG   D2A47778  11.910  20.630  14.670
 2160DOPG   C3A47779  11.610  20.790  14.440
 2160DOPG   C4A47780  11.440  20.780  14.060
 2160DOPG   C1B47781  11.870  21.130  14.620
 2160DOPG   D2B47782  11.920  21.140  14.140
 2160DOPG   C3B47783  12.310  21.330  13.970
 2160DOPG   C4B47784  12.790  21.430  14.000
 2161DOPG   GL047785  16.490  27.890  15.390
 2161DOPG   PO447786  16.690  28.290  15.560
 2161DOPG   GL147787  16.970  27.880  15.440
 2161DOPG   GL247788  17.310  27.870  15.340
 2161DOPG   C1A47789  16.780  27.480  15.290
 2161DOPG   D2A47790  16.820  27.180  15.630
 2161DOPG   C3A47791  17.000  26.840  15.840
 2161DOPG   C4A47792  17.020  26.400  15.800
 2161DOPG   C1B47793  17.230  27.470  15.500
 2161DOPG   D2B47794  17.370  27.030  15.380
 2161DOPG   C3B47795  17.260  26.570  15.200
 2161DOPG   C4B47796  17.350  26.460  14.750
 2162DOPG   GL047797  16.650  28.900  10.390
 2162DOPG   PO447798  16.830  29.160  10.120
 2162DOPG   GL147799  16.950  29.610   9.960
 2162DOPG   GL247800  16.880  29.870  10.200
 2162DOPG   C1A47801  16.850  29.920   9.710
 2162DOPG   D2A47802  16.780  30.350   9.630
 2162DOPG   C3A47803  16.930  30.780   9.740
 2162DOPG   C4A47804  17.140  31.040  10.050
 2162DOPG   C1B47805  16.500  30.150   9.980
 2162DOPG   D2B47806  16.250  30.520   9.750
 2162DOPG   C3B47807  16.450  30.900   9.590
 2162DOPG   C4B47808  16.690  31.200   9.790
 2163DOPG   GL047809  23.230  17.190  13.770
 2163DOPG   PO447810  23.190  17.210  13.270
 2163DOPG   GL147811  23.100  17.580  13.520
 2163DOPG   GL247812  22.850  17.570  13.700
 2163DOPG   C1A47813  22.900  18.040  13.480
 2163DOPG   D2A47814  22.690  18.410  13.350
 2163DOPG   C3A47815  22.190  18.490  13.350
 2163DOPG   C4A47816  21.920  18.710  13.170
 2163DOPG   C1B47817  22.520  17.310  13.520
 2163DOPG   D2B47818  22.100  17.210  13.240
 2163DOPG   C3B47819  21.890  17.520  13.200
 2163DOPG   C4B47820  21.560  17.790  13.300
 2164DOPG   GL047821  12.160  15.640  16.310
 2164DOPG   PO447822  12.330  15.380  15.910
 2164DOPG   GL147823  12.420  15.420  15.530
 2164DOPG   GL247824  12.380  15.690  15.430
 2164DOPG   C1A47825  12.370  15.470  15.020
 2164DOPG   D2A47826  12.180  15.340  14.610
 2164DOPG   C3A47827  12.310  15.700  14.370
 2164DOPG   C4A47828  12.200  15.960  14.110
 2164DOPG   C1B47829  12.020  15.990  15.130
 2164DOPG   D2B47830  12.020  15.970  14.720
 2164DOPG   C3B47831  11.720  16.090  14.400
 2164DOPG   C4B47832  11.440  16.420  14.180
 2165DOPG   GL047833  24.040  19.030  17.390
 2165DOPG   PO447834  24.240  18.830  17.070
 2165DOPG   GL147835  24.610  18.560  17.200
 2165DOPG   GL247836  24.510  18.340  17.420
 2165DOPG   C1A47837  24.930  18.290  17.120
 2165DOPG   D2A47838  25.380  18.060  17.250
 2165DOPG   C3A47839  25.790  18.070  17.070
 2165DOPG   C4A47840  26.150  18.010  16.910
 2165DOPG   C1B47841  24.470  18.140  17.830
 2165DOPG   D2B47842  24.780  18.070  18.210
 2165DOPG   C3B47843  25.080  17.670  18.290
 2165DOPG   C4B47844  25.290  17.410  18.550
 2166DOPG   GL047845  22.590  28.340  12.490
 2166DOPG   PO447846  23.030  28.140  12.560
 2166DOPG   GL147847  22.790  27.880  12.880
 2166DOPG   GL247848  22.660  27.820  12.560
 2166DOPG   C1A47849  22.750  27.500  13.050
 2166DOPG   D2A47850  22.630  27.130  13.240
 2166DOPG   C3A47851  22.490  26.760  13.060
 2166DOPG   C4A47852  22.340  26.440  13.150
 2166DOPG   C1B47853  22.480  27.470  12.570
 2166DOPG   D2B47854  22.280  27.160  12.790
 2166DOPG   C3B47855  22.100  26.730  12.640
 2166DOPG   C4B47856  22.100  26.570  12.320
 2167DOPG   GL047857  20.630  15.160  15.630
 2167DOPG   PO447858  20.330  15.220  15.990
 2167DOPG   GL147859  20.370  15.610  15.780
 2167DOPG   GL247860  20.390  15.780  16.110
 2167DOPG   C1A47861  20.180  15.900  15.520
 2167DOPG   D2A47862  20.040  15.800  15.070
 2167DOPG   C3A47863  19.800  16.040  14.760
 2167DOPG   C4A47864  19.920  16.400  14.450
 2167DOPG   C1B47865  20.580  16.130  15.750
 2167DOPG   D2B47866  20.960  16.210  15.580
 2167DOPG   C3B47867  21.040  16.720  15.360
 2167DOPG   C4B47868  21.260  17.130  15.420
 2168DOPG   GL047869  12.070  10.420   8.870
 2168DOPG   PO447870  11.820  10.460   9.160
 2168DOPG   GL147871  12.100  10.860   9.250
 2168DOPG   GL247872  11.910  11.100   9.350
 2168DOPG   C1A47873  12.450  11.170   9.390
 2168DOPG   D2A47874  12.830  11.380   9.750
 2168DOPG   C3A47875  13.300  11.590   9.630
 2168DOPG   C4A47876  13.740  11.590   9.460
 2168DOPG   C1B47877  11.810  11.180   9.840
 2168DOPG   D2B47878  11.970  11.170  10.270
 2168DOPG   C3B47879  11.600  11.030  10.490
 2168DOPG   C4B47880  11.260  11.310  10.680
 2169DOPG   GL047881  11.280  25.500  10.390
 2169DOPG   PO447882  11.350  25.270  10.070
 2169DOPG   GL147883  11.190  25.720   9.930
 2169DOPG   GL247884  10.930  25.600  10.000
 2169DOPG   C1A47885  10.990  26.150   9.760
 2169DOPG   D2A47886  10.800  26.530   9.640
 2169DOPG   C3A47887  10.350  26.400   9.510
 2169DOPG   C4A47888   9.970  26.020   9.520
 2169DOPG   C1B47889  10.490  25.580  10.080
 2169DOPG   D2B47890  10.030  25.540   9.940
 2169DOPG   C3B47891   9.830  25.910   9.960
 2169DOPG   C4B47892   9.580  26.290   9.860
 2170DOPG   GL047893  21.450  17.550  17.050
 2170DOPG   PO447894  21.120  17.370  17.280
 2170DOPG   GL147895  20.860  17.610  17.250
 2170DOPG   GL247896  20.840  17.760  17.010
 2170DOPG   C1A47897  20.780  18.080  17.490
 2170DOPG   D2A47898  20.570  18.400  17.250
 2170DOPG   C3A47899  20.720  18.670  16.980
 2170DOPG   C4A47900  20.790  18.770  16.530
 2170DOPG   C1B47901  20.380  17.960  17.020
 2170DOPG   D2B47902  20.070  18.230  17.000
 2170DOPG   C3B47903  19.780  18.140  16.750
 2170DOPG   C4B47904  19.530  18.060  16.550
 2171DOPG   GL047905  12.510  26.220  13.000
 2171DOPG   PO447906  12.660  25.830  12.740
 2171DOPG   GL147907  13.050  25.570  12.830
 2171DOPG   GL247908  12.970  25.340  12.940
 2171DOPG   C1A47909  13.280  25.500  12.480
 2171DOPG   D2A47910  13.200  25.220  12.080
 2171DOPG   C3A47911  13.320  24.820  12.190
 2171DOPG   C4A47912  13.550  24.490  12.020
 2171DOPG   C1B47913  13.130  24.910  13.040
 2171DOPG   D2B47914  13.060  24.580  13.310
 2171DOPG   C3B47915  13.410  24.420  13.430
 2171DOPG   C4B47916  13.560  24.550  13.790
 2172DOPG   GL047917  21.040  27.280  16.500
 2172DOPG   PO447918  21.150  27.760  16.480
 2172DOPG   GL147919  21.360  27.450  16.110
 2172DOPG   GL247920  21.620  27.400  16.090
 2172DOPG   C1A47921  21.170  27.110  15.810
 2172DOPG   D2A47922  20.970  26.910  15.440
 2172DOPG   C3A47923  21.140  26.610  15.120
 2172DOPG   C4A47924  21.020  26.340  14.770
 2172DOPG   C1B47925  21.620  27.190  15.680
 2172DOPG   D2B47926  21.750  27.100  15.330
 2172DOPG   C3B47927  21.460  26.980  14.920
 2172DOPG   C4B47928  21.200  26.840  14.680
 2173DOPG   GL047929  24.910  13.240   8.780
 2173DOPG   PO447930  24.790  13.560   8.550
 2173DOPG   GL147931  24.590  13.830   8.760
 2173DOPG   GL247932  24.550  13.580   9.010
 2173DOPG   C1A47933  24.260  14.290   8.880
 2173DOPG   D2A47934  23.870  14.220   8.620
 2173DOPG   C3A47935  23.850  14.300   8.140
 2173DOPG   C4A47936  23.840  14.410   7.700
 2173DOPG   C1B47937  24.490  13.290   9.360
 2173DOPG   D2B47938  24.120  13.240   9.280
 2173DOPG   C3B47939  23.740  13.520   9.380
 2173DOPG   C4B47940  23.490  13.940   9.470
 2174DOPG   GL047941  18.240  14.110  11.360
 2174DOPG   PO447942  18.380  14.510  11.390
 2174DOPG   GL147943  18.310  14.890  11.680
 2174DOPG   GL247944  17.990  14.930  11.800
 2174DOPG   C1A47945  18.620  15.310  11.690
 2174DOPG   D2A47946  18.720  15.730  11.760
 2174DOPG   C3A47947  18.370  15.940  11.900
 2174DOPG   C4A47948  18.070  16.240  12.010
 2174DOPG   C1B47949  17.710  14.970  12.200
 2174DOPG   D2B47950  17.500  14.840  12.530
 2174DOPG   C3B47951  17.420  15.200  12.810
 2174DOPG   C4B47952  17.390  15.560  13.160
 2175DOPG   GL047953  11.550  21.770   9.220
 2175DOPG   PO447954  11.770  22.070   9.370
 2175DOPG   GL147955  12.120  22.060   9.630
 2175DOPG   GL247956  12.320  21.750   9.600
 2175DOPG   C1A47957  12.250  22.090  10.020
 2175DOPG   D2A47958  12.190  22.150  10.270
 2175DOPG   C3A47959  12.040  21.790  10.400
 2175DOPG   C4A47960  11.860  21.580  10.650
 2175DOPG   C1B47961  12.620  21.770   9.820
 2175DOPG   D2B47962  12.990  21.650  10.040
 2175DOPG   C3B47963  13.130  21.920  10.370
 2175DOPG   C4B47964  13.430  22.110  10.660
 2176DOPG   GL047965  16.050  21.690  20.350
 2176DOPG   PO447966  16.380  21.370  20.460
 2176DOPG   GL147967  16.310  21.610  20.810
 2176DOPG   GL247968  16.560  21.810  20.960
 2176DOPG   C1A47969  16.130  21.680  21.200
 2176DOPG   D2A47970  15.910  21.850  21.560
 2176DOPG   C3A47971  15.500  21.730  21.580
 2176DOPG   C4A47972  15.160  21.540  21.430
 2176DOPG   C1B47973  16.620  21.750  21.420
 2176DOPG   D2B47974  16.740  21.450  21.640
 2176DOPG   C3B47975  17.120  21.540  21.860
 2176DOPG   C4B47976  17.250  21.730  22.230
 2177DOPG   GL047977  14.600  18.920   7.920
 2177DOPG   PO447978  14.380  19.200   8.150
 2177DOPG   GL147979  14.610  18.870   8.430
 2177DOPG   GL247980  14.830  19.070   8.390
 2177DOPG   C1A47981  14.770  18.630   8.720
 2177DOPG   D2A47982  14.770  18.410   9.030
 2177DOPG   C3A47983  14.890  18.470   9.420
 2177DOPG   C4A47984  14.630  18.890   9.580
 2177DOPG   C1B47985  15.140  18.990   8.730
 2177DOPG   D2B47986  15.530  18.740   8.610
 2177DOPG   C3B47987  15.800  18.930   8.830
 2177DOPG   C4B47988  15.900  19.050   9.220
 2178DOPG   GL047989  18.420  29.090  12.840
 2178DOPG   PO447990  18.720  28.940  13.160
 2178DOPG   GL147991  18.940  28.570  13.340
 2178DOPG   GL247992  18.800  28.380  13.250
 2178DOPG   C1A47993  19.410  28.440  13.150
 2178DOPG   D2A47994  19.660  28.140  13.290
 2178DOPG   C3A47995  20.010  28.300  13.390
 2178DOPG   C4A47996  20.420  28.140  13.530
 2178DOPG   C1B47997  18.700  27.990  13.060
 2178DOPG   D2B47998  18.690  27.560  13.010
 2178DOPG   C3B47999  18.790  27.250  13.250
 2178DOPG   C4B48000  18.660  26.900  13.430
 2179DOPG   GL048001  16.390  17.820   7.420
 2179DOPG   PO448002  16.810  17.700   7.730
 2179DOPG   GL148003  16.950  18.030   8.020
 2179DOPG   GL248004  16.990  17.820   8.270
 2179DOPG   C1A48005  17.290  18.290   8.350
 2179DOPG   D2A48006  17.490  18.690   8.540
 2179DOPG   C3A48007  17.630  19.080   8.360
 2179DOPG   C4A48008  17.520  19.540   8.380
 2179DOPG   C1B48009  16.940  18.170   8.650
 2179DOPG   D2B48010  17.040  18.580   8.840
 2179DOPG   C3B48011  17.160  19.060   8.820
 2179DOPG   C4B48012  17.240  19.440   8.790
 2180DOPG   GL048013  25.800  24.030  14.140
 2180DOPG   PO448014  25.480  23.920  13.840
 2180DOPG   GL148015  25.110  23.540  14.000
 2180DOPG   GL248016  24.800  23.490  14.140
 2180DOPG   C1A48017  24.630  23.910  14.120
 2180DOPG   D2A48018  24.280  24.080  14.060
 2180DOPG   C3A48019  24.160  24.300  13.650
 2180DOPG   C4A48020  23.880  24.700  13.580
 2180DOPG   C1B48021  24.390  23.330  14.390
 2180DOPG   D2B48022  23.980  23.170  14.440
 2180DOPG   C3B48023  23.580  23.260  14.310
 2180DOPG   C4B48024  23.240  22.930  14.330
 2181DOPG   GL048025  30.180  20.090  11.510
 2181DOPG   PO448026  30.060  20.470  11.700
 2181DOPG   GL148027  29.600  20.670  11.860
 2181DOPG   GL248028  29.540  20.800  12.240
 2181DOPG   C1A48029  29.150  20.750  11.890
 2181DOPG   D2A48030  28.860  20.870  12.250
 2181DOPG   C3A48031  28.520  20.720  12.290
 2181DOPG   C4A48032  28.120  20.790  12.220
 2181DOPG   C1B48033  29.260  21.120  12.290
 2181DOPG   D2B48034  28.960  21.370  12.450
 2181DOPG   C3B48035  29.050  21.600  12.710
 2181DOPG   C4B48036  29.350  21.940  12.820
 2182DOPG   GL048037  15.850  21.320   6.340
 2182DOPG   PO448038  16.020  21.380   6.750
 2182DOPG   GL148039  16.120  21.380   7.030
 2182DOPG   GL248040  16.140  21.050   7.170
 2182DOPG   C1A48041  16.050  21.690   7.410
 2182DOPG   D2A48042  16.080  22.010   7.730
 2182DOPG   C3A48043  15.830  22.020   8.030
 2182DOPG   C4A48044  15.590  21.600   8.250
 2182DOPG   C1B48045  16.450  21.380   7.380
 2182DOPG   D2B48046  16.430  21.620   7.740
 2182DOPG   C3B48047  16.730  21.670   8.090
 2182DOPG   C4B48048  16.960  21.360   8.270
 2183DOPG   GL048049  15.290  18.820  24.270
 2183DOPG   PO448050  15.330  19.410  24.150
 2183DOPG   GL148051  15.530  19.140  23.800
 2183DOPG   GL248052  15.710  18.780  23.760
 2183DOPG   C1A48053  15.420  19.190  23.400
 2183DOPG   D2A48054  15.660  19.240  23.040
 2183DOPG   C3A48055  16.000  19.160  22.720
 2183DOPG   C4A48056  16.300  18.820  22.530
 2183DOPG   C1B48057  16.000  19.060  23.490
 2183DOPG   D2B48058  16.230  19.220  23.140
 2183DOPG   C3B48059  16.620  19.350  23.230
 2183DOPG   C4B48060  17.030  19.410  23.040
 2184DOPG   GL048061  20.430  19.770  19.180
 2184DOPG   PO448062  20.080  19.580  19.240
 2184DOPG   GL148063  19.950  19.750  18.880
 2184DOPG   GL248064  19.830  19.570  18.660
 2184DOPG   C1A48065  20.090  20.010  18.640
 2184DOPG   D2A48066  20.460  20.080  18.540
 2184DOPG   C3A48067  20.460  20.330  18.230
 2184DOPG   C4A48068  20.730  20.770  18.290
 2184DOPG   C1B48069  19.350  19.520  18.580
 2184DOPG   D2B48070  19.070  19.770  18.450
 2184DOPG   C3B48071  19.220  19.760  18.070
 2184DOPG   C4B48072  19.110  19.980  17.660
 2185DOPG   GL048073  19.670  13.970   2.870
 2185DOPG   PO448074  19.920  14.300   2.670
 2185DOPG   GL148075  19.770  14.540   2.980
 2185DOPG   GL248076  19.760  14.790   3.150
 2185DOPG   C1A48077  19.330  14.890   2.980
 2185DOPG   D2A48078  19.270  15.270   2.900
 2185DOPG   C3A48079  18.950  15.570   2.950
 2185DOPG   C4A48080  18.600  15.750   3.190
 2185DOPG   C1B48081  20.220  14.930   3.200
 2185DOPG   D2B48082  20.500  14.960   3.540
 2185DOPG   C3B48083  20.190  14.890   3.870
 2185DOPG   C4B48084  19.910  14.900   4.180
 2186DOPG   GL048085  10.670  17.830  16.570
 2186DOPG   PO448086  10.690  17.910  16.160
 2186DOPG   GL148087  10.560  17.840  15.700
 2186DOPG   GL248088  10.210  17.640  15.700
 2186DOPG   C1A48089  10.800  17.790  15.360
 2186DOPG   D2A48090  11.140  17.930  15.060
 2186DOPG   C3A48091  11.460  17.720  14.910
 2186DOPG   C4A48092  11.830  17.800  14.830
 2186DOPG   C1B48093   9.900  17.390  15.490
 2186DOPG   D2B48094   9.630  17.090  15.390
 2186DOPG   C3B48095   9.750  16.580  15.330
 2186DOPG   C4B48096   9.930  16.150  15.120
 2187DOPG   GL048097  11.370  23.890  14.710
 2187DOPG   PO448098  11.740  23.810  14.870
 2187DOPG   GL148099  11.930  23.510  14.700
 2187DOPG   GL248100  12.100  23.170  14.850
 2187DOPG   C1A48101  12.370  23.460  14.460
 2187DOPG   D2A48102  12.640  23.230  14.160
 2187DOPG   C3A48103  12.660  23.390  13.670
 2187DOPG   C4A48104  12.600  23.650  13.380
 2187DOPG   C1B48105  12.280  22.810  14.970
 2187DOPG   D2B48106  12.390  22.480  15.280
 2187DOPG   C3B48107  12.690  22.550  15.610
 2187DOPG   C4B48108  12.800  22.810  15.970
 2188DOPG   GL048109  20.450  16.570   8.800
 2188DOPG   PO448110  20.370  17.010   8.560
 2188DOPG   GL148111  20.390  17.420   8.630
 2188DOPG   GL248112  20.060  17.630   8.790
 2188DOPG   C1A48113  20.560  17.880   8.610
 2188DOPG   D2A48114  20.650  18.170   8.870
 2188DOPG   C3A48115  20.440  18.540   8.750
 2188DOPG   C4A48116  20.550  18.820   9.090
 2188DOPG   C1B48117  19.980  17.720   9.260
 2188DOPG   D2B48118  19.700  17.940   9.530
 2188DOPG   C3B48119  19.190  18.060   9.470
 2188DOPG   C4B48120  18.870  18.340   9.340
 2189DOPG   GL048121  18.330  13.540  13.210
 2189DOPG   PO448122  18.080  13.940  13.250
 2189DOPG   GL148123  18.070  14.390  13.350
 2189DOPG   GL248124  17.750  14.380  13.310
 2189DOPG   C1A48125  18.180  14.870  13.360
 2189DOPG   D2A48126  18.090  15.310  13.440
 2189DOPG   C3A48127  17.710  15.430  13.680
 2189DOPG   C4A48128  17.370  15.740  13.690
 2189DOPG   C1B48129  17.580  14.790  13.500
 2189DOPG   D2B48130  17.400  15.040  13.370
 2189DOPG   C3B48131  17.010  15.280  13.650
 2189DOPG   C4B48132  16.630  15.510  13.560
 2190DOPG   GL048133  17.160  17.990  19.400
 2190DOPG   PO448134  17.580  18.050  19.240
 2190DOPG   GL148135  17.680  18.240  18.820
 2190DOPG   GL248136  17.890  18.490  18.730
 2190DOPG   C1A48137  17.550  18.060  18.420
 2190DOPG   D2A48138  17.470  18.270  18.140
 2190DOPG   C3A48139  17.610  18.720  18.040
 2190DOPG   C4A48140  17.630  19.120  18.230
 2190DOPG   C1B48141  17.950  18.290  18.280
 2190DOPG   D2B48142  18.000  18.440  17.970
 2190DOPG   C3B48143  17.870  18.500  17.590
 2190DOPG   C4B48144  17.970  18.660  17.240
 2191DOPG   GL048145  22.070  17.800   7.290
 2191DOPG   PO448146  22.160  17.590   7.660
 2191DOPG   GL148147  22.390  17.380   7.460
 2191DOPG   GL248148  22.420  17.490   7.160
 2191DOPG   C1A48149  22.710  17.130   7.280
 2191DOPG   D2A48150  23.110  17.190   7.100
 2191DOPG   C3A48151  23.380  16.880   7.020
 2191DOPG   C4A48152  23.680  16.860   6.760
 2191DOPG   C1B48153  22.750  17.630   6.940
 2191DOPG   D2B48154  22.920  17.490   6.600
 2191DOPG   C3B48155  22.920  17.050   6.610
 2191DOPG   C4B48156  23.090  16.780   6.340
 2192DOPG   GL048157  16.420  14.990   9.120
 2192DOPG   PO448158  16.140  15.410   9.300
 2192DOPG   GL148159  15.910  15.640   9.640
 2192DOPG   GL248160  15.800  16.060   9.440
 2192DOPG   C1A48161  15.940  15.810  10.090
 2192DOPG   D2A48162  16.000  15.480  10.480
 2192DOPG   C3A48163  15.700  15.500  10.840
 2192DOPG   C4A48164  15.160  15.550  10.950
 2192DOPG   C1B48165  15.830  16.290   9.790
 2192DOPG   D2B48166  15.990  16.300  10.190
 2192DOPG   C3B48167  16.350  16.110  10.280
 2192DOPG   C4B48168  16.380  15.780  10.390
 2193DOPG   GL048169   5.070  19.750  15.100
 2193DOPG   PO448170   5.500  19.820  15.000
 2193DOPG   GL148171   5.720  19.810  15.420
 2193DOPG   GL248172   6.010  19.900  15.290
 2193DOPG   C1A48173   5.920  19.630  15.830
 2193DOPG   D2A48174   6.150  19.250  15.930
 2193DOPG   C3A48175   6.480  19.060  15.720
 2193DOPG   C4A48176   6.630  19.100  15.360
 2193DOPG   C1B48177   6.170  20.030  15.710
 2193DOPG   D2B48178   6.650  20.010  15.630
 2193DOPG   C3B48179   6.900  20.240  15.330
 2193DOPG   C4B48180   6.930  20.360  14.900
 2194DOPG   GL048181   7.930  23.690  19.840
 2194DOPG   PO448182   8.280  23.950  19.800
 2194DOPG   GL148183   8.640  23.690  19.600
 2194DOPG   GL248184   8.550  23.430  19.410
 2194DOPG   C1A48185   9.040  23.510  19.570
 2194DOPG   D2A48186   9.240  23.480  19.160
 2194DOPG   C3A48187   9.240  23.150  18.810
 2194DOPG   C4A48188   9.490  22.800  18.820
 2194DOPG   C1B48189   8.770  23.280  19.220
 2194DOPG   D2B48190   9.100  23.010  19.280
 2194DOPG   C3B48191   9.020  22.630  18.940
 2194DOPG   C4B48192   9.130  22.510  18.570
 2195DOPG   GL048193  11.280  23.740   9.690
 2195DOPG   PO448194  10.950  23.870   9.390
 2195DOPG   GL148195  10.840  24.220   9.110
 2195DOPG   GL248196  10.750  24.500   9.200
 2195DOPG   C1A48197  10.650  24.270   8.790
 2195DOPG   D2A48198  10.280  24.480   8.570
 2195DOPG   C3A48199   9.900  24.380   8.470
 2195DOPG   C4A48200   9.760  24.560   8.130
 2195DOPG   C1B48201  10.590  24.770   8.840
 2195DOPG   D2B48202  10.310  25.110   8.690
 2195DOPG   C3B48203   9.980  24.890   8.550
 2195DOPG   C4B48204   9.690  25.020   8.430
 2196DOPG   GL048205  19.530  24.990   6.910
 2196DOPG   PO448206  19.550  25.310   7.100
 2196DOPG   GL148207  19.550  25.110   7.510
 2196DOPG   GL248208  19.410  24.910   7.570
 2196DOPG   C1A48209  19.570  24.790   8.010
 2196DOPG   D2A48210  19.620  24.350   8.090
 2196DOPG   C3A48211  19.920  24.110   8.270
 2196DOPG   C4A48212  19.980  23.810   8.030
 2196DOPG   C1B48213  19.220  24.540   7.660
 2196DOPG   D2B48214  19.040  24.220   7.890
 2196DOPG   C3B48215  19.380  23.890   8.050
 2196DOPG   C4B48216  19.630  23.740   8.460
 2197DOPG   GL048217  13.940  27.220  12.880
 2197DOPG   PO448218  13.830  26.910  12.650
 2197DOPG   GL148219  14.240  27.100  12.450
 2197DOPG   GL248220  14.410  27.100  12.640
 2197DOPG   C1A48221  14.540  26.870  12.260
 2197DOPG   D2A48222  14.750  26.490  12.180
 2197DOPG   C3A48223  14.540  26.090  12.240
 2197DOPG   C4A48224  14.600  25.710  11.900
 2197DOPG   C1B48225  14.870  27.260  12.810
 2197DOPG   D2B48226  15.080  27.050  13.060
 2197DOPG   C3B48227  14.900  26.690  13.090
 2197DOPG   C4B48228  15.120  26.300  13.230
 2198DOPG   GL048229  18.440  28.310  17.840
 2198DOPG   PO448230  18.810  28.480  17.660
 2198DOPG   GL148231  18.770  28.910  17.540
 2198DOPG   GL248232  19.080  28.980  17.560
 2198DOPG   C1A48233  18.640  29.280  17.700
 2198DOPG   D2A48234  18.340  29.270  18.080
 2198DOPG   C3A48235  18.460  29.460  18.340
 2198DOPG   C4A48236  18.580  29.840  18.470
 2198DOPG   C1B48237  19.380  29.040  17.860
 2198DOPG   D2B48238  19.580  29.230  18.160
 2198DOPG   C3B48239  19.540  29.490  18.580
 2198DOPG   C4B48240  19.640  29.800  18.310
 2199DOPG   GL048241  26.030  25.610  14.600
 2199DOPG   PO448242  26.090  25.330  14.940
 2199DOPG   GL148243  26.410  25.560  15.230
 2199DOPG   GL248244  26.420  25.370  15.640
 2199DOPG   C1A48245  26.710  25.740  15.540
 2199DOPG   D2A48246  27.240  25.750  15.650
 2199DOPG   C3A48247  27.490  25.860  15.970
 2199DOPG   C4A48248  27.690  26.220  16.180
 2199DOPG   C1B48249  26.710  25.540  16.060
 2199DOPG   D2B48250  27.090  25.690  16.270
 2199DOPG   C3B48251  27.560  25.510  16.300
 2199DOPG   C4B48252  27.810  25.180  16.310
 2200DOPG   GL048253  15.720  12.730  10.350
 2200DOPG   PO448254  15.620  12.400  10.080
 2200DOPG   GL148255  15.480  11.930   9.980
 2200DOPG   GL248256  15.750  11.850   9.920
 2200DOPG   C1A48257  15.210  11.540  10.040
 2200DOPG   D2A48258  15.230  11.090   9.890
 2200DOPG   C3A48259  15.380  10.720  10.120
 2200DOPG   C4A48260  15.740  10.700  10.410
 2200DOPG   C1B48261  15.570  11.520   9.720
 2200DOPG   D2B48262  15.170  11.430   9.530
 2200DOPG   C3B48263  15.030  11.490   9.160
 2200DOPG   C4B48264  14.980  11.370   8.690
 2201DOPG   GL048265  17.450  18.470   7.450
 2201DOPG   PO448266  17.160  18.120   7.580
 2201DOPG   GL148267  17.470  18.150   7.950
 2201DOPG   GL248268  17.450  17.840   8.050
 2201DOPG   C1A48269  17.780  18.280   8.210
 2201DOPG   D2A48270  17.940  18.230   8.680
 2201DOPG   C3A48271  18.340  17.970   8.830
 2201DOPG   C4A48272  18.690  17.870   9.020
 2201DOPG   C1B48273  17.490  17.830   8.480
 2201DOPG   D2B48274  17.430  18.120   8.880
 2201DOPG   C3B48275  17.680  18.650   9.010
 2201DOPG   C4B48276  17.680  19.110   8.830
 2202DOPG   GL048277  18.460  14.310  14.660
 2202DOPG   PO448278  18.820  14.000  14.610
 2202DOPG   GL148279  18.910  14.500  14.570
 2202DOPG   GL248280  18.990  14.690  14.330
 2202DOPG   C1A48281  18.700  14.890  14.710
 2202DOPG   D2A48282  18.280  15.050  14.770
 2202DOPG   C3A48283  18.100  15.400  14.680
 2202DOPG   C4A48284  18.020  15.890  14.540
 2202DOPG   C1B48285  18.460  14.730  14.310
 2202DOPG   D2B48286  18.060  15.060  14.340
 2202DOPG   C3B48287  18.100  15.370  14.070
 2202DOPG   C4B48288  18.120  15.720  13.790
 2203DOPG   GL048289  23.030  21.230  18.310
 2203DOPG   PO448290  22.810  20.820  18.240
 2203DOPG   GL148291  22.760  20.910  17.810
 2203DOPG   GL248292  22.980  20.980  17.580
 2203DOPG   C1A48293  22.530  20.850  17.420
 2203DOPG   D2A48294  22.440  21.110  17.070
 2203DOPG   C3A48295  22.630  21.410  16.880
 2203DOPG   C4A48296  22.890  21.680  17.120
 2203DOPG   C1B48297  22.750  21.270  17.410
 2203DOPG   D2B48298  22.470  21.660  17.380
 2203DOPG   C3B48299  22.210  21.630  17.010
 2203DOPG   C4B48300  21.910  22.080  16.950
 2204DOPG   GL048301  19.300  25.870  24.510
 2204DOPG   PO448302  19.010  25.600  24.340
 2204DOPG   GL148303  19.340  25.320  24.050
 2204DOPG   GL248304  19.370  25.660  23.830
 2204DOPG   C1A48305  19.340  25.200  23.630
 2204DOPG   D2A48306  19.100  25.260  23.270
 2204DOPG   C3A48307  18.790  25.510  23.400
 2204DOPG   C4A48308  18.260  25.600  23.280
 2204DOPG   C1B48309  19.450  25.630  23.330
 2204DOPG   D2B48310  19.740  25.580  22.980
 2204DOPG   C3B48311  19.810  25.600  22.590
 2204DOPG   C4B48312  19.570  25.810  22.210
 2205DOPG   GL048313  14.460  17.140   5.610
 2205DOPG   PO448314  14.100  16.840   5.650
 2205DOPG   GL148315  13.790  16.800   5.310
 2205DOPG   GL248316  13.760  16.600   5.170
 2205DOPG   C1A48317  13.320  16.690   5.230
 2205DOPG   D2A48318  13.140  16.500   4.950
 2205DOPG   C3A48319  12.930  16.140   5.180
 2205DOPG   C4A48320  12.930  15.770   5.320
 2205DOPG   C1B48321  13.620  16.800   4.770
 2205DOPG   D2B48322  13.580  16.840   4.320
 2205DOPG   C3B48323  13.340  16.600   4.060
 2205DOPG   C4B48324  13.140  16.380   3.910
 2206DOPG   GL048325  11.830  14.120  23.100
 2206DOPG   PO448326  11.670  14.120  22.720
 2206DOPG   GL148327  11.700  14.530  22.420
 2206DOPG   GL248328  11.370  14.420  22.380
 2206DOPG   C1A48329  12.030  14.760  22.220
 2206DOPG   D2A48330  11.960  14.980  21.890
 2206DOPG   C3A48331  12.040  15.000  21.510
 2206DOPG   C4A48332  12.030  15.130  21.080
 2206DOPG   C1B48333  11.440  14.740  22.060
 2206DOPG   D2B48334  11.560  14.830  21.600
 2206DOPG   C3B48335  11.620  15.130  21.300
 2206DOPG   C4B48336  11.430  15.420  20.950
 2207DOPG   GL048337  12.490  32.660  10.130
 2207DOPG   PO448338  12.520  32.240   9.850
 2207DOPG   GL148339  12.860  31.870  10.100
 2207DOPG   GL248340  12.560  31.750  10.200
 2207DOPG   C1A48341  13.210  31.590  10.370
 2207DOPG   D2A48342  13.100  31.160  10.510
 2207DOPG   C3A48343  13.170  30.890  10.810
 2207DOPG   C4A48344  13.360  30.700  11.220
 2207DOPG   C1B48345  12.800  31.370  10.070
 2207DOPG   D2B48346  13.070  30.940   9.960
 2207DOPG   C3B48347  12.880  30.520   9.830
 2207DOPG   C4B48348  13.040  30.250  10.060
 2208DOPG   GL048349  12.310  18.680   7.210
 2208DOPG   PO448350  12.000  18.850   7.450
 2208DOPG   GL148351  11.960  18.440   7.340
 2208DOPG   GL248352  11.960  18.130   7.590
 2208DOPG   C1A48353  11.510  18.280   7.230
 2208DOPG   D2A48354  11.090  18.150   7.080
 2208DOPG   C3A48355  10.900  17.670   7.110
 2208DOPG   C4A48356  10.710  17.420   7.500
 2208DOPG   C1B48357  11.700  17.860   7.850
 2208DOPG   D2B48358  11.370  17.610   7.980
 2208DOPG   C3B48359  11.280  17.290   8.240
 2208DOPG   C4B48360  11.240  17.060   8.640
 2209DOPG   GL048361  16.240  28.280  15.100
 2209DOPG   PO448362  16.600  28.200  15.020
 2209DOPG   GL148363  16.870  27.880  14.870
 2209DOPG   GL248364  17.180  27.900  14.780
 2209DOPG   C1A48365  16.800  27.630  14.570
 2209DOPG   D2A48366  16.850  27.390  14.160
 2209DOPG   C3A48367  16.970  26.970  14.140
 2209DOPG   C4A48368  17.180  26.890  13.920
 2209DOPG   C1B48369  17.080  27.330  14.900
 2209DOPG   D2B48370  16.940  26.970  15.070
 2209DOPG   C3B48371  16.730  26.740  14.880
 2209DOPG   C4B48372  16.900  26.540  14.420
 2210DOPG   GL048373  18.370  28.780  18.050
 2210DOPG   PO448374  17.980  28.610  17.890
 2210DOPG   GL148375  17.910  28.980  17.910
 2210DOPG   GL248376  17.540  28.970  17.730
 2210DOPG   C1A48377  17.830  29.310  17.990
 2210DOPG   D2A48378  17.580  29.610  18.240
 2210DOPG   C3A48379  17.430  29.690  18.600
 2210DOPG   C4A48380  16.930  29.710  18.810
 2210DOPG   C1B48381  17.310  29.270  17.930
 2210DOPG   D2B48382  17.030  29.490  18.210
 2210DOPG   C3B48383  16.690  29.590  18.380
 2210DOPG   C4B48384  16.430  29.790  18.560
 2211DOPG   GL048385  15.780  23.680  20.030
 2211DOPG   PO448386  16.220  23.730  20.040
 2211DOPG   GL148387  16.050  23.670  20.420
 2211DOPG   GL248388  16.120  23.380  20.490
 2211DOPG   C1A48389  15.890  23.640  20.870
 2211DOPG   D2A48390  15.780  23.930  21.200
 2211DOPG   C3A48391  15.760  24.330  21.150
 2211DOPG   C4A48392  15.460  24.680  21.110
 2211DOPG   C1B48393  16.210  23.190  20.880
 2211DOPG   D2B48394  16.090  23.220  21.280
 2211DOPG   C3B48395  16.200  23.290  21.650
 2211DOPG   C4B48396  16.350  23.530  21.960
 2212DOPG   GL048397  20.260  26.010   7.840
 2212DOPG   PO448398  20.370  25.670   7.700
 2212DOPG   GL148399  20.230  25.590   8.090
 2212DOPG   GL248400  20.010  25.630   8.160
 2212DOPG   C1A48401  20.460  25.430   8.470
 2212DOPG   D2A48402  20.240  25.550   8.830
 2212DOPG   C3A48403  20.390  25.770   9.140
 2212DOPG   C4A48404  20.340  25.740   9.620
 2212DOPG   C1B48405  19.710  25.370   8.090
 2212DOPG   D2B48406  19.270  25.230   8.050
 2212DOPG   C3B48407  18.960  25.080   8.400
 2212DOPG   C4B48408  18.900  25.140   8.810
 2213DOPG   GL048409  17.500  27.370   8.550
 2213DOPG   PO448410  17.400  27.540   9.050
 2213DOPG   GL148411  17.580  27.510   9.490
 2213DOPG   GL248412  17.970  27.550   9.450
 2213DOPG   C1A48413  17.590  27.350   9.840
 2213DOPG   D2A48414  17.740  26.880   9.930
 2213DOPG   C3A48415  17.680  26.630  10.180
 2213DOPG   C4A48416  17.300  26.410  10.260
 2213DOPG   C1B48417  18.020  27.010   9.570
 2213DOPG   D2B48418  18.190  26.730   9.150
 2213DOPG   C3B48419  18.140  26.290   9.000
 2213DOPG   C4B48420  17.970  26.010   8.630
 2214DOPG   GL048421  11.740  29.920   6.320
 2214DOPG   PO448422  11.900  29.470   6.370
 2214DOPG   GL148423  12.070  29.160   6.500
 2214DOPG   GL248424  12.020  29.120   6.780
 2214DOPG   C1A48425  12.550  29.030   6.550
 2214DOPG   D2A48426  12.580  28.680   6.670
 2214DOPG   C3A48427  12.570  28.390   7.010
 2214DOPG   C4A48428  12.620  28.140   7.380
 2214DOPG   C1B48429  12.050  28.670   6.810
 2214DOPG   D2B48430  12.100  28.340   6.790
 2214DOPG   C3B48431  12.340  27.890   6.980
 2214DOPG   C4B48432  12.370  27.500   6.770
 2215DOPG   GL048433  24.370  18.570  11.780
 2215DOPG   PO448434  24.110  18.960  11.830
 2215DOPG   GL148435  23.800  19.300  12.060
 2215DOPG   GL248436  23.560  19.280  12.200
 2215DOPG   C1A48437  23.660  19.790  12.150
 2215DOPG   D2A48438  23.430  20.090  12.460
 2215DOPG   C3A48439  23.610  20.510  12.470
 2215DOPG   C4A48440  23.620  20.860  12.230
 2215DOPG   C1B48441  23.370  19.480  12.540
 2215DOPG   D2B48442  23.100  19.780  12.640
 2215DOPG   C3B48443  22.640  19.750  12.750
 2215DOPG   C4B48444  22.230  19.960  12.750
 2216DOPG   GL048445  20.020  16.700  17.800
 2216DOPG   PO448446  19.640  16.820  17.780
 2216DOPG   GL148447  19.510  16.770  17.330
 2216DOPG   GL248448  19.160  16.750  17.380
 2216DOPG   C1A48449  19.350  16.820  16.850
 2216DOPG   D2A48450  19.320  17.010  16.490
 2216DOPG   C3A48451  19.280  17.250  16.120
 2216DOPG   C4A48452  19.440  17.180  15.750
 2216DOPG   C1B48453  19.120  17.100  17.170
 2216DOPG   D2B48454  19.020  17.460  16.980
 2216DOPG   C3B48455  19.230  17.430  16.620
 2216DOPG   C4B48456  19.670  17.530  16.550
 2217DOPG   GL048457  16.860  33.920  16.600
 2217DOPG   PO448458  17.070  33.690  16.850
 2217DOPG   GL148459  17.130  33.300  16.840
 2217DOPG   GL248460  16.900  33.120  16.820
 2217DOPG   C1A48461  17.520  33.060  16.730
 2217DOPG   D2A48462  17.960  32.830  16.810
 2217DOPG   C3A48463  18.000  32.450  16.780
 2217DOPG   C4A48464  18.120  32.190  16.950
 2217DOPG   C1B48465  17.080  32.760  16.730
 2217DOPG   D2B48466  17.550  32.510  16.630
 2217DOPG   C3B48467  17.720  32.130  16.580
 2217DOPG   C4B48468  17.850  31.770  16.700
 2218DOPG   GL048469  23.640  18.280  11.330
 2218DOPG   PO448470  23.410  18.320  11.060
 2218DOPG   GL148471  23.180  18.480  11.420
 2218DOPG   GL248472  23.140  18.490  11.710
 2218DOPG   C1A48473  22.790  18.730  11.440
 2218DOPG   D2A48474  22.640  19.120  11.600
 2218DOPG   C3A48475  22.340  19.240  11.340
 2218DOPG   C4A48476  22.240  19.460  10.940
 2218DOPG   C1B48477  22.780  18.510  11.970
 2218DOPG   D2B48478  22.820  18.800  12.180
 2218DOPG   C3B48479  22.470  19.130  12.180
 2218DOPG   C4B48480  22.120  19.140  11.990
 2219DOPG   GL048481  24.140  18.510  13.500
 2219DOPG   PO448482  24.310  18.910  13.740
 2219DOPG   GL148483  23.820  18.930  13.720
 2219DOPG   GL248484  23.600  18.730  13.910
 2219DOPG   C1A48485  23.530  19.230  13.420
 2219DOPG   D2A48486  23.380  19.520  13.090
 2219DOPG   C3A48487  23.050  19.840  13.260
 2219DOPG   C4A48488  22.670  20.050  13.180
 2219DOPG   C1B48489  23.230  19.030  13.780
 2219DOPG   D2B48490  23.030  19.360  13.520
 2219DOPG   C3B48491  22.640  19.510  13.410
 2219DOPG   C4B48492  22.290  19.720  13.180
 2220DOPG   GL048493  24.010  25.890  17.690
 2220DOPG   PO448494  24.150  25.540  17.450
 2220DOPG   GL148495  23.890  25.140  17.170
 2220DOPG   GL248496  23.880  24.870  16.900
 2220DOPG   C1A48497  23.440  25.030  16.990
 2220DOPG   D2A48498  23.210  24.720  16.800
 2220DOPG   C3A48499  22.850  24.530  16.540
 2220DOPG   C4A48500  22.490  24.270  16.420
 2220DOPG   C1B48501  23.690  24.650  16.540
 2220DOPG   D2B48502  23.370  24.480  16.410
 2220DOPG   C3B48503  23.190  24.190  16.660
 2220DOPG   C4B48504  23.170  23.800  16.940
 2221DOPG   GL048505   6.650  15.350  17.950
 2221DOPG   PO448506   6.610  15.840  17.970
 2221DOPG   GL148507   6.860  16.140  17.720
 2221DOPG   GL248508   6.850  16.440  17.300
 2221DOPG   C1A48509   7.090  16.400  17.880
 2221DOPG   D2A48510   7.420  16.520  17.690
 2221DOPG   C3A48511   7.790  16.320  17.780
 2221DOPG   C4A48512   8.190  16.530  17.720
 2221DOPG   C1B48513   7.210  16.510  17.270
 2221DOPG   D2B48514   7.650  16.450  17.230
 2221DOPG   C3B48515   8.090  16.670  17.120
 2221DOPG   C4B48516   8.430  16.540  17.060
 2222DOPG   GL048517  19.660  31.360   4.990
 2222DOPG   PO448518  19.660  30.880   4.930
 2222DOPG   GL148519  19.380  30.640   5.140
 2222DOPG   GL248520  19.230  30.670   5.430
 2222DOPG   C1A48521  19.370  30.140   5.350
 2222DOPG   D2A48522  19.180  30.060   5.700
 2222DOPG   C3A48523  19.410  30.240   6.020
 2222DOPG   C4A48524  19.390  30.380   6.410
 2222DOPG   C1B48525  19.620  30.530   5.650
 2222DOPG   D2B48526  19.890  30.230   5.800
 2222DOPG   C3B48527  19.590  29.780   5.910
 2222DOPG   C4B48528  19.510  29.360   6.160
 2223DOPG   GL048529  25.110  19.480  15.690
 2223DOPG   PO448530  25.340  19.450  16.110
 2223DOPG   GL148531  25.700  19.180  16.250
 2223DOPG   GL248532  25.660  18.880  16.080
 2223DOPG   C1A48533  26.150  19.210  16.380
 2223DOPG   D2A48534  26.460  19.280  16.800
 2223DOPG   C3A48535  26.170  19.420  17.200
 2223DOPG   C4A48536  25.740  19.300  17.170
 2223DOPG   C1B48537  25.980  18.710  16.340
 2223DOPG   D2B48538  26.210  18.460  16.690
 2223DOPG   C3B48539  26.520  18.640  16.920
 2223DOPG   C4B48540  26.870  18.940  16.750
 2224DOPG   GL048541  21.200  28.680  10.250
 2224DOPG   PO448542  21.380  28.360  10.420
 2224DOPG   GL148543  21.200  27.980  10.350
 2224DOPG   GL248544  20.800  28.010  10.240
 2224DOPG   C1A48545  20.990  27.650  10.600
 2224DOPG   D2A48546  20.640  27.590  10.880
 2224DOPG   C3A48547  20.620  27.220  11.010
 2224DOPG   C4A48548  20.940  26.940  11.350
 2224DOPG   C1B48549  20.560  27.630  10.330
 2224DOPG   D2B48550  20.670  27.170  10.470
 2224DOPG   C3B48551  20.450  26.810  10.640
 2224DOPG   C4B48552  20.290  26.510  10.670
 2225DOPG   GL048553  17.700  14.680   7.490
 2225DOPG   PO448554  17.970  14.290   7.460
 2225DOPG   GL148555  17.870  13.900   7.450
 2225DOPG   GL248556  18.240  13.860   7.430
 2225DOPG   C1A48557  17.930  13.480   7.140
 2225DOPG   D2A48558  18.220  13.260   6.790
 2225DOPG   C3A48559  18.600  13.470   6.640
 2225DOPG   C4A48560  18.940  13.300   6.800
 2225DOPG   C1B48561  18.270  13.780   6.960
 2225DOPG   D2B48562  18.130  13.720   6.530
 2225DOPG   C3B48563  18.490  13.800   6.280
 2225DOPG   C4B48564  18.650  14.210   6.580
 2226DOPG   GL048565   7.130  23.190  18.550
 2226DOPG   PO448566   7.360  23.130  18.990
 2226DOPG   GL148567   7.630  23.090  18.690
 2226DOPG   GL248568   7.960  23.130  18.730
 2226DOPG   C1A48569   7.630  22.850  18.390
 2226DOPG   D2A48570   7.850  22.920  18.010
 2226DOPG   C3A48571   7.640  22.740  17.710
 2226DOPG   C4A48572   7.630  22.620  17.310
 2226DOPG   C1B48573   8.220  22.970  18.380
 2226DOPG   D2B48574   8.440  22.920  17.980
 2226DOPG   C3B48575   8.670  22.590  17.850
 2226DOPG   C4B48576   8.950  22.230  17.580
 2227DOPG   GL048577  12.090  20.980  17.570
 2227DOPG   PO448578  11.850  21.300  17.340
 2227DOPG   GL148579  12.110  20.890  17.110
 2227DOPG   GL248580  12.430  20.750  17.150
 2227DOPG   C1A48581  12.300  20.660  16.740
 2227DOPG   D2A48582  12.400  20.430  16.330
 2227DOPG   C3A48583  12.130  20.120  16.340
 2227DOPG   C4A48584  12.090  19.640  16.330
 2227DOPG   C1B48585  12.820  20.820  16.960
 2227DOPG   D2B48586  12.980  21.080  16.670
 2227DOPG   C3B48587  13.340  21.120  16.350
 2227DOPG   C4B48588  13.570  21.030  16.040
 2228DOPG   GL048589  18.340  20.660   6.140
 2228DOPG   PO448590  18.350  20.470   6.510
 2228DOPG   GL148591  18.210  20.410   6.900
 2228DOPG   GL248592  18.270  20.170   6.950
 2228DOPG   C1A48593  18.010  20.510   7.220
 2228DOPG   D2A48594  17.670  20.420   7.500
 2228DOPG   C3A48595  17.500  20.860   7.710
 2228DOPG   C4A48596  17.150  20.930   7.870
 2228DOPG   C1B48597  18.490  20.130   7.350
 2228DOPG   D2B48598  18.780  20.030   7.820
 2228DOPG   C3B48599  18.850  20.200   8.260
 2228DOPG   C4B48600  19.090  20.440   8.580
 2229DOPG   GL048601  18.950  15.530   9.550
 2229DOPG   PO448602  18.510  15.670   9.500
 2229DOPG   GL148603  18.460  16.050   9.720
 2229DOPG   GL248604  18.130  16.110   9.810
 2229DOPG   C1A48605  18.560  16.340  10.050
 2229DOPG   D2A48606  18.330  16.580  10.260
 2229DOPG   C3A48607  18.410  16.990  10.060
 2229DOPG   C4A48608  18.150  17.190   9.730
 2229DOPG   C1B48609  18.090  16.170  10.200
 2229DOPG   D2B48610  17.760  16.400  10.390
 2229DOPG   C3B48611  17.590  16.300  10.760
 2229DOPG   C4B48612  17.440  16.390  11.130
 2230DOPG   GL048613  19.730  17.530  18.580
 2230DOPG   PO448614  19.360  17.360  18.640
 2230DOPG   GL148615  19.140  17.700  18.360
 2230DOPG   GL248616  19.050  17.540  18.000
 2230DOPG   C1A48617  19.080  18.040  18.170
 2230DOPG   D2A48618  18.860  18.180  17.960
 2230DOPG   C3A48619  18.660  18.370  18.230
 2230DOPG   C4A48620  18.440  18.590  18.100
 2230DOPG   C1B48621  19.260  17.810  17.760
 2230DOPG   D2B48622  19.060  17.820  17.370
 2230DOPG   C3B48623  18.850  18.260  17.430
 2230DOPG   C4B48624  18.330  18.370  17.580
 2231DOPG   GL048625  17.890  13.930  15.160
 2231DOPG   PO448626  17.970  13.970  14.770
 2231DOPG   GL148627  17.890  14.430  14.780
 2231DOPG   GL248628  18.070  14.580  14.570
 2231DOPG   C1A48629  17.800  14.660  15.130
 2231DOPG   D2A48630  17.800  14.910  15.470
 2231DOPG   C3A48631  17.460  15.120  15.400
 2231DOPG   C4A48632  17.330  15.040  15.010
 2231DOPG   C1B48633  17.890  14.620  14.210
 2231DOPG   D2B48634  17.460  14.570  13.950
 2231DOPG   C3B48635  17.160  14.880  13.900
 2231DOPG   C4B48636  16.700  15.040  13.950
 2232DOPG   GL048637  25.220  26.670  13.390
 2232DOPG   PO448638  24.830  26.250  13.250
 2232DOPG   GL148639  24.630  25.940  13.130
 2232DOPG   GL248640  24.560  25.720  12.880
 2232DOPG   C1A48641  24.210  25.880  13.340
 2232DOPG   D2A48642  24.080  25.560  13.570
 2232DOPG   C3A48643  23.760  25.260  13.570
 2232DOPG   C4A48644  23.560  25.030  13.310
 2232DOPG   C1B48645  24.380  25.430  13.170
 2232DOPG   D2B48646  24.130  25.090  13.300
 2232DOPG   C3B48647  24.400  24.670  13.430
 2232DOPG   C4B48648  24.560  24.550  13.890
 2233DOPG   GL048649  15.960  27.800   9.700
 2233DOPG   PO448650  16.160  27.390   9.730
 2233DOPG   GL148651  16.480  27.260  10.100
 2233DOPG   GL248652  16.740  27.460  10.090
 2233DOPG   C1A48653  16.450  27.270  10.530
 2233DOPG   D2A48654  16.630  27.010  10.880
 2233DOPG   C3A48655  16.880  26.870  10.660
 2233DOPG   C4A48656  16.810  26.850  10.200
 2233DOPG   C1B48657  17.070  27.170   9.890
 2233DOPG   D2B48658  17.330  27.030  10.090
 2233DOPG   C3B48659  17.460  26.890  10.570
 2233DOPG   C4B48660  17.620  26.680  10.780
 2234DOPG   GL048661  16.540  26.160  17.720
 2234DOPG   PO448662  16.130  26.010  17.640
 2234DOPG   GL148663  16.460  25.890  17.240
 2234DOPG   GL248664  16.400  25.760  16.890
 2234DOPG   C1A48665  16.630  26.120  16.870
 2234DOPG   D2A48666  16.430  26.420  16.660
 2234DOPG   C3A48667  16.380  26.540  16.220
 2234DOPG   C4A48668  16.550  26.550  15.870
 2234DOPG   C1B48669  16.720  25.600  16.660
 2234DOPG   D2B48670  16.990  25.370  16.540
 2234DOPG   C3B48671  17.210  25.330  16.140
 2234DOPG   C4B48672  17.390  25.150  15.820
 2235DOPG   GL048673  15.500  27.970   9.830
 2235DOPG   PO448674  15.610  27.520   9.950
 2235DOPG   GL148675  15.720  27.160  10.070
 2235DOPG   GL248676  16.060  26.990  10.060
 2235DOPG   C1A48677  15.730  26.690  10.120
 2235DOPG   D2A48678  15.980  26.450  10.150
 2235DOPG   C3A48679  16.280  26.100  10.300
 2235DOPG   C4A48680  16.290  25.780  10.500
 2235DOPG   C1B48681  16.400  26.640   9.930
 2235DOPG   D2B48682  16.610  26.300   9.850
 2235DOPG   C3B48683  17.010  26.430   9.860
 2235DOPG   C4B48684  17.320  26.630   9.700
 2236DOPG   GL048685  14.120  16.070  17.460
 2236DOPG   PO448686  13.980  16.260  17.260
 2236DOPG   GL148687  14.050  16.680  16.840
 2236DOPG   GL248688  14.440  16.900  16.690
 2236DOPG   C1A48689  13.970  16.800  16.410
 2236DOPG   D2A48690  14.140  16.830  16.000
 2236DOPG   C3A48691  14.590  16.940  15.930
 2236DOPG   C4A48692  14.860  16.710  16.080
 2236DOPG   C1B48693  14.360  17.100  16.370
 2236DOPG   D2B48694  14.230  17.360  16.010
 2236DOPG   C3B48695  13.940  17.320  15.670
 2236DOPG   C4B48696  13.540  17.280  15.470
 2237DOPG   GL048697  22.640  17.180  11.690
 2237DOPG   PO448698  22.800  16.950  12.040
 2237DOPG   GL148699  22.460  17.280  12.200
 2237DOPG   GL248700  22.220  17.330  12.020
 2237DOPG   C1A48701  22.110  17.660  12.380
 2237DOPG   D2A48702  22.150  18.140  12.530
 2237DOPG   C3A48703  22.520  18.450  12.450
 2237DOPG   C4A48704  22.950  18.400  12.460
 2237DOPG   C1B48705  21.800  17.200  12.290
 2237DOPG   D2B48706  21.290  17.240  12.420
 2237DOPG   C3B48707  20.980  16.840  12.370
 2237DOPG   C4B48708  20.600  16.820  12.260
 2238DOPG   GL048709  13.950  26.350  23.190
 2238DOPG   PO448710  14.300  25.970  23.290
 2238DOPG   GL148711  14.480  25.630  22.940
 2238DOPG   GL248712  14.410  25.800  22.560
 2238DOPG   C1A48713  14.830  25.510  22.650
 2238DOPG   D2A48714  15.240  25.720  22.670
 2238DOPG   C3A48715  15.550  25.510  22.480
 2238DOPG   C4A48716  15.540  25.260  22.110
 2238DOPG   C1B48717  14.530  25.730  22.150
 2238DOPG   D2B48718  14.690  25.750  21.850
 2238DOPG   C3B48719  14.540  25.460  21.550
 2238DOPG   C4B48720  14.700  25.020  21.450
 2239DOPG   GL048721  19.240  14.030  14.150
 2239DOPG   PO448722  19.360  14.100  13.680
 2239DOPG   GL148723  19.400  14.450  13.850
 2239DOPG   GL248724  19.090  14.490  13.890
 2239DOPG   C1A48725  19.440  14.790  14.120
 2239DOPG   D2A48726  19.250  15.080  14.190
 2239DOPG   C3A48727  18.810  15.140  14.180
 2239DOPG   C4A48728  18.480  15.030  13.910
 2239DOPG   C1B48729  18.910  14.880  13.760
 2239DOPG   D2B48730  18.760  15.380  13.680
 2239DOPG   C3B48731  18.950  15.550  13.920
 2239DOPG   C4B48732  19.040  15.900  14.190
 2240DOPG   GL048733  14.000  24.190  16.840
 2240DOPG   PO448734  13.530  24.260  16.910
 2240DOPG   GL148735  13.660  23.850  16.860
 2240DOPG   GL248736  13.510  23.610  16.610
 2240DOPG   C1A48737  14.020  23.660  17.140
 2240DOPG   D2A48738  14.350  23.470  17.360
 2240DOPG   C3A48739  14.710  23.720  17.540
 2240DOPG   C4A48740  15.070  23.790  17.720
 2240DOPG   C1B48741  13.830  23.590  16.310
 2240DOPG   D2B48742  14.320  23.410  16.300
 2240DOPG   C3B48743  14.680  23.720  16.470
 2240DOPG   C4B48744  14.900  24.060  16.290
 2241DOPG   GL048745  24.300  20.000  13.630
 2241DOPG   PO448746  24.530  20.110  13.230
 2241DOPG   GL148747  24.040  20.140  13.140
 2241DOPG   GL248748  23.850  20.000  13.400
 2241DOPG   C1A48749  23.740  20.530  13.040
 2241DOPG   D2A48750  23.280  20.560  13.090
 2241DOPG   C3A48751  23.040  20.770  12.750
 2241DOPG   C4A48752  22.720  20.670  12.470
 2241DOPG   C1B48753  23.460  20.190  13.480
 2241DOPG   D2B48754  23.100  20.290  13.550
 2241DOPG   C3B48755  23.000  20.780  13.500
 2241DOPG   C4B48756  22.720  21.170  13.580
 2242DOPG   GL048757  15.790  12.050  12.770
 2242DOPG   PO448758  16.180  11.910  12.580
 2242DOPG   GL148759  15.940  11.500  12.630
 2242DOPG   GL248760  16.280  11.370  12.450
 2242DOPG   C1A48761  16.070  10.970  12.570
 2242DOPG   D2A48762  15.870  10.600  12.390
 2242DOPG   C3A48763  15.500  10.700  12.380
 2242DOPG   C4A48764  15.120  10.520  12.300
 2242DOPG   C1B48765  16.620  11.180  12.160
 2242DOPG   D2B48766  16.840  10.910  12.110
 2242DOPG   C3B48767  17.320  10.790  12.320
 2242DOPG   C4B48768  17.540  10.450  12.350
 2243DOPG   GL048769  20.410  19.270   7.010
 2243DOPG   PO448770  20.110  19.080   6.770
 2243DOPG   GL148771  19.890  19.390   6.970
 2243DOPG   GL248772  19.590  19.370   7.100
 2243DOPG   C1A48773  19.930  19.430   7.530
 2243DOPG   D2A48774  20.140  19.650   7.770
 2243DOPG   C3A48775  19.730  19.590   7.980
 2243DOPG   C4A48776  19.750  19.780   8.310
 2243DOPG   C1B48777  19.440  19.340   7.550
 2243DOPG   D2B48778  19.100  19.340   7.820
 2243DOPG   C3B48779  18.940  19.290   8.200
 2243DOPG   C4B48780  19.120  19.070   8.630
 2244DOPG   GL048781  24.570  33.040  15.560
 2244DOPG   PO448782  24.330  33.130  15.100
 2244DOPG   GL148783  24.150  32.700  15.140
 2244DOPG   GL248784  23.860  32.550  15.200
 2244DOPG   C1A48785  24.260  32.270  14.950
 2244DOPG   D2A48786  24.140  31.950  14.690
 2244DOPG   C3A48787  23.840  31.920  14.520
 2244DOPG   C4A48788  23.590  31.810  14.250
 2244DOPG   C1B48789  23.770  32.300  14.890
 2244DOPG   D2B48790  23.810  31.890  15.050
 2244DOPG   C3B48791  23.580  31.640  14.810
 2244DOPG   C4B48792  23.660  31.290  14.580
 2245DOPG   GL048793  15.630  25.730   7.850
 2245DOPG   PO448794  15.660  25.520   8.190
 2245DOPG   GL148795  15.490  25.460   8.560
 2245DOPG   GL248796  15.370  25.190   8.620
 2245DOPG   C1A48797  15.490  25.310   9.080
 2245DOPG   D2A48798  15.830  25.190   9.240
 2245DOPG   C3A48799  15.880  24.870   9.520
 2245DOPG   C4A48800  16.120  24.660   9.840
 2245DOPG   C1B48801  15.390  24.780   8.710
 2245DOPG   D2B48802  15.300  24.430   8.870
 2245DOPG   C3B48803  15.390  24.150   9.160
 2245DOPG   C4B48804  15.420  24.150   9.640
 2246DOPG   GL048805  15.820  18.880   0.680
 2246DOPG   PO448806  15.590  18.430   0.600
 2246DOPG   GL148807  15.610  18.410   1.030
 2246DOPG   GL248808  15.490  18.210   1.250
 2246DOPG   C1A48809  15.850  18.570   1.240
 2246DOPG   D2A48810  16.050  18.930   1.220
 2246DOPG   C3A48811  15.820  19.210   1.100
 2246DOPG   C4A48812  15.910  19.690   1.090
 2246DOPG   C1B48813  15.350  18.450   1.530
 2246DOPG   D2B48814  15.220  18.730   1.760
 2246DOPG   C3B48815  15.180  19.180   1.590
 2246DOPG   C4B48816  15.340  19.370   1.310
 2247DOPG   GL048817  30.630  22.370  13.570
 2247DOPG   PO448818  30.470  22.760  13.670
 2247DOPG   GL148819  30.120  23.020  13.780
 2247DOPG   GL248820  30.070  23.120  14.130
 2247DOPG   C1A48821  29.740  23.100  13.680
 2247DOPG   D2A48822  29.640  22.960  13.350
 2247DOPG   C3A48823  29.490  23.320  13.180
 2247DOPG   C4A48824  29.100  23.460  12.970
 2247DOPG   C1B48825  29.750  22.870  14.230
 2247DOPG   D2B48826  29.470  22.660  14.480
 2247DOPG   C3B48827  29.030  22.720  14.480
 2247DOPG   C4B48828  28.670  22.910  14.520
 2248DOPG   GL048829  10.580  16.740  18.460
 2248DOPG   PO448830  10.110  16.800  18.180
 2248DOPG   GL148831   9.730  16.620  18.490
 2248DOPG   GL248832   9.640  16.680  18.840
 2248DOPG   C1A48833   9.330  16.350  18.640
 2248DOPG   D2A48834   9.290  16.140  18.920
 2248DOPG   C3A48835   9.400  15.650  18.800
 2248DOPG   C4A48836   9.420  15.200  18.500
 2248DOPG   C1B48837   9.530  16.550  19.220
 2248DOPG   D2B48838   9.600  16.560  19.620
 2248DOPG   C3B48839   9.890  16.960  19.670
 2248DOPG   C4B48840  10.270  17.000  19.520
 2249DOPG   GL048841  19.540  17.540   7.110
 2249DOPG   PO448842  19.820  17.810   7.420
 2249DOPG   GL148843  19.710  18.150   7.700
 2249DOPG   GL248844  19.900  18.420   7.680
 2249DOPG   C1A48845  19.480  18.100   8.110
 2249DOPG   D2A48846  19.310  18.160   8.560
 2249DOPG   C3A48847  19.060  18.310   8.890
 2249DOPG   C4A48848  18.900  18.720   8.990
 2249DOPG   C1B48849  19.660  18.510   8.120
 2249DOPG   D2B48850  19.740  18.400   8.530
 2249DOPG   C3B48851  19.850  18.590   8.880
 2249DOPG   C4B48852  19.910  18.780   9.310
 2250DOPG   GL048853  25.000  21.770  23.120
 2250DOPG   PO448854  24.550  21.990  23.410
 2250DOPG   GL148855  24.440  21.790  22.990
 2250DOPG   GL248856  24.640  21.720  22.750
 2250DOPG   C1A48857  24.090  21.770  22.750
 2250DOPG   D2A48858  23.890  21.650  22.250
 2250DOPG   C3A48859  23.690  21.960  22.060
 2250DOPG   C4A48860  23.920  22.360  21.830
 2250DOPG   C1B48861  24.440  21.790  22.320
 2250DOPG   D2B48862  24.250  22.120  22.130
 2250DOPG   C3B48863  23.790  22.390  22.290
 2250DOPG   C4B48864  23.520  22.620  22.050
 2251DOPG   GL048865  20.120  20.690  20.110
 2251DOPG   PO448866  19.860  20.540  20.410
 2251DOPG   GL148867  20.070  20.580  20.750
 2251DOPG   GL248868  19.880  20.870  20.860
 2251DOPG   C1A48869  20.070  20.290  21.160
 2251DOPG   D2A48870  20.240  20.040  21.460
 2251DOPG   C3A48871  20.500  20.250  21.800
 2251DOPG   C4A48872  20.830  19.980  21.840
 2251DOPG   C1B48873  20.020  20.760  21.220
 2251DOPG   D2B48874  20.040  20.480  21.670
 2251DOPG   C3B48875  20.070  20.600  22.130
 2251DOPG   C4B48876  20.050  20.800  22.590
 2252DOPG   GL048877  18.570  15.500  17.430
 2252DOPG   PO448878  18.190  15.540  17.210
 2252DOPG   GL148879  18.120  15.770  16.830
 2252DOPG   GL248880  18.320  15.920  16.890
 2252DOPG   C1A48881  17.980  15.840  16.470
 2252DOPG   D2A48882  17.810  16.190  16.260
 2252DOPG   C3A48883  17.340  16.100  16.250
 2252DOPG   C4A48884  16.890  15.930  16.270
 2252DOPG   C1B48885  18.480  15.840  16.480
 2252DOPG   D2B48886  18.770  16.110  16.130
 2252DOPG   C3B48887  19.070  16.370  16.120
 2252DOPG   C4B48888  19.390  16.680  16.040
 2253DOPG   GL048889  15.510  13.240  12.260
 2253DOPG   PO448890  15.650  13.670  12.300
 2253DOPG   GL148891  15.660  13.980  12.050
 2253DOPG   GL248892  15.830  14.180  12.330
 2253DOPG   C1A48893  15.460  14.370  11.940
 2253DOPG   D2A48894  15.160  14.600  11.650
 2253DOPG   C3A48895  15.150  15.040  11.710
 2253DOPG   C4A48896  14.950  15.320  11.970
 2253DOPG   C1B48897  15.520  14.530  12.510
 2253DOPG   D2B48898  15.340  14.860  12.710
 2253DOPG   C3B48899  15.030  15.170  12.570
 2253DOPG   C4B48900  14.650  15.450  12.520
 2254DOPG   GL048901  20.370  22.920  20.270
 2254DOPG   PO448902  20.080  22.800  20.610
 2254DOPG   GL148903  20.470  22.780  20.800
 2254DOPG   GL248904  20.550  22.550  20.680
 2254DOPG   C1A48905  20.600  22.940  21.170
 2254DOPG   D2A48906  20.950  23.210  21.530
 2254DOPG   C3A48907  21.170  23.020  21.950
 2254DOPG   C4A48908  20.900  22.780  22.280
 2254DOPG   C1B48909  20.650  22.430  21.200
 2254DOPG   D2B48910  20.680  22.250  21.530
 2254DOPG   C3B48911  20.680  22.450  21.920
 2254DOPG   C4B48912  20.950  22.290  22.360
 2255DOPG   GL048913  20.290  21.720   6.520
 2255DOPG   PO448914  20.260  21.240   6.470
 2255DOPG   GL148915  20.340  21.270   6.900
 2255DOPG   GL248916  19.990  21.480   6.950
 2255DOPG   C1A48917  20.440  21.110   7.340
 2255DOPG   D2A48918  20.250  21.320   7.760
 2255DOPG   C3A48919  20.030  21.010   8.040
 2255DOPG   C4A48920  19.820  21.100   8.420
 2255DOPG   C1B48921  19.980  21.630   7.370
 2255DOPG   D2B48922  19.790  21.580   7.800
 2255DOPG   C3B48923  19.540  21.990   8.010
 2255DOPG   C4B48924  19.170  22.080   8.000
 2256DOPG   GL048925  13.710  18.570  18.320
 2256DOPG   PO448926  13.520  18.350  18.020
 2256DOPG   GL148927  13.480  18.640  17.600
 2256DOPG   GL248928  13.350  18.410  17.370
 2256DOPG   C1A48929  13.310  18.960  17.290
 2256DOPG   D2A48930  13.600  19.360  17.140
 2256DOPG   C3A48931  13.910  19.360  16.780
 2256DOPG   C4A48932  14.340  19.430  16.620
 2256DOPG   C1B48933  13.540  18.540  17.060
 2256DOPG   D2B48934  13.800  18.920  16.930
 2256DOPG   C3B48935  14.180  18.880  17.000
 2256DOPG   C4B48936  14.570  19.080  17.040
 2257DOPG   GL048937  10.210  21.180  14.170
 2257DOPG   PO448938  10.320  20.860  14.520
 2257DOPG   GL148939  10.670  20.670  14.290
 2257DOPG   GL248940  11.000  20.750  14.420
 2257DOPG   C1A48941  11.080  20.430  13.980
 2257DOPG   D2A48942  11.440  20.220  13.680
 2257DOPG   C3A48943  11.320  20.340  13.240
 2257DOPG   C4A48944  11.520  20.570  13.090
 2257DOPG   C1B48945  11.310  21.150  14.330
 2257DOPG   D2B48946  11.530  21.520  14.490
 2257DOPG   C3B48947  11.950  21.650  14.330
 2257DOPG   C4B48948  12.300  21.860  14.120
 2258DOPG   GL048949  19.670  25.320  19.040
 2258DOPG   PO448950  19.130  25.450  18.990
 2258DOPG   GL148951  19.290  25.310  18.630
 2258DOPG   GL248952  19.520  25.380  18.380
 2258DOPG   C1A48953  19.230  25.050  18.140
 2258DOPG   D2A48954  19.460  24.850  17.790
 2258DOPG   C3A48955  19.080  24.680  17.600
 2258DOPG   C4A48956  18.690  24.630  17.870
 2258DOPG   C1B48957  19.700  25.360  18.020
 2258DOPG   D2B48958  19.570  25.270  17.600
 2258DOPG   C3B48959  19.240  25.100  17.270
 2258DOPG   C4B48960  19.430  24.720  17.260
 2259DOPG   GL048961  16.680  22.520  19.140
 2259DOPG   PO448962  17.040  22.280  19.400
 2259DOPG   GL148963  17.070  22.150  19.020
 2259DOPG   GL248964  17.240  21.790  18.930
 2259DOPG   C1A48965  17.300  22.280  18.690
 2259DOPG   D2A48966  17.280  22.440  18.190
 2259DOPG   C3A48967  17.110  22.130  18.010
 2259DOPG   C4A48968  16.910  21.820  18.060
 2259DOPG   C1B48969  16.940  21.980  18.600
 2259DOPG   D2B48970  16.610  22.070  18.330
 2259DOPG   C3B48971  16.560  22.150  17.940
 2259DOPG   C4B48972  16.450  22.160  17.550
 2260DOPG   GL048973  23.240  16.650   3.870
 2260DOPG   PO448974  23.170  16.180   3.720
 2260DOPG   GL148975  23.250  16.240   4.110
 2260DOPG   GL248976  23.230  16.000   4.270
 2260DOPG   C1A48977  23.190  16.430   4.460
 2260DOPG   D2A48978  23.110  16.680   4.880
 2260DOPG   C3A48979  22.960  17.050   4.820
 2260DOPG   C4A48980  22.960  17.380   4.620
 2260DOPG   C1B48981  22.880  15.770   4.480
 2260DOPG   D2B48982  22.590  15.850   4.790
 2260DOPG   C3B48983  22.730  15.830   5.200
 2260DOPG   C4B48984  22.480  15.940   5.570
 2261DOPG   GL048985  17.070  14.500   7.320
 2261DOPG   PO448986  16.980  14.120   7.520
 2261DOPG   GL148987  17.030  13.730   7.300
 2261DOPG   GL248988  16.940  13.400   7.250
 2261DOPG   C1A48989  17.220  13.590   6.940
 2261DOPG   D2A48990  17.630  13.690   6.770
 2261DOPG   C3A48991  17.680  13.500   6.430
 2261DOPG   C4A48992  17.830  13.470   6.030
 2261DOPG   C1B48993  16.810  13.110   7.080
 2261DOPG   D2B48994  16.980  12.650   7.240
 2261DOPG   C3B48995  17.450  12.700   7.190
 2261DOPG   C4B48996  17.630  12.610   6.900
 2262DOPG   GL048997  22.520  25.970   8.910
 2262DOPG   PO448998  22.860  25.900   9.240
 2262DOPG   GL148999  22.620  25.670   9.720
 2262DOPG   GL249000  22.610  25.960   9.960
 2262DOPG   C1A49001  22.620  25.300   9.820
 2262DOPG   D2A49002  22.920  24.950   9.880
 2262DOPG   C3A49003  22.580  24.810  10.050
 2262DOPG   C4A49004  22.250  24.600  10.180
 2262DOPG   C1B49005  22.320  25.620  10.100
 2262DOPG   D2B49006  22.390  25.310  10.340
 2262DOPG   C3B49007  22.070  25.090  10.130
 2262DOPG   C4B49008  21.760  24.830   9.980
 2263DOPG   GL049009   4.550  23.880  12.710
 2263DOPG   PO449010   4.670  24.250  12.810
 2263DOPG   GL149011   5.040  24.000  12.840
 2263DOPG   GL249012   5.310  23.930  12.640
 2263DOPG   C1A49013   5.410  23.980  13.180
 2263DOPG   D2A49014   5.710  23.890  13.580
 2263DOPG   C3A49015   5.580  23.470  13.860
 2263DOPG   C4A49016   5.710  23.020  13.940
 2263DOPG   C1B49017   5.790  23.960  12.590
 2263DOPG   D2B49018   6.170  23.620  12.760
 2263DOPG   C3B49019   6.610  23.840  12.770
 2263DOPG   C4B49020   6.930  23.950  13.130
 2264DOPG   GL049021   9.180  20.990  15.320
 2264DOPG   PO449022   8.710  21.010  15.360
 2264DOPG   GL149023   8.380  20.690  15.430
 2264DOPG   GL249024   8.280  20.500  15.680
 2264DOPG   C1A49025   7.920  20.810  15.260
 2264DOPG   D2A49026   7.860  20.550  15.020
 2264DOPG   C3A49027   7.820  20.170  14.980
 2264DOPG   C4A49028   7.410  20.040  14.840
 2264DOPG   C1B49029   8.000  20.830  15.800
 2264DOPG   D2B49030   7.640  20.790  15.790
 2264DOPG   C3B49031   7.480  21.050  15.590
 2264DOPG   C4B49032   7.360  21.350  15.410
 2265DOPG   GL049033  10.230  21.690  11.690
 2265DOPG   PO449034  10.420  21.430  12.020
 2265DOPG   GL149035  10.630  21.130  12.190
 2265DOPG   GL249036  10.530  20.980  12.570
 2265DOPG   C1A49037  10.650  20.580  12.080
 2265DOPG   D2A49038  10.740  20.200  12.320
 2265DOPG   C3A49039  10.460  19.970  12.580
 2265DOPG   C4A49040  10.620  19.600  12.800
 2265DOPG   C1B49041  10.940  20.750  12.440
 2265DOPG   D2B49042  11.200  20.520  12.110
 2265DOPG   C3B49043  11.630  20.290  12.060
 2265DOPG   C4B49044  11.630  19.850  11.980
 2266DOPG   GL049045  17.860  24.580   6.510
 2266DOPG   PO449046  18.010  24.350   6.950
 2266DOPG   GL149047  17.820  24.390   7.340
 2266DOPG   GL249048  17.500  24.440   7.400
 2266DOPG   C1A49049  18.090  24.130   7.650
 2266DOPG   D2A49050  18.130  24.040   8.050
 2266DOPG   C3A49051  18.100  24.490   8.190
 2266DOPG   C4A49052  17.730  24.730   8.340
 2266DOPG   C1B49053  17.260  24.230   7.690
 2266DOPG   D2B49054  17.250  23.910   7.980
 2266DOPG   C3B49055  16.890  23.690   8.240
 2266DOPG   C4B49056  16.520  23.640   8.500
 2267DOPG   GL049057  14.900  25.970  16.950
 2267DOPG   PO449058  15.300  25.970  16.980
 2267DOPG   GL149059  15.590  26.050  16.670
 2267DOPG   GL249060  15.630  25.810  16.480
 2267DOPG   C1A49061  16.060  26.060  16.600
 2267DOPG   D2A49062  16.180  26.100  16.310
 2267DOPG   C3A49063  16.100  25.810  16.060
 2267DOPG   C4A49064  15.820  25.380  16.030
 2267DOPG   C1B49065  15.510  25.810  16.140
 2267DOPG   D2B49066  15.110  26.150  16.060
 2267DOPG   C3B49067  15.090  26.270  15.640
 2267DOPG   C4B49068  15.280  26.250  15.150
 2268DOPG   GL049069  20.580  26.840   8.140
 2268DOPG   PO449070  20.540  27.180   8.580
 2268DOPG   GL149071  20.380  26.900   8.920
 2268DOPG   GL249072  20.140  27.050   9.210
 2268DOPG   C1A49073  20.200  26.580   9.040
 2268DOPG   D2A49074  19.780  26.440   8.920
 2268DOPG   C3A49075  19.430  26.250   9.210
 2268DOPG   C4A49076  19.060  26.460   9.370
 2268DOPG   C1B49077  20.500  26.820   9.360
 2268DOPG   D2B49078  20.790  26.670   9.750
 2268DOPG   C3B49079  21.080  26.280   9.680
 2268DOPG   C4B49080  21.310  25.950   9.890
 2269DOPG   GL049081  26.910  24.850  14.790
 2269DOPG   PO449082  27.070  24.510  14.980
 2269DOPG   GL149083  27.440  24.640  15.060
 2269DOPG   GL249084  27.280  24.950  15.080
 2269DOPG   C1A49085  27.900  24.640  15.130
 2269DOPG   D2A49086  28.190  24.750  14.870
 2269DOPG   C3A49087  28.520  24.570  14.940
 2269DOPG   C4A49088  28.850  24.640  15.260
 2269DOPG   C1B49089  27.610  25.000  15.400
 2269DOPG   D2B49090  27.990  24.980  15.550
 2269DOPG   C3B49091  28.160  25.460  15.520
 2269DOPG   C4B49092  27.970  25.870  15.730
 2270DOPG   GL049093  17.940  27.010  18.790
 2270DOPG   PO449094  17.840  27.330  18.480
 2270DOPG   GL149095  17.760  27.430  18.910
 2270DOPG   GL249096  17.540  27.350  19.190
 2270DOPG   C1A49097  17.890  27.720  19.140
 2270DOPG   D2A49098  17.770  28.150  19.200
 2270DOPG   C3A49099  17.750  28.500  19.550
 2270DOPG   C4A49100  17.490  28.610  19.880
 2270DOPG   C1B49101  17.630  27.650  19.530
 2270DOPG   D2B49102  17.380  27.800  19.810
 2270DOPG   C3B49103  17.650  28.080  19.930
 2270DOPG   C4B49104  17.920  28.410  19.990
 2271DOPG   GL049105  18.220  17.430  18.480
 2271DOPG   PO449106  18.530  17.080  18.190
 2271DOPG   GL149107  18.670  17.190  17.820
 2271DOPG   GL249108  18.690  16.940  17.530
 2271DOPG   C1A49109  18.750  17.410  17.420
 2271DOPG   D2A49110  18.550  17.450  17.100
 2271DOPG   C3A49111  18.680  17.680  16.700
 2271DOPG   C4A49112  19.010  17.950  16.530
 2271DOPG   C1B49113  18.370  17.010  17.290
 2271DOPG   D2B49114  18.130  17.190  16.990
 2271DOPG   C3B49115  17.910  17.020  16.590
 2271DOPG   C4B49116  17.880  16.720  16.380
 2272DOPG   GL049117  15.890  22.370  19.660
 2272DOPG   PO449118  16.210  22.590  19.280
 2272DOPG   GL149119  16.150  22.700  18.850
 2272DOPG   GL249120  16.190  22.960  18.620
 2272DOPG   C1A49121  15.850  22.580  18.600
 2272DOPG   D2A49122  15.620  22.410  18.190
 2272DOPG   C3A49123  15.920  22.110  17.910
 2272DOPG   C4A49124  15.920  22.030  17.520
 2272DOPG   C1B49125  16.050  22.900  18.220
 2272DOPG   D2B49126  16.200  22.560  17.960
 2272DOPG   C3B49127  16.690  22.600  18.060
 2272DOPG   C4B49128  16.960  22.950  18.070
 2273DOPG   GL049129  13.700  26.300  11.840
 2273DOPG   PO449130  13.440  26.290  11.480
 2273DOPG   GL149131  13.930  26.060  11.480
 2273DOPG   GL249132  14.020  25.860  11.820
 2273DOPG   C1A49133  14.390  25.910  11.490
 2273DOPG   D2A49134  14.780  25.800  11.420
 2273DOPG   C3A49135  14.710  25.440  11.250
 2273DOPG   C4A49136  14.540  24.990  11.380
 2273DOPG   C1B49137  14.250  25.360  11.770
 2273DOPG   D2B49138  14.310  24.990  11.880
 2273DOPG   C3B49139  14.160  24.600  12.030
 2273DOPG   C4B49140  14.180  24.350  12.430
 2274DOPG   GL049141  23.910  22.030   9.480
 2274DOPG   PO449142  23.810  21.570   9.530
 2274DOPG   GL149143  23.750  21.500   9.990
 2274DOPG   GL249144  23.660  21.170  10.160
 2274DOPG   C1A49145  23.600  21.640  10.340
 2274DOPG   D2A49146  23.640  21.790  10.720
 2274DOPG   C3A49147  23.410  21.770  11.050
 2274DOPG   C4A49148  22.940  21.790  11.260
 2274DOPG   C1B49149  23.220  21.230  10.290
 2274DOPG   D2B49150  23.020  21.050  10.710
 2274DOPG   C3B49151  22.960  21.040  11.120
 2274DOPG   C4B49152  22.860  20.870  11.620
 2275DOPG   GL049153  12.500  14.670  18.280
 2275DOPG   PO449154  12.780  14.890  17.950
 2275DOPG   GL149155  12.920  14.420  18.160
 2275DOPG   GL249156  13.300  14.230  18.280
 2275DOPG   C1A49157  12.740  14.320  18.510
 2275DOPG   D2A49158  12.350  14.240  18.540
 2275DOPG   C3A49159  12.240  14.200  18.920
 2275DOPG   C4A49160  12.410  14.010  19.320
 2275DOPG   C1B49161  13.030  13.840  18.550
 2275DOPG   D2B49162  12.730  13.500  18.850
 2275DOPG   C3B49163  12.330  13.640  18.840
 2275DOPG   C4B49164  11.870  13.680  18.650
 2276DOPG   GL049165  15.690  17.450   8.420
 2276DOPG   PO449166  16.010  17.650   8.180
 2276DOPG   GL149167  16.180  17.880   8.470
 2276DOPG   GL249168  16.520  17.790   8.630
 2276DOPG   C1A49169  16.120  18.180   8.680
 2276DOPG   D2A49170  16.200  18.100   9.110
 2276DOPG   C3A49171  16.480  18.220   9.390
 2276DOPG   C4A49172  16.750  17.940   9.630
 2276DOPG   C1B49173  16.740  17.880   9.070
 2276DOPG   D2B49174  17.120  17.990   9.280
 2276DOPG   C3B49175  17.450  17.970   9.480
 2276DOPG   C4B49176  17.530  18.130  10.000
 2277DOPG   GL049177  18.260   8.980  18.330
 2277DOPG   PO449178  18.050   9.350  18.340
 2277DOPG   GL149179  17.950   9.740  18.340
 2277DOPG   GL249180  18.290   9.890  18.450
 2277DOPG   C1A49181  17.880  10.050  18.060
 2277DOPG   D2A49182  17.880  10.400  17.760
 2277DOPG   C3A49183  17.820  10.800  17.590
 2277DOPG   C4A49184  17.900  11.180  17.710
 2277DOPG   C1B49185  18.350  10.390  18.250
 2277DOPG   D2B49186  18.270  10.840  17.980
 2277DOPG   C3B49187  18.500  10.980  17.660
 2277DOPG   C4B49188  18.650  11.050  17.230
 2278DOPG   GL049189  30.220  26.680  13.210
 2278DOPG   PO449190  29.910  26.790  13.580
 2278DOPG   GL149191  29.590  26.540  13.680
 2278DOPG   GL249192  29.720  26.320  13.980
 2278DOPG   C1A49193  29.080  26.490  13.690
 2278DOPG   D2A49194  28.550  26.660  13.680
 2278DOPG   C3A49195  28.350  26.680  13.320
 2278DOPG   C4A49196  28.410  27.060  13.130
 2278DOPG   C1B49197  29.400  26.010  13.930
 2278DOPG   D2B49198  29.060  25.770  13.700
 2278DOPG   C3B49199  28.830  26.020  13.880
 2278DOPG   C4B49200  28.440  26.180  13.790
 2279DOPG   GL049201  17.670  14.610  10.690
 2279DOPG   PO449202  17.710  15.070  10.840
 2279DOPG   GL149203  17.630  15.430  10.760
 2279DOPG   GL249204  17.270  15.470  10.830
 2279DOPG   C1A49205  17.350  15.800  10.490
 2279DOPG   D2A49206  17.250  16.210  10.330
 2279DOPG   C3A49207  16.960  16.630  10.600
 2279DOPG   C4A49208  16.630  16.600  10.870
 2279DOPG   C1B49209  17.520  15.800  11.090
 2279DOPG   D2B49210  17.690  15.950  11.470
 2279DOPG   C3B49211  17.500  16.280  11.770
 2279DOPG   C4B49212  17.290  16.650  12.120
 2280DOPG   GL049213  13.620  22.850  17.480
 2280DOPG   PO449214  13.880  23.140  17.850
 2280DOPG   GL149215  14.300  23.090  17.630
 2280DOPG   GL249216  14.020  23.060  17.360
 2280DOPG   C1A49217  14.500  22.920  17.290
 2280DOPG   D2A49218  14.830  22.790  16.940
 2280DOPG   C3A49219  14.820  22.570  16.570
 2280DOPG   C4A49220  14.960  22.380  16.150
 2280DOPG   C1B49221  14.200  23.170  16.990
 2280DOPG   D2B49222  14.480  22.980  16.680
 2280DOPG   C3B49223  14.870  23.240  16.540
 2280DOPG   C4B49224  15.200  23.520  16.750
 2281DOPG   GL049225  22.960  26.280  17.590
 2281DOPG   PO449226  22.600  26.220  17.310
 2281DOPG   GL149227  22.270  26.120  17.050
 2281DOPG   GL249228  22.400  26.230  16.820
 2281DOPG   C1A49229  21.910  25.850  16.900
 2281DOPG   D2A49230  21.570  25.600  16.710
 2281DOPG   C3A49231  21.480  25.290  16.390
 2281DOPG   C4A49232  21.480  25.080  16.130
 2281DOPG   C1B49233  22.430  25.940  16.540
 2281DOPG   D2B49234  22.060  25.670  16.240
 2281DOPG   C3B49235  21.920  25.290  16.160
 2281DOPG   C4B49236  22.110  24.960  15.910
 2282DOPG   GL049237  21.790  25.310  18.990
 2282DOPG   PO449238  21.760  25.240  18.540
 2282DOPG   GL149239  21.470  25.060  18.270
 2282DOPG   GL249240  21.120  25.020  18.530
 2282DOPG   C1A49241  21.480  24.880  17.940
 2282DOPG   D2A49242  21.640  24.450  17.670
 2282DOPG   C3A49243  21.400  24.140  17.500
 2282DOPG   C4A49244  21.120  23.950  17.180
 2282DOPG   C1B49245  20.970  24.900  18.110
 2282DOPG   D2B49246  20.950  24.990  17.660
 2282DOPG   C3B49247  20.650  25.380  17.520
 2282DOPG   C4B49248  20.370  25.360  17.180
 2283DOPG   GL049249  11.490  17.010  16.650
 2283DOPG   PO449250  11.280  17.230  16.340
 2283DOPG   GL149251  11.200  17.210  15.990
 2283DOPG   GL249252  11.050  17.500  15.730
 2283DOPG   C1A49253  11.210  17.020  15.530
 2283DOPG   D2A49254  11.120  16.950  15.110
 2283DOPG   C3A49255  11.160  16.670  14.870
 2283DOPG   C4A49256  10.810  16.570  14.720
 2283DOPG   C1B49257  11.280  17.500  15.370
 2283DOPG   D2B49258  11.620  17.340  15.250
 2283DOPG   C3B49259  11.820  17.290  14.710
 2283DOPG   C4B49260  11.870  17.110  14.250
 2284DOPG   GL049261  12.860  19.680  18.300
 2284DOPG   PO449262  12.800  19.570  17.960
 2284DOPG   GL149263  12.760  19.790  17.470
 2284DOPG   GL249264  12.610  20.130  17.340
 2284DOPG   C1A49265  12.670  19.740  17.030
 2284DOPG   D2A49266  12.550  19.430  16.680
 2284DOPG   C3A49267  12.630  19.410  16.240
 2284DOPG   C4A49268  12.590  19.540  15.970
 2284DOPG   C1B49269  12.670  20.250  16.870
 2284DOPG   D2B49270  12.810  20.580  16.550
 2284DOPG   C3B49271  12.880  20.400  16.170
 2284DOPG   C4B49272  12.790  19.980  16.040
 2285DOPG   GL049273  17.160  14.020  11.750
 2285DOPG   PO449274  17.450  14.260  11.770
 2285DOPG   GL149275  17.370  14.590  11.690
 2285DOPG   GL249276  17.050  14.590  11.610
 2285DOPG   C1A49277  17.440  14.970  11.760
 2285DOPG   D2A49278  17.550  15.370  11.720
 2285DOPG   C3A49279  17.540  15.700  12.100
 2285DOPG   C4A49280  17.730  16.150  12.330
 2285DOPG   C1B49281  16.710  14.910  11.640
 2285DOPG   D2B49282  16.390  15.110  11.240
 2285DOPG   C3B49283  16.070  15.420  11.310
 2285DOPG   C4B49284  15.910  15.850  11.260
 2286DOPG   GL049285  23.850  18.330   3.430
 2286DOPG   PO449286  23.900  18.670   3.270
 2286DOPG   GL149287  23.780  18.850   3.690
 2286DOPG   GL249288  23.980  19.160   3.660
 2286DOPG   C1A49289  23.820  18.600   4.030
 2286DOPG   D2A49290  24.290  18.520   4.270
 2286DOPG   C3A49291  24.370  18.790   4.760
 2286DOPG   C4A49292  24.400  18.780   5.180
 2286DOPG   C1B49293  23.670  19.190   4.030
 2286DOPG   D2B49294  23.540  18.880   4.340
 2286DOPG   C3B49295  23.290  18.750   4.700
 2286DOPG   C4B49296  23.210  18.970   5.090
 2287DOPG   GL049297  22.770  17.550  10.160
 2287DOPG   PO449298  22.540  17.930  10.110
 2287DOPG   GL149299  22.140  17.930  10.400
 2287DOPG   GL249300  21.940  18.060  10.260
 2287DOPG   C1A49301  21.880  18.220  10.730
 2287DOPG   D2A49302  21.540  18.140  10.950
 2287DOPG   C3A49303  21.220  18.420  11.150
 2287DOPG   C4A49304  20.940  18.830  11.080
 2287DOPG   C1B49305  21.960  18.390   9.990
 2287DOPG   D2B49306  21.790  18.720   9.990
 2287DOPG   C3B49307  21.400  18.820  10.210
 2287DOPG   C4B49308  20.950  18.720  10.190
 2288DOPG   GL049309   9.840  22.130   9.720
 2288DOPG   PO449310   9.590  21.830   9.900
 2288DOPG   GL149311   9.160  21.860   9.670
 2288DOPG   GL249312   9.020  21.670   9.940
 2288DOPG   C1A49313   8.700  21.980   9.660
 2288DOPG   D2A49314   8.300  21.940   9.410
 2288DOPG   C3A49315   8.350  21.660   9.080
 2288DOPG   C4A49316   8.360  21.300   8.940
 2288DOPG   C1B49317   8.680  21.570   9.860
 2288DOPG   D2B49318   8.250  21.540   9.720
 2288DOPG   C3B49319   8.160  21.210   9.890
 2288DOPG   C4B49320   7.960  20.920   9.880
 2289DOPG   GL049321  16.530  28.300  10.440
 2289DOPG   PO449322  16.720  28.590  10.800
 2289DOPG   GL149323  17.040  28.280  10.590
 2289DOPG   GL249324  17.170  28.250  10.860
 2289DOPG   C1A49325  17.520  28.240  10.550
 2289DOPG   D2A49326  17.690  27.930  10.270
 2289DOPG   C3A49327  18.030  27.650  10.350
 2289DOPG   C4A49328  18.120  27.390  10.670
 2289DOPG   C1B49329  17.160  27.850  11.180
 2289DOPG   D2B49330  17.260  27.570  11.500
 2289DOPG   C3B49331  17.610  27.250  11.360
 2289DOPG   C4B49332  17.930  26.840  11.220
 2290DOPG   GL049333  23.270  19.450  10.730
 2290DOPG   PO449334  23.500  19.090  10.790
 2290DOPG   GL149335  23.400  19.270  11.220
 2290DOPG   GL249336  23.120  19.170  11.370
 2290DOPG   C1A49337  23.240  19.670  11.250
 2290DOPG   D2A49338  23.360  19.950  11.040
 2290DOPG   C3A49339  23.140  20.340  11.000
 2290DOPG   C4A49340  23.080  20.540  10.680
 2290DOPG   C1B49341  22.880  19.320  11.030
 2290DOPG   D2B49342  22.730  19.420  10.700
 2290DOPG   C3B49343  22.530  19.730  10.620
 2290DOPG   C4B49344  22.610  20.140  10.630
 2291DOPG   GL049345  20.540  20.240  19.450
 2291DOPG   PO449346  21.030  20.050  19.280
 2291DOPG   GL149347  20.800  20.270  18.980
 2291DOPG   GL249348  20.950  20.560  18.920
 2291DOPG   C1A49349  20.920  20.230  18.540
 2291DOPG   D2A49350  20.890  20.000  18.160
 2291DOPG   C3A49351  20.710  19.860  17.870
 2291DOPG   C4A49352  20.590  19.720  17.430
 2291DOPG   C1B49353  20.650  20.780  18.760
 2291DOPG   D2B49354  20.530  21.210  18.770
 2291DOPG   C3B49355  20.120  21.230  18.680
 2291DOPG   C4B49356  19.700  20.990  18.630
 2292DOPG   GL049357  19.780  14.690  15.230
 2292DOPG   PO449358  19.860  14.720  15.630
 2292DOPG   GL149359  19.490  15.000  15.500
 2292DOPG   GL249360  19.380  15.190  15.760
 2292DOPG   C1A49361  19.190  15.280  15.190
 2292DOPG   D2A49362  19.020  15.620  14.910
 2292DOPG   C3A49363  18.920  15.510  14.480
 2292DOPG   C4A49364  18.490  15.500  14.340
 2292DOPG   C1B49365  19.340  15.600  15.840
 2292DOPG   D2B49366  19.140  15.940  15.720
 2292DOPG   C3B49367  19.320  16.290  15.630
 2292DOPG   C4B49368  19.400  16.720  15.560
 2293DOPG   GL049369  19.940  28.350  16.770
 2293DOPG   PO449370  19.760  28.050  16.450
 2293DOPG   GL149371  19.800  27.660  16.190
 2293DOPG   GL249372  20.090  27.520  16.210
 2293DOPG   C1A49373  19.770  27.360  15.790
 2293DOPG   D2A49374  19.480  27.070  15.810
 2293DOPG   C3A49375  18.970  27.090  15.740
 2293DOPG   C4A49376  18.630  26.980  15.440
 2293DOPG   C1B49377  20.300  27.170  15.880
 2293DOPG   D2B49378  20.070  26.840  15.690
 2293DOPG   C3B49379  20.310  26.550  15.490
 2293DOPG   C4B49380  20.590  26.500  15.210
 2294DOPG   GL049381   7.950  28.100   8.910
 2294DOPG   PO449382   8.050  28.100   9.280
 2294DOPG   GL149383   8.440  27.840   9.540
 2294DOPG   GL249384   8.690  27.700   9.330
 2294DOPG   C1A49385   8.580  27.720   9.900
 2294DOPG   D2A49386   8.550  27.540  10.290
 2294DOPG   C3A49387   8.860  27.200  10.360
 2294DOPG   C4A49388   9.270  27.110  10.360
 2294DOPG   C1B49389   9.020  27.560   9.500
 2294DOPG   D2B49390   9.510  27.630   9.430
 2294DOPG   C3B49391   9.530  27.970   9.140
 2294DOPG   C4B49392   9.330  28.240   8.770
 2295DOPG   GL049393   7.900  27.150   7.780
 2295DOPG   PO449394   8.290  27.220   7.880
 2295DOPG   GL149395   8.600  27.060   8.060
 2295DOPG   GL249396   8.710  26.840   7.890
 2295DOPG   C1A49397   8.770  26.990   8.390
 2295DOPG   D2A49398   9.050  26.780   8.690
 2295DOPG   C3A49399   9.150  26.640   9.150
 2295DOPG   C4A49400   9.520  26.320   9.290
 2295DOPG   C1B49401   8.970  26.570   8.160
 2295DOPG   D2B49402   9.130  26.210   8.400
 2295DOPG   C3B49403   9.580  26.050   8.390
 2295DOPG   C4B49404   9.760  26.080   8.870
 2296DOPG   GL049405  22.600  17.650  17.820
 2296DOPG   PO449406  22.440  17.200  17.980
 2296DOPG   GL149407  22.650  17.330  18.320
 2296DOPG   GL249408  22.910  17.190  18.220
 2296DOPG   C1A49409  22.680  17.080  18.610
 2296DOPG   D2A49410  22.470  17.010  18.980
 2296DOPG   C3A49411  22.490  16.630  19.170
 2296DOPG   C4A49412  22.300  16.430  19.540
 2296DOPG   C1B49413  23.010  16.760  18.430
 2296DOPG   D2B49414  22.890  16.700  18.840
 2296DOPG   C3B49415  22.980  16.400  19.190
 2296DOPG   C4B49416  22.830  16.300  19.600
 2297DOPG   GL049417   9.210  14.900  13.310
 2297DOPG   PO449418   8.970  15.320  13.390
 2297DOPG   GL149419   9.340  15.240  13.620
 2297DOPG   GL249420   9.220  14.900  13.820
 2297DOPG   C1A49421   9.630  15.390  13.890
 2297DOPG   D2A49422   9.860  15.500  14.280
 2297DOPG   C3A49423  10.080  15.540  14.650
 2297DOPG   C4A49424  10.240  15.720  14.970
 2297DOPG   C1B49425   9.530  14.920  14.150
 2297DOPG   D2B49426   9.770  15.080  14.540
 2297DOPG   C3B49427   9.600  15.280  14.810
 2297DOPG   C4B49428   9.850  15.410  15.100
 2298DOPG   GL049429   9.830  20.320  13.340
 2298DOPG   PO449430   9.820  20.490  13.720
 2298DOPG   GL149431   9.670  20.040  13.770
 2298DOPG   GL249432   9.300  20.050  13.870
 2298DOPG   C1A49433   9.570  19.660  13.980
 2298DOPG   D2A49434   9.260  19.240  14.090
 2298DOPG   C3A49435   9.210  19.070  13.650
 2298DOPG   C4A49436   9.300  19.010  13.260
 2298DOPG   C1B49437   9.260  19.710  13.510
 2298DOPG   D2B49438   8.960  19.430  13.330
 2298DOPG   C3B49439   8.740  19.100  13.530
 2298DOPG   C4B49440   8.860  18.920  13.960
 2299DOPG   GL049441   9.960  24.500   4.020
 2299DOPG   PO449442  10.120  24.710   4.370
 2299DOPG   GL149443  10.220  24.500   4.700
 2299DOPG   GL249444  10.020  24.160   4.480
 2299DOPG   C1A49445  10.580  24.160   4.900
 2299DOPG   D2A49446  10.920  24.260   5.280
 2299DOPG   C3A49447  10.630  24.120   5.620
 2299DOPG   C4A49448  10.370  24.440   5.860
 2299DOPG   C1B49449  10.000  24.090   4.940
 2299DOPG   D2B49450   9.910  23.950   5.370
 2299DOPG   C3B49451  10.170  23.970   5.730
 2299DOPG   C4B49452  10.500  24.070   6.110
 2300DOPG   GL049453  24.200  22.550  17.970
 2300DOPG   PO449454  24.210  22.540  18.450
 2300DOPG   GL149455  24.540  22.730  18.590
 2300DOPG   GL249456  24.760  22.480  18.730
 2300DOPG   C1A49457  24.750  22.880  19.030
 2300DOPG   D2A49458  24.910  22.730  19.420
 2300DOPG   C3A49459  24.770  22.620  19.860
 2300DOPG   C4A49460  24.750  22.730  20.280
 2300DOPG   C1B49461  24.890  22.370  19.100
 2300DOPG   D2B49462  25.110  22.270  19.620
 2300DOPG   C3B49463  25.280  22.640  19.800
 2300DOPG   C4B49464  25.170  22.910  20.000
 2301DOPG   GL049465  14.340  18.090   7.930
 2301DOPG   PO449466  14.290  18.120   8.390
 2301DOPG   GL149467  14.620  17.960   8.800
 2301DOPG   GL249468  14.980  17.740   8.710
 2301DOPG   C1A49469  14.610  18.030   9.270
 2301DOPG   D2A49470  14.430  18.430   9.390
 2301DOPG   C3A49471  14.300  18.780   9.210
 2301DOPG   C4A49472  13.910  19.020   9.100
 2301DOPG   C1B49473  15.050  17.950   9.140
 2301DOPG   D2B49474  14.890  18.000   9.650
 2301DOPG   C3B49475  14.950  18.070  10.180
 2301DOPG   C4B49476  14.820  18.510  10.440
 2302DOPG   GL049477  15.080  17.630   7.850
 2302DOPG   PO449478  14.800  17.960   7.890
 2302DOPG   GL149479  15.150  18.080   8.230
 2302DOPG   GL249480  15.310  17.820   8.300
 2302DOPG   C1A49481  15.140  18.200   8.660
 2302DOPG   D2A49482  15.250  18.430   9.070
 2302DOPG   C3A49483  15.500  18.650   9.310
 2302DOPG   C4A49484  15.630  18.840   9.640
 2302DOPG   C1B49485  15.550  17.930   8.640
 2302DOPG   D2B49486  15.640  18.020   8.980
 2302DOPG   C3B49487  15.780  18.440   8.940
 2302DOPG   C4B49488  16.160  18.620   9.020
 2303DOPG   GL049489  15.820  18.170   8.170
 2303DOPG   PO449490  15.610  18.460   8.160
 2303DOPG   GL149491  16.060  18.590   8.260
 2303DOPG   GL249492  16.050  18.680   7.930
 2303DOPG   C1A49493  16.410  18.580   8.560
 2303DOPG   D2A49494  16.590  18.350   8.940
 2303DOPG   C3A49495  16.870  18.470   9.260
 2303DOPG   C4A49496  17.290  18.520   9.320
 2303DOPG   C1B49497  16.250  19.030   7.750
 2303DOPG   D2B49498  16.510  19.300   7.600
 2303DOPG   C3B49499  16.550  19.470   8.010
 2303DOPG   C4B49500  16.600  19.680   8.290
 2304DOPG   GL049501  16.820  14.690  17.930
 2304DOPG   PO449502  17.190  14.360  18.050
 2304DOPG   GL149503  17.120  13.950  18.280
 2304DOPG   GL249504  16.930  13.760  18.130
 2304DOPG   C1A49505  17.280  13.610  18.490
 2304DOPG   D2A49506  17.280  13.170  18.550
 2304DOPG   C3A49507  17.440  13.120  18.880
 2304DOPG   C4A49508  17.820  13.210  18.920
 2304DOPG   C1B49509  16.850  13.380  18.340
 2304DOPG   D2B49510  16.680  13.110  18.570
 2304DOPG   C3B49511  16.970  12.810  18.810
 2304DOPG   C4B49512  17.120  12.400  18.860
 2305DOPG   GL049513  11.390  17.730  17.170
 2305DOPG   PO449514  11.630  17.440  16.950
 2305DOPG   GL149515  11.760  17.450  16.390
 2305DOPG   GL249516  11.600  17.590  16.090
 2305DOPG   C1A49517  12.100  17.490  16.080
 2305DOPG   D2A49518  12.180  17.550  15.700
 2305DOPG   C3A49519  12.610  17.680  15.490
 2305DOPG   C4A49520  12.930  17.790  15.710
 2305DOPG   C1B49521  11.590  17.570  15.700
 2305DOPG   D2B49522  11.810  17.780  15.400
 2305DOPG   C3B49523  12.080  17.500  15.220
 2305DOPG   C4B49524  12.430  17.580  14.960
 2306DOPG   GL049525  12.360  16.230  16.110
 2306DOPG   PO449526  12.520  15.870  15.920
 2306DOPG   GL149527  12.300  16.160  15.590
 2306DOPG   GL249528  12.560  16.280  15.660
 2306DOPG   C1A49529  12.520  16.210  15.190
 2306DOPG   D2A49530  12.320  16.360  14.870
 2306DOPG   C3A49531  11.900  16.520  14.920
 2306DOPG   C4A49532  11.470  16.320  15.080
 2306DOPG   C1B49533  12.310  16.590  15.380
 2306DOPG   D2B49534  12.350  16.840  14.990
 2306DOPG   C3B49535  12.120  16.870  14.640
 2306DOPG   C4B49536  12.260  17.350  14.500
 2307DOPG   GL049537  25.300  24.090  15.900
 2307DOPG   PO449538  25.280  24.370  15.670
 2307DOPG   GL149539  24.850  24.100  15.570
 2307DOPG   GL249540  24.680  24.230  15.880
 2307DOPG   C1A49541  24.650  23.810  15.220
 2307DOPG   D2A49542  24.240  23.810  15.100
 2307DOPG   C3A49543  23.920  24.210  15.110
 2307DOPG   C4A49544  23.430  24.040  15.270
 2307DOPG   C1B49545  24.320  24.400  15.750
 2307DOPG   D2B49546  23.880  24.360  15.640
 2307DOPG   C3B49547  23.620  24.410  15.980
 2307DOPG   C4B49548  23.440  24.050  16.070
 2308DOPG   GL049549  24.730  25.290  12.150
 2308DOPG   PO449550  24.850  25.200  12.470
 2308DOPG   GL149551  24.940  25.020  12.770
 2308DOPG   GL249552  24.880  24.720  12.750
 2308DOPG   C1A49553  24.840  24.920  13.260
 2308DOPG   D2A49554  24.950  24.600  13.500
 2308DOPG   C3A49555  24.750  24.200  13.480
 2308DOPG   C4A49556  24.480  23.870  13.640
 2308DOPG   C1B49557  24.600  24.510  12.970
 2308DOPG   D2B49558  24.180  24.370  13.090
 2308DOPG   C3B49559  23.790  24.280  12.910
 2308DOPG   C4B49560  23.490  24.680  12.690
 2309DOPG   GL049561  15.560  16.440  17.810
 2309DOPG   PO449562  15.950  16.240  17.670
 2309DOPG   GL149563  16.010  16.570  17.340
 2309DOPG   GL249564  15.790  16.710  17.060
 2309DOPG   C1A49565  16.310  16.730  17.080
 2309DOPG   D2A49566  16.560  16.980  16.800
 2309DOPG   C3A49567  16.530  17.380  16.420
 2309DOPG   C4A49568  16.140  17.820  16.390
 2309DOPG   C1B49569  15.890  17.130  16.940
 2309DOPG   D2B49570  16.060  17.340  16.610
 2309DOPG   C3B49571  16.250  17.590  16.880
 2309DOPG   C4B49572  16.110  17.940  17.030
 2310DOPG   GL049573  12.700  14.540  15.780
 2310DOPG   PO449574  12.540  14.910  15.600
 2310DOPG   GL149575  12.660  15.090  15.210
 2310DOPG   GL249576  12.510  14.980  15.120
 2310DOPG   C1A49577  12.740  15.190  14.780
 2310DOPG   D2A49578  12.930  15.580  14.580
 2310DOPG   C3A49579  12.840  15.550  14.100
 2310DOPG   C4A49580  12.700  15.350  13.780
 2310DOPG   C1B49581  12.710  14.690  14.700
 2310DOPG   D2B49582  12.520  14.650  14.170
 2310DOPG   C3B49583  12.790  14.880  13.830
 2310DOPG   C4B49584  12.960  15.110  13.390
 2311DOPG   GL049585  16.340  28.930  14.080
 2311DOPG   PO449586  16.150  28.550  14.280
 2311DOPG   GL149587  16.220  28.030  14.190
 2311DOPG   GL249588  16.080  27.910  14.440
 2311DOPG   C1A49589  16.350  27.660  13.990
 2311DOPG   D2A49590  16.600  27.340  13.720
 2311DOPG   C3A49591  16.280  27.020  13.690
 2311DOPG   C4A49592  16.400  26.640  13.460
 2311DOPG   C1B49593  16.290  27.500  14.470
 2311DOPG   D2B49594  16.430  27.160  14.140
 2311DOPG   C3B49595  16.510  26.830  14.250
 2311DOPG   C4B49596  16.600  26.590  13.960
 2312DOPG   GL049597  13.700  13.070   3.740
 2312DOPG   PO449598  13.250  12.800   3.520
 2312DOPG   GL149599  13.280  13.080   4.010
 2312DOPG   GL249600  13.520  13.050   4.350
 2312DOPG   C1A49601  13.290  13.470   4.240
 2312DOPG   D2A49602  13.250  13.810   4.100
 2312DOPG   C3A49603  13.420  14.210   4.170
 2312DOPG   C4A49604  13.550  14.480   4.550
 2312DOPG   C1B49605  13.770  13.370   4.340
 2312DOPG   D2B49606  13.740  13.730   4.290
 2312DOPG   C3B49607  14.050  14.090   4.290
 2312DOPG   C4B49608  14.300  14.260   4.520
 2313DOPG   GL049609  20.300  21.160  12.680
 2313DOPG   PO449610  20.570  21.190  12.310
 2313DOPG   GL149611  20.950  21.110  12.080
 2313DOPG   GL249612  20.830  20.780  11.920
 2313DOPG   C1A49613  21.260  21.060  11.630
 2313DOPG   D2A49614  21.490  20.830  11.440
 2313DOPG   C3A49615  21.830  21.010  11.220
 2313DOPG   C4A49616  22.080  20.950  10.940
 2313DOPG   C1B49617  21.220  20.590  12.010
 2313DOPG   D2B49618  21.570  20.410  11.770
 2313DOPG   C3B49619  21.720  20.010  11.820
 2313DOPG   C4B49620  21.340  19.710  11.910
 2314DOPG   GL049621  21.090  24.250  14.470
 2314DOPG   PO449622  21.510  24.250  14.610
 2314DOPG   GL149623  21.820  24.510  14.790
 2314DOPG   GL249624  21.550  24.910  14.860
 2314DOPG   C1A49625  22.090  24.800  15.000
 2314DOPG   D2A49626  22.110  24.880  15.440
 2314DOPG   C3A49627  22.460  24.790  15.620
 2314DOPG   C4A49628  22.840  24.620  15.620
 2314DOPG   C1B49629  21.850  25.250  14.970
 2314DOPG   D2B49630  22.120  25.690  15.050
 2314DOPG   C3B49631  21.910  26.030  15.280
 2314DOPG   C4B49632  22.050  26.430  15.440
 2315DOPG   GL049633  16.550  10.830  20.660
 2315DOPG   PO449634  16.960  10.660  20.730
 2315DOPG   GL149635  17.060  11.070  20.540
 2315DOPG   GL249636  17.070  11.290  20.700
 2315DOPG   C1A49637  17.240  11.320  20.180
 2315DOPG   D2A49638  17.270  11.810  20.110
 2315DOPG   C3A49639  17.210  12.050  19.710
 2315DOPG   C4A49640  17.300  12.260  19.280
 2315DOPG   C1B49641  16.780  11.530  20.510
 2315DOPG   D2B49642  16.690  11.500  20.090
 2315DOPG   C3B49643  17.020  11.560  19.770
 2315DOPG   C4B49644  17.540  11.570  19.820
 2316DOPG   GL049645  21.120  22.570  11.860
 2316DOPG   PO449646  21.030  23.010  11.980
 2316DOPG   GL149647  21.380  23.010  11.680
 2316DOPG   GL249648  21.270  23.290  11.420
 2316DOPG   C1A49649  21.800  23.060  11.540
 2316DOPG   D2A49650  22.160  23.400  11.620
 2316DOPG   C3A49651  22.460  23.360  11.540
 2316DOPG   C4A49652  22.760  23.160  11.260
 2316DOPG   C1B49653  21.390  23.460  11.010
 2316DOPG   D2B49654  21.790  23.560  10.830
 2316DOPG   C3B49655  22.170  23.220  10.670
 2316DOPG   C4B49656  22.500  23.040  10.840
 2317DOPG   GL049657   8.900  29.500  12.220
 2317DOPG   PO449658   8.800  29.680  11.890
 2317DOPG   GL149659   9.200  29.340  11.880
 2317DOPG   GL249660   9.340  29.380  11.630
 2317DOPG   C1A49661   9.390  28.860  11.860
 2317DOPG   D2A49662   9.480  28.510  11.900
 2317DOPG   C3A49663   9.340  28.140  12.140
 2317DOPG   C4A49664   9.460  27.690  12.090
 2317DOPG   C1B49665   9.140  28.970  11.400
 2317DOPG   D2B49666   9.080  28.590  11.620
 2317DOPG   C3B49667   9.140  28.150  11.680
 2317DOPG   C4B49668   9.060  27.810  11.720
 2318DOPG   GL049669  27.780  17.250   9.130
 2318DOPG   PO449670  27.710  16.770   9.110
 2318DOPG   GL149671  27.420  16.980   9.290
 2318DOPG   GL249672  27.210  17.060   9.000
 2318DOPG   C1A49673  27.020  17.040   9.470
 2318DOPG   D2A49674  26.810  17.080   9.870
 2318DOPG   C3A49675  26.400  16.930   9.880
 2318DOPG   C4A49676  26.010  17.010  10.160
 2318DOPG   C1B49677  26.770  17.300   9.080
 2318DOPG   D2B49678  26.410  17.370   9.000
 2318DOPG   C3B49679  26.030  17.440   9.240
 2318DOPG   C4B49680  25.780  17.660   9.320
 2319DOPG   GL049681  22.540  26.870  18.110
 2319DOPG   PO449682  22.850  26.730  18.380
 2319DOPG   GL149683  22.880  26.860  18.800
 2319DOPG   GL249684  23.030  27.220  18.920
 2319DOPG   C1A49685  23.060  26.840  19.310
 2319DOPG   D2A49686  23.170  26.920  19.790
 2319DOPG   C3A49687  23.060  26.780  20.270
 2319DOPG   C4A49688  23.020  26.400  20.450
 2319DOPG   C1B49689  22.950  27.420  19.300
 2319DOPG   D2B49690  23.180  27.540  19.720
 2319DOPG   C3B49691  23.290  27.350  20.110
 2319DOPG   C4B49692  23.080  27.350  20.520
 2320DOPG   GL049693  10.820  22.450  10.790
 2320DOPG   PO449694  11.120  22.730  10.970
 2320DOPG   GL149695  11.460  22.370  11.020
 2320DOPG   GL249696  11.280  22.070  11.090
 2320DOPG   C1A49697  11.890  22.370  11.240
 2320DOPG   D2A49698  12.210  22.020  11.350
 2320DOPG   C3A49699  12.300  21.680  10.990
 2320DOPG   C4A49700  12.320  21.470  10.630
 2320DOPG   C1B49701  11.670  21.840  11.050
 2320DOPG   D2B49702  11.850  21.470  11.230
 2320DOPG   C3B49703  12.240  21.390  11.360
 2320DOPG   C4B49704  12.620  21.480  11.340
 2321DOPG   GL049705   8.330  22.330  20.820
 2321DOPG   PO449706   8.520  22.120  21.040
 2321DOPG   GL149707   8.830  21.830  20.710
 2321DOPG   GL249708   9.110  22.070  20.660
 2321DOPG   C1A49709   8.700  21.670  20.300
 2321DOPG   D2A49710   8.770  21.630  19.860
 2321DOPG   C3A49711   9.080  21.600  19.530
 2321DOPG   C4A49712   9.490  21.440  19.430
 2321DOPG   C1B49713   9.030  22.030  20.220
 2321DOPG   D2B49714   9.070  22.060  19.800
 2321DOPG   C3B49715   9.470  22.260  19.690
 2321DOPG   C4B49716   9.800  22.310  19.980
 2322DOPG   GL049717  29.300  26.640   8.450
 2322DOPG   PO449718  28.840  26.710   8.710
 2322DOPG   GL149719  28.620  26.420   8.990
 2322DOPG   GL249720  28.540  26.400   9.390
 2322DOPG   C1A49721  28.360  26.120   9.060
 2322DOPG   D2A49722  28.080  25.830   8.840
 2322DOPG   C3A49723  27.730  25.570   9.170
 2322DOPG   C4A49724  27.480  25.460   9.470
 2322DOPG   C1B49725  28.300  25.990   9.500
 2322DOPG   D2B49726  28.250  25.580   9.290
 2322DOPG   C3B49727  28.490  25.270   9.400
 2322DOPG   C4B49728  28.610  24.810   9.220
 2323DOPG   GL049729  18.010  17.180  12.760
 2323DOPG   PO449730  17.800  17.330  13.160
 2323DOPG   GL149731  17.500  17.000  13.050
 2323DOPG   GL249732  17.530  16.720  13.390
 2323DOPG   C1A49733  17.370  16.610  12.980
 2323DOPG   D2A49734  17.330  16.310  12.800
 2323DOPG   C3A49735  17.260  16.020  13.050
 2323DOPG   C4A49736  16.880  15.840  13.290
 2323DOPG   C1B49737  17.860  16.510  13.660
 2323DOPG   D2B49738  18.130  16.210  13.730
 2323DOPG   C3B49739  18.380  16.200  13.300
 2323DOPG   C4B49740  18.800  16.110  13.150
 2324DOPG   GL049741  10.290  23.290  15.580
 2324DOPG   PO449742  10.410  23.550  15.890
 2324DOPG   GL149743   9.950  23.510  16.020
 2324DOPG   GL249744   9.600  23.370  16.110
 2324DOPG   C1A49745   9.740  23.790  16.350
 2324DOPG   D2A49746   9.650  24.280  16.320
 2324DOPG   C3A49747   9.730  24.550  16.710
 2324DOPG   C4A49748   9.880  24.800  17.030
 2324DOPG   C1B49749   9.230  23.460  16.330
 2324DOPG   D2B49750   8.890  23.370  16.610
 2324DOPG   C3B49751   8.900  23.540  17.060
 2324DOPG   C4B49752   9.050  23.330  17.330
 2325DOPG   GL049753  11.900  11.500   5.450
 2325DOPG   PO449754  12.170  11.900   5.510
 2325DOPG   GL149755  12.470  12.180   5.410
 2325DOPG   GL249756  12.740  11.920   5.420
 2325DOPG   C1A49757  12.790  12.410   5.580
 2325DOPG   D2A49758  13.300  12.650   5.640
 2325DOPG   C3A49759  13.280  13.040   5.820
 2325DOPG   C4A49760  12.950  13.240   5.690
 2325DOPG   C1B49761  12.920  11.710   5.770
 2325DOPG   D2B49762  13.260  11.940   5.910
 2325DOPG   C3B49763  13.170  12.360   6.060
 2325DOPG   C4B49764  12.890  12.690   5.940
 2326DOPG   GL049765   6.310  16.970  14.000
 2326DOPG   PO449766   6.610  17.100  14.140
 2326DOPG   GL149767   6.670  17.410  14.430
 2326DOPG   GL249768   6.930  17.210  14.620
 2326DOPG   C1A49769   6.890  17.840  14.600
 2326DOPG   D2A49770   7.230  18.020  14.740
 2326DOPG   C3A49771   7.440  18.100  14.530
 2326DOPG   C4A49772   7.690  18.320  14.320
 2326DOPG   C1B49773   7.180  17.480  14.300
 2326DOPG   D2B49774   7.580  17.780  14.200
 2326DOPG   C3B49775   7.970  17.780  14.290
 2326DOPG   C4B49776   8.370  18.020  14.270
 2327DOPG   GL049777  19.240  25.340   1.890
 2327DOPG   PO449778  19.160  25.090   1.540
 2327DOPG   GL149779  19.130  24.820   2.020
 2327DOPG   GL249780  19.080  24.550   1.900
 2327DOPG   C1A49781  18.930  24.810   2.430
 2327DOPG   D2A49782  18.830  24.750   2.940
 2327DOPG   C3A49783  18.930  24.500   3.250
 2327DOPG   C4A49784  18.760  24.110   3.450
 2327DOPG   C1B49785  18.820  24.390   2.200
 2327DOPG   D2B49786  18.600  24.470   2.580
 2327DOPG   C3B49787  18.570  24.210   2.920
 2327DOPG   C4B49788  18.760  23.730   2.960
 2328DOPG   GL049789  15.380  21.450  11.260
 2328DOPG   PO449790  15.790  21.660  11.020
 2328DOPG   GL149791  15.440  21.920  11.020
 2328DOPG   GL249792  15.170  21.930  11.290
 2328DOPG   C1A49793  15.130  22.060  10.580
 2328DOPG   D2A49794  14.770  22.080  10.510
 2328DOPG   C3A49795  14.540  22.510  10.440
 2328DOPG   C4A49796  14.360  22.750  10.730
 2328DOPG   C1B49797  14.850  21.970  11.010
 2328DOPG   D2B49798  14.580  21.720  10.830
 2328DOPG   C3B49799  14.390  21.820  10.380
 2328DOPG   C4B49800  14.440  22.180  10.080
 2329DOPG   GL049801  24.930  23.950   2.300
 2329DOPG   PO449802  24.640  24.210   2.540
 2329DOPG   GL149803  24.400  24.190   2.920
 2329DOPG   GL249804  24.040  24.370   2.790
 2329DOPG   C1A49805  24.400  24.220   3.430
 2329DOPG   D2A49806  24.650  23.830   3.710
 2329DOPG   C3A49807  24.420  23.580   4.000
 2329DOPG   C4A49808  24.020  23.610   4.090
 2329DOPG   C1B49809  23.970  24.060   3.190
 2329DOPG   D2B49810  24.140  23.700   3.460
 2329DOPG   C3B49811  24.080  23.350   3.660
 2329DOPG   C4B49812  24.110  22.900   3.660
 2330DOPG   GL049813  15.640  21.030  11.980
 2330DOPG   PO449814  15.730  21.040  11.490
 2330DOPG   GL149815  15.490  20.990  11.160
 2330DOPG   GL249816  15.580  21.020  10.740
 2330DOPG   C1A49817  15.200  21.220  10.920
 2330DOPG   D2A49818  15.120  21.580  10.750
 2330DOPG   C3A49819  14.920  21.670  10.300
 2330DOPG   C4A49820  14.610  21.540  10.080
 2330DOPG   C1B49821  15.190  21.110  10.440
 2330DOPG   D2B49822  15.040  21.160  10.080
 2330DOPG   C3B49823  14.650  21.100   9.920
 2330DOPG   C4B49824  14.410  21.080   9.540
 2331DOPG   GL049825  10.590  12.630   8.600
 2331DOPG   PO449826  10.500  13.040   8.470
 2331DOPG   GL149827  10.810  13.350   8.610
 2331DOPG   GL249828  10.790  13.590   8.530
 2331DOPG   C1A49829  11.160  13.570   8.900
 2331DOPG   D2A49830  11.540  13.850   9.030
 2331DOPG   C3A49831  11.840  13.790   9.160
 2331DOPG   C4A49832  11.990  14.120   9.310
 2331DOPG   C1B49833  11.170  13.450   8.270
 2331DOPG   D2B49834  11.570  13.640   8.110
 2331DOPG   C3B49835  11.930  13.390   8.200
 2331DOPG   C4B49836  12.370  13.170   8.390
 2332DOPG   GL049837  20.590  25.570  13.400
 2332DOPG   PO449838  20.380  25.690  13.680
 2332DOPG   GL149839  20.480  26.140  13.720
 2332DOPG   GL249840  20.480  26.270  14.030
 2332DOPG   C1A49841  20.620  26.640  13.640
 2332DOPG   D2A49842  20.220  26.850  13.650
 2332DOPG   C3A49843  20.140  27.230  13.640
 2332DOPG   C4A49844  19.830  27.630  13.490
 2332DOPG   C1B49845  20.790  26.410  14.180
 2332DOPG   D2B49846  21.230  26.480  14.330
 2332DOPG   C3B49847  21.530  26.390  14.740
 2332DOPG   C4B49848  21.880  26.610  15.030
 2333DOPG   GL049849  18.480  23.490  10.080
 2333DOPG   PO449850  18.180  23.610  10.160
 2333DOPG   GL149851  18.050  23.780   9.820
 2333DOPG   GL249852  18.320  24.000   9.790
 2333DOPG   C1A49853  17.950  23.600   9.570
 2333DOPG   D2A49854  17.540  23.680   9.420
 2333DOPG   C3A49855  17.250  23.470   9.190
 2333DOPG   C4A49856  17.200  23.110   9.140
 2333DOPG   C1B49857  18.480  24.360   9.750
 2333DOPG   D2B49858  18.690  24.690   9.510
 2333DOPG   C3B49859  18.800  24.710   9.090
 2333DOPG   C4B49860  18.750  24.610   8.660
 2334DOPG   GL049861  21.390  29.770  21.920
 2334DOPG   PO449862  21.310  30.100  21.720
 2334DOPG   GL149863  21.110  29.740  21.480
 2334DOPG   GL249864  20.810  29.630  21.620
 2334DOPG   C1A49865  20.940  29.890  21.110
 2334DOPG   D2A49866  20.860  29.840  20.670
 2334DOPG   C3A49867  20.760  29.590  20.360
 2334DOPG   C4A49868  20.650  29.370  20.060
 2334DOPG   C1B49869  20.480  29.670  21.230
 2334DOPG   D2B49870  20.560  29.430  20.830
 2334DOPG   C3B49871  20.040  29.270  20.720
 2334DOPG   C4B49872  19.810  28.990  20.490
 2335DOPG   GL049873  21.030  29.020  14.510
 2335DOPG   PO449874  21.050  28.570  14.370
 2335DOPG   GL149875  21.030  28.220  14.070
 2335DOPG   GL249876  20.770  28.310  13.980
 2335DOPG   C1A49877  20.930  27.830  13.740
 2335DOPG   D2A49878  20.730  27.490  13.510
 2335DOPG   C3A49879  20.620  27.130  13.720
 2335DOPG   C4A49880  21.000  26.820  13.880
 2335DOPG   C1B49881  20.520  27.950  14.010
 2335DOPG   D2B49882  20.620  27.530  14.050
 2335DOPG   C3B49883  21.030  27.340  13.970
 2335DOPG   C4B49884  21.310  27.190  13.670
 2336DOPG   GL049885  17.900  24.130  10.720
 2336DOPG   PO449886  17.880  24.430  11.050
 2336DOPG   GL149887  18.050  24.730  10.800
 2336DOPG   GL249888  17.990  24.630  10.580
 2336DOPG   C1A49889  18.050  25.140  10.550
 2336DOPG   D2A49890  18.170  25.450  10.230
 2336DOPG   C3A49891  17.890  25.640  10.090
 2336DOPG   C4A49892  17.610  25.570   9.840
 2336DOPG   C1B49893  17.770  24.780  10.270
 2336DOPG   D2B49894  17.680  25.200  10.150
 2336DOPG   C3B49895  17.570  25.540  10.500
 2336DOPG   C4B49896  17.740  25.760  10.840
 2337DOPG   GL049897  16.280  27.580  23.450
 2337DOPG   PO449898  16.050  27.110  23.260
 2337DOPG   GL149899  16.380  27.170  22.970
 2337DOPG   GL249900  16.470  27.430  22.720
 2337DOPG   C1A49901  16.720  26.790  22.900
 2337DOPG   D2A49902  16.970  26.660  22.650
 2337DOPG   C3A49903  16.700  26.260  22.410
 2337DOPG   C4A49904  16.560  25.980  22.170
 2337DOPG   C1B49905  16.850  27.170  22.600
 2337DOPG   D2B49906  16.970  26.920  22.200
 2337DOPG   C3B49907  17.010  26.470  22.080
 2337DOPG   C4B49908  16.870  26.140  21.780
 2338DOPG   GL049909  16.380  22.900  14.640
 2338DOPG   PO449910  16.100  23.140  14.400
 2338DOPG   GL149911  15.980  23.220  14.810
 2338DOPG   GL249912  16.130  23.380  15.050
 2338DOPG   C1A49913  15.620  23.500  15.060
 2338DOPG   D2A49914  15.140  23.460  15.190
 2338DOPG   C3A49915  14.990  23.610  15.610
 2338DOPG   C4A49916  14.700  23.760  15.860
 2338DOPG   C1B49917  15.930  23.160  15.420
 2338DOPG   D2B49918  16.100  22.870  15.710
 2338DOPG   C3B49919  15.680  22.880  15.800
 2338DOPG   C4B49920  15.250  22.660  15.840
 2339DOPG   GL049921  20.390  22.940  15.350
 2339DOPG   PO449922  20.700  22.740  15.620
 2339DOPG   GL149923  20.910  22.490  16.020
 2339DOPG   GL249924  20.800  22.200  16.180
 2339DOPG   C1A49925  21.260  22.600  16.330
 2339DOPG   D2A49926  21.330  23.030  16.440
 2339DOPG   C3A49927  21.480  23.460  16.290
 2339DOPG   C4A49928  21.630  23.690  15.980
 2339DOPG   C1B49929  20.890  21.850  16.390
 2339DOPG   D2B49930  21.160  21.460  16.650
 2339DOPG   C3B49931  20.910  21.170  16.580
 2339DOPG   C4B49932  20.880  20.770  16.700
 2340DOPG   GL049933  21.720  33.790  17.320
 2340DOPG   PO449934  21.960  33.370  17.050
 2340DOPG   GL149935  21.750  32.980  16.880
 2340DOPG   GL249936  21.380  33.020  16.830
 2340DOPG   C1A49937  21.570  32.540  16.730
 2340DOPG   D2A49938  21.560  32.080  16.700
 2340DOPG   C3A49939  21.440  31.780  16.960
 2340DOPG   C4A49940  21.150  31.500  17.210
 2340DOPG   C1B49941  21.200  32.870  16.480
 2340DOPG   D2B49942  21.110  32.520  16.330
 2340DOPG   C3B49943  21.500  32.150  16.250
 2340DOPG   C4B49944  21.430  31.660  16.040
 2341DOPG   GL049945  18.840  21.680  10.790
 2341DOPG   PO449946  19.230  21.530  10.500
 2341DOPG   GL149947  19.500  21.180  10.380
 2341DOPG   GL249948  19.380  21.100  10.000
 2341DOPG   C1A49949  19.900  21.090  10.050
 2341DOPG   D2A49950  20.190  21.370   9.860
 2341DOPG   C3A49951  20.560  21.530   9.820
 2341DOPG   C4A49952  20.990  21.400   9.780
 2341DOPG   C1B49953  19.580  21.040   9.590
 2341DOPG   D2B49954  19.910  21.100   9.490
 2341DOPG   C3B49955  19.920  20.800   9.240
 2341DOPG   C4B49956  19.830  20.660   8.770
 2342DOPG   GL049957  16.910  19.920  11.310
 2342DOPG   PO449958  16.680  19.510  11.110
 2342DOPG   GL149959  16.650  19.370  10.670
 2342DOPG   GL249960  16.540  19.530  10.410
 2342DOPG   C1A49961  16.790  19.090  10.430
 2342DOPG   D2A49962  16.720  18.870  10.070
 2342DOPG   C3A49963  16.610  18.910   9.700
 2342DOPG   C4A49964  16.460  18.730   9.370
 2342DOPG   C1B49965  16.350  19.220  10.230
 2342DOPG   D2B49966  16.130  18.880  10.310
 2342DOPG   C3B49967  16.370  18.560  10.350
 2342DOPG   C4B49968  16.560  18.220  10.310
 2343DOPG   GL049969  24.840  25.390  11.590
 2343DOPG   PO449970  24.510  25.170  11.640
 2343DOPG   GL149971  24.140  25.140  11.750
 2343DOPG   GL249972  24.220  25.240  12.140
 2343DOPG   C1A49973  23.770  25.400  11.830
 2343DOPG   D2A49974  23.440  25.660  11.990
 2343DOPG   C3A49975  23.100  25.490  12.230
 2343DOPG   C4A49976  23.140  25.490  12.680
 2343DOPG   C1B49977  24.060  25.000  12.310
 2343DOPG   D2B49978  23.820  24.630  12.330
 2343DOPG   C3B49979  23.760  24.220  12.450
 2343DOPG   C4B49980  23.350  23.910  12.550
 2344DOPG   GL049981  28.960  29.400  10.060
 2344DOPG   PO449982  28.710  29.120  10.180
 2344DOPG   GL149983  28.360  29.220  10.230
 2344DOPG   GL249984  28.090  29.000  10.220
 2344DOPG   C1A49985  28.200  29.260  10.660
 2344DOPG   D2A49986  28.130  29.210  11.110
 2344DOPG   C3A49987  27.720  28.970  11.200
 2344DOPG   C4A49988  27.480  28.780  10.960
 2344DOPG   C1B49989  27.910  28.860  10.580
 2344DOPG   D2B49990  27.920  28.480  10.930
 2344DOPG   C3B49991  27.680  28.200  11.030
 2344DOPG   C4B49992  27.560  27.880  11.290
 2345DOPG   GL049993  18.290  23.970  15.090
 2345DOPG   PO449994  17.870  23.810  15.170
 2345DOPG   GL149995  17.920  24.010  15.560
 2345DOPG   GL249996  17.950  23.830  15.910
 2345DOPG   C1A49997  17.500  24.190  15.730
 2345DOPG   D2A49998  17.250  24.620  15.740
 2345DOPG   C3A49999  17.040  24.870  16.140
 2345DOPG   C4A50000  16.700  25.130  16.210
 2345DOPG   C1B50001  18.130  23.870  16.200
 2345DOPG   D2B50002  18.330  24.080  16.510
 2345DOPG   C3B50003  18.180  24.210  16.850
 2345DOPG   C4B50004  18.090  24.560  17.150
 2346DOPG   GL050005  12.910  14.190  14.080
 2346DOPG   PO450006  13.220  13.840  14.100
 2346DOPG   GL150007  12.850  13.650  13.940
 2346DOPG   GL250008  12.740  13.300  13.790
 2346DOPG   C1A50009  12.440  13.630  13.980
 2346DOPG   D2A50010  11.980  13.550  13.720
 2346DOPG   C3A50011  11.600  13.790  13.780
 2346DOPG   C4A50012  11.260  13.970  13.780
 2346DOPG   C1B50013  12.370  13.300  13.560
 2346DOPG   D2B50014  12.180  13.410  13.180
 2346DOPG   C3B50015  12.130  13.630  12.880
 2346DOPG   C4B50016  11.940  13.870  12.520
 2347DOPG   GL050017  13.590  17.800  12.980
 2347DOPG   PO450018  13.860  17.660  13.220
 2347DOPG   GL150019  13.690  17.350  13.490
 2347DOPG   GL250020  13.380  17.530  13.470
 2347DOPG   C1A50021  13.690  17.070  13.720
 2347DOPG   D2A50022  13.920  16.680  13.500
 2347DOPG   C3A50023  13.970  16.440  13.860
 2347DOPG   C4A50024  14.270  16.080  13.880
 2347DOPG   C1B50025  13.450  17.620  13.950
 2347DOPG   D2B50026  13.270  17.600  14.350
 2347DOPG   C3B50027  13.370  17.840  14.730
 2347DOPG   C4B50028  13.330  18.000  15.120
 2348DOPG   GL050029  19.780  21.180  15.210
 2348DOPG   PO450030  20.050  21.400  15.370
 2348DOPG   GL150031  20.020  21.430  15.820
 2348DOPG   GL250032  20.020  21.750  15.950
 2348DOPG   C1A50033  20.120  21.320  16.230
 2348DOPG   D2A50034  20.460  21.000  16.400
 2348DOPG   C3A50035  20.490  20.610  16.370
 2348DOPG   C4A50036  20.770  20.310  16.650
 2348DOPG   C1B50037  20.100  21.810  16.410
 2348DOPG   D2B50038  20.250  22.010  16.840
 2348DOPG   C3B50039  20.200  22.280  17.200
 2348DOPG   C4B50040  20.090  22.710  17.490
 2349DOPG   GL050041  11.680  27.340  21.220
 2349DOPG   PO450042  11.570  27.040  20.870
 2349DOPG   GL150043  11.830  26.770  20.920
 2349DOPG   GL250044  11.640  26.550  20.900
 2349DOPG   C1A50045  12.170  26.480  20.770
 2349DOPG   D2A50046  12.340  26.130  20.970
 2349DOPG   C3A50047  12.650  25.860  20.690
 2349DOPG   C4A50048  12.820  25.360  20.640
 2349DOPG   C1B50049  11.790  26.410  20.520
 2349DOPG   D2B50050  11.910  26.130  20.170
 2349DOPG   C3B50051  12.180  25.890  19.950
 2349DOPG   C4B50052  12.370  25.790  19.600
 2350DOPG   GL050053  20.640  21.010  14.600
 2350DOPG   PO450054  20.690  20.930  15.030
 2350DOPG   GL150055  20.980  20.690  15.210
 2350DOPG   GL250056  21.130  20.320  15.010
 2350DOPG   C1A50057  21.010  20.450  15.680
 2350DOPG   D2A50058  20.840  20.370  15.990
 2350DOPG   C3A50059  21.090  20.400  16.310
 2350DOPG   C4A50060  21.430  20.040  16.310
 2350DOPG   C1B50061  21.390  20.030  14.920
 2350DOPG   D2B50062  21.830  19.880  15.060
 2350DOPG   C3B50063  22.070  19.790  14.720
 2350DOPG   C4B50064  21.930  19.500  14.450
 2351DOPG   GL050065  15.220  14.470  15.520
 2351DOPG   PO450066  15.570  14.810  15.620
 2351DOPG   GL150067  15.470  15.230  15.800
 2351DOPG   GL250068  15.200  15.350  15.610
 2351DOPG   C1A50069  15.620  15.570  15.480
 2351DOPG   D2A50070  15.740  15.970  15.310
 2351DOPG   C3A50071  16.120  16.150  15.000
 2351DOPG   C4A50072  15.990  16.630  14.840
 2351DOPG   C1B50073  15.220  15.460  15.110
 2351DOPG   D2B50074  15.390  15.770  14.950
 2351DOPG   C3B50075  15.450  16.230  14.940
 2351DOPG   C4B50076  15.520  16.620  15.070
 2352DOPG   GL050077  21.890  10.130   9.610
 2352DOPG   PO450078  22.120  10.310   9.300
 2352DOPG   GL150079  21.800  10.710   9.540
 2352DOPG   GL250080  22.110  10.920   9.560
 2352DOPG   C1A50081  21.390  10.940   9.660
 2352DOPG   D2A50082  20.940  11.180   9.730
 2352DOPG   C3A50083  20.690  10.890   9.860
 2352DOPG   C4A50084  20.380  10.680  10.080
 2352DOPG   C1B50085  21.750  11.260   9.440
 2352DOPG   D2B50086  21.350  11.390   9.430
 2352DOPG   C3B50087  21.270  11.830   9.470
 2352DOPG   C4B50088  21.310  12.280   9.570
 2353DOPG   GL050089  20.100  25.360  13.430
 2353DOPG   PO450090  20.320  25.410  13.000
 2353DOPG   GL150091  20.420  25.900  12.790
 2353DOPG   GL250092  20.660  26.090  12.720
 2353DOPG   C1A50093  20.150  26.320  12.690
 2353DOPG   D2A50094  19.850  26.640  12.700
 2353DOPG   C3A50095  19.780  27.110  12.800
 2353DOPG   C4A50096  20.030  27.440  12.770
 2353DOPG   C1B50097  20.630  26.590  12.540
 2353DOPG   D2B50098  20.720  26.890  12.160
 2353DOPG   C3B50099  20.530  27.030  11.840
 2353DOPG   C4B50100  20.420  27.200  11.510
 2354DOPG   GL050101  15.310  23.140  12.250
 2354DOPG   PO450102  15.060  23.010  12.530
 2354DOPG   GL150103  14.630  23.040  12.510
 2354DOPG   GL250104  14.710  23.400  12.410
 2354DOPG   C1A50105  14.320  23.100  12.530
 2354DOPG   D2A50106  14.000  22.840  12.230
 2354DOPG   C3A50107  13.570  23.140  12.150
 2354DOPG   C4A50108  13.310  23.220  11.730
 2354DOPG   C1B50109  14.600  23.440  12.000
 2354DOPG   D2B50110  14.600  23.760  11.730
 2354DOPG   C3B50111  14.570  24.160  11.790
 2354DOPG   C4B50112  14.630  24.480  12.090
 2355DOPG   GL050113   8.650  16.440   8.080
 2355DOPG   PO450114   8.480  16.690   8.170
 2355DOPG   GL150115   8.810  16.930   8.450
 2355DOPG   GL250116   8.600  17.170   8.420
 2355DOPG   C1A50117   9.230  17.160   8.630
 2355DOPG   D2A50118   9.600  17.360   8.710
 2355DOPG   C3A50119   9.740  17.460   8.460
 2355DOPG   C4A50120   9.900  17.840   8.370
 2355DOPG   C1B50121   8.820  17.500   8.620
 2355DOPG   D2B50122   9.260  17.700   8.590
 2355DOPG   C3B50123   9.540  18.000   8.700
 2355DOPG   C4B50124   9.770  18.440   8.920
 2356DOPG   GL050125  16.960  16.910  13.770
 2356DOPG   PO450126  17.150  17.290  13.960
 2356DOPG   GL150127  17.410  16.970  14.020
 2356DOPG   GL250128  17.650  16.800  14.110
 2356DOPG   C1A50129  17.330  16.490  13.790
 2356DOPG   D2A50130  17.280  16.230  14.110
 2356DOPG   C3A50131  16.970  16.260  14.480
 2356DOPG   C4A50132  16.900  16.230  14.930
 2356DOPG   C1B50133  17.370  16.680  14.500
 2356DOPG   D2B50134  17.040  16.720  14.750
 2356DOPG   C3B50135  17.300  16.640  15.160
 2356DOPG   C4B50136  17.540  16.730  15.510
 2357DOPG   GL050137  17.360  32.410  18.590
 2357DOPG   PO450138  17.750  32.450  18.540
 2357DOPG   GL150139  17.840  32.060  18.540
 2357DOPG   GL250140  17.580  32.010  18.320
 2357DOPG   C1A50141  17.830  31.590  18.370
 2357DOPG   D2A50142  17.710  31.200  18.260
 2357DOPG   C3A50143  17.620  30.920  18.680
 2357DOPG   C4A50144  17.880  30.620  18.780
 2357DOPG   C1B50145  17.390  31.670  18.160
 2357DOPG   D2B50146  17.060  31.360  17.960
 2357DOPG   C3B50147  17.020  31.010  17.650
 2357DOPG   C4B50148  17.090  30.680  17.450
 2358DOPG   GL050149  15.680  32.000  19.560
 2358DOPG   PO450150  16.120  31.780  19.590
 2358DOPG   GL150151  16.400  31.510  19.410
 2358DOPG   GL250152  16.440  31.760  19.230
 2358DOPG   C1A50153  16.260  31.110  19.270
 2358DOPG   D2A50154  15.990  30.880  19.170
 2358DOPG   C3A50155  15.810  30.700  18.810
 2358DOPG   C4A50156  15.810  30.460  18.380
 2358DOPG   C1B50157  16.350  31.740  18.800
 2358DOPG   D2B50158  16.370  31.780  18.350
 2358DOPG   C3B50159  16.050  31.550  18.040
 2358DOPG   C4B50160  16.290  31.230  17.840
 2359DOPG   GL050161  18.370  18.310  18.730
 2359DOPG   PO450162  18.610  18.460  18.970
 2359DOPG   GL150163  18.770  18.800  18.710
 2359DOPG   GL250164  18.930  19.050  18.750
 2359DOPG   C1A50165  18.760  18.880  18.310
 2359DOPG   D2A50166  18.600  19.110  17.990
 2359DOPG   C3A50167  18.390  19.330  17.710
 2359DOPG   C4A50168  17.990  19.270  17.710
 2359DOPG   C1B50169  19.090  19.210  18.240
 2359DOPG   D2B50170  19.480  19.240  17.930
 2359DOPG   C3B50171  19.310  19.510  17.500
 2359DOPG   C4B50172  19.220  19.840  17.210
 2360DOPG   GL050173  24.800  30.130  20.260
 2360DOPG   PO450174  24.760  29.980  19.810
 2360DOPG   GL150175  24.800  29.580  19.610
 2360DOPG   GL250176  25.040  29.420  19.630
 2360DOPG   C1A50177  24.990  29.390  19.110
 2360DOPG   D2A50178  24.950  29.390  18.750
 2360DOPG   C3A50179  24.530  29.570  18.460
 2360DOPG   C4A50180  24.620  29.240  18.050
 2360DOPG   C1B50181  24.790  29.120  19.450
 2360DOPG   D2B50182  24.680  28.980  19.050
 2360DOPG   C3B50183  24.300  28.880  19.170
 2360DOPG   C4B50184  24.090  28.600  18.890
 2361DOPG   GL050185  18.300  20.080  10.820
 2361DOPG   PO450186  18.330  19.610  10.810
 2361DOPG   GL150187  18.470  19.300  10.460
 2361DOPG   GL250188  18.880  19.230  10.540
 2361DOPG   C1A50189  18.540  19.050  10.130
 2361DOPG   D2A50190  18.650  19.170   9.730
 2361DOPG   C3A50191  18.760  19.480   9.390
 2361DOPG   C4A50192  19.090  19.270   9.160
 2361DOPG   C1B50193  18.740  18.770  10.530
 2361DOPG   D2B50194  18.640  18.540  10.250
 2361DOPG   C3B50195  18.160  18.570  10.030
 2361DOPG   C4B50196  18.040  18.280   9.840
 2362DOPG   GL050197  14.410  15.130   9.060
 2362DOPG   PO450198  14.540  14.930   9.410
 2362DOPG   GL150199  14.170  15.220   9.500
 2362DOPG   GL250200  13.830  15.280   9.420
 2362DOPG   C1A50201  14.190  15.560   9.720
 2362DOPG   D2A50202  14.090  15.800  10.230
 2362DOPG   C3A50203  13.740  15.760  10.270
 2362DOPG   C4A50204  13.380  15.680  10.340
 2362DOPG   C1B50205  13.660  15.450   9.750
 2362DOPG   D2B50206  13.480  15.230  10.080
 2362DOPG   C3B50207  13.080  15.380  10.110
 2362DOPG   C4B50208  12.720  15.190  10.400
 2363DOPG   GL050209  12.560  13.640  15.520
 2363DOPG   PO450210  12.140  13.700  15.290
 2363DOPG   GL150211  11.800  13.340  15.140
 2363DOPG   GL250212  12.000  13.050  15.150
 2363DOPG   C1A50213  11.580  13.010  15.320
 2363DOPG   D2A50214  11.160  13.090  15.120
 2363DOPG   C3A50215  10.840  13.500  15.220
 2363DOPG   C4A50216  10.840  13.700  15.470
 2363DOPG   C1B50217  11.950  12.640  15.370
 2363DOPG   D2B50218  11.970  12.460  15.830
 2363DOPG   C3B50219  11.550  12.320  16.030
 2363DOPG   C4B50220  11.190  12.140  16.220
 2364DOPG   GL050221  19.660  29.490  11.180
 2364DOPG   PO450222  19.830  29.730  10.890
 2364DOPG   GL150223  19.970  30.150  10.930
 2364DOPG   GL250224  19.870  30.080  10.560
 2364DOPG   C1A50225  20.160  30.500  10.700
 2364DOPG   D2A50226  20.220  30.870  10.770
 2364DOPG   C3A50227  20.240  31.150  10.460
 2364DOPG   C4A50228  20.480  31.430  10.400
 2364DOPG   C1B50229  19.510  30.220  10.170
 2364DOPG   D2B50230  19.480  30.630   9.880
 2364DOPG   C3B50231  19.460  30.970  10.150
 2364DOPG   C4B50232  19.300  31.100  10.540
 2365DOPG   GL050233  23.820  26.390  23.160
 2365DOPG   PO450234  23.390  26.510  23.090
 2365DOPG   GL150235  23.370  26.580  22.750
 2365DOPG   GL250236  23.630  26.330  22.630
 2365DOPG   C1A50237  23.140  26.350  22.370
 2365DOPG   D2A50238  22.960  26.010  22.220
 2365DOPG   C3A50239  22.520  25.820  22.340
 2365DOPG   C4A50240  22.330  25.830  22.640
 2365DOPG   C1B50241  23.760  26.420  22.210
 2365DOPG   D2B50242  23.950  26.390  21.870
 2365DOPG   C3B50243  23.830  26.420  21.470
 2365DOPG   C4B50244  23.700  26.340  21.040
 2366DOPG   GL050245  19.140  24.600  14.160
 2366DOPG   PO450246  19.050  24.970  14.310
 2366DOPG   GL150247  19.200  25.400  14.430
 2366DOPG   GL250248  19.510  25.410  14.700
 2366DOPG   C1A50249  19.100  25.810  14.560
 2366DOPG   D2A50250  18.730  25.960  14.520
 2366DOPG   C3A50251  18.820  26.400  14.510
 2366DOPG   C4A50252  18.900  26.850  14.520
 2366DOPG   C1B50253  19.470  25.840  14.880
 2366DOPG   D2B50254  19.590  26.260  15.020
 2366DOPG   C3B50255  19.450  26.670  14.940
 2366DOPG   C4B50256  19.290  27.040  14.700
 2367DOPG   GL050257  12.460  13.510   3.500
 2367DOPG   PO450258  12.830  13.300   3.450
 2367DOPG   GL150259  13.120  13.500   3.760
 2367DOPG   GL250260  13.220  13.830   3.620
 2367DOPG   C1A50261  13.540  13.530   3.800
 2367DOPG   D2A50262  13.910  13.580   3.600
 2367DOPG   C3A50263  14.080  13.640   3.990
 2367DOPG   C4A50264  14.440  13.690   4.230
 2367DOPG   C1B50265  13.600  14.030   3.750
 2367DOPG   D2B50266  13.870  14.340   3.790
 2367DOPG   C3B50267  13.860  14.580   4.160
 2367DOPG   C4B50268  13.980  14.810   4.560
 2368DOPG   GL050269  11.140  19.430   1.670
 2368DOPG   PO450270  11.500  19.400   1.910
 2368DOPG   GL150271  11.760  19.340   2.260
 2368DOPG   GL250272  11.740  19.350   2.670
 2368DOPG   C1A50273  12.120  19.150   2.340
 2368DOPG   D2A50274  12.370  18.920   2.170
 2368DOPG   C3A50275  12.580  18.670   2.470
 2368DOPG   C4A50276  12.630  18.760   2.960
 2368DOPG   C1B50277  11.790  19.770   2.830
 2368DOPG   D2B50278  12.110  19.760   3.150
 2368DOPG   C3B50279  12.040  19.880   3.580
 2368DOPG   C4B50280  12.020  19.940   3.980
 2369DOPG   GL050281  16.240  22.850  15.120
 2369DOPG   PO450282  16.670  22.590  15.090
 2369DOPG   GL150283  16.570  22.680  15.480
 2369DOPG   GL250284  16.890  22.850  15.630
 2369DOPG   C1A50285  16.550  22.660  15.930
 2369DOPG   D2A50286  16.780  22.580  16.300
 2369DOPG   C3A50287  16.590  22.680  16.650
 2369DOPG   C4A50288  16.210  22.850  16.770
 2369DOPG   C1B50289  16.970  23.000  16.070
 2369DOPG   D2B50290  16.960  23.080  16.500
 2369DOPG   C3B50291  17.070  22.690  16.790
 2369DOPG   C4B50292  16.870  22.450  17.230
 2370DOPG   GL050293  14.000  18.130  13.350
 2370DOPG   PO450294  13.610  17.980  13.480
 2370DOPG   GL150295  13.480  18.190  13.850
 2370DOPG   GL250296  13.180  18.050  13.770
 2370DOPG   C1A50297  13.160  18.330  14.170
 2370DOPG   D2A50298  13.050  18.130  14.480
 2370DOPG   C3A50299  12.670  18.360  14.780
 2370DOPG   C4A50300  12.470  18.460  15.180
 2370DOPG   C1B50301  12.910  17.790  14.100
 2370DOPG   D2B50302  12.900  17.660  14.590
 2370DOPG   C3B50303  12.860  17.820  14.960
 2370DOPG   C4B50304  12.810  18.080  15.250
 2371DOPG   GL050305  14.550  17.860  18.090
 2371DOPG   PO450306  14.790  17.460  18.090
 2371DOPG   GL150307  15.030  17.840  18.020
 2371DOPG   GL250308  15.160  17.780  17.710
 2371DOPG   C1A50309  14.930  18.190  17.730
 2371DOPG   D2A50310  14.540  18.150  17.400
 2371DOPG   C3A50311  14.500  18.520  17.180
 2371DOPG   C4A50312  14.220  18.460  16.750
 2371DOPG   C1B50313  14.980  17.870  17.350
 2371DOPG   D2B50314  15.140  17.950  16.920
 2371DOPG   C3B50315  15.300  18.340  16.770
 2371DOPG   C4B50316  15.470  18.710  16.970
 2372DOPG   GL050317  17.720  24.140  19.180
 2372DOPG   PO450318  17.650  23.700  19.090
 2372DOPG   GL150319  17.390  23.540  18.650
 2372DOPG   GL250320  17.250  23.830  18.510
 2372DOPG   C1A50321  17.240  23.440  18.210
 2372DOPG   D2A50322  17.490  23.230  17.830
 2372DOPG   C3A50323  17.730  23.550  17.670
 2372DOPG   C4A50324  18.130  23.690  17.880
 2372DOPG   C1B50325  17.080  23.960  18.150
 2372DOPG   D2B50326  16.750  23.940  17.770
 2372DOPG   C3B50327  16.970  23.940  17.430
 2372DOPG   C4B50328  17.140  23.960  16.990
 2373DOPG   GL050329  23.050  17.770  10.500
 2373DOPG   PO450330  23.320  18.090  10.630
 2373DOPG   GL150331  22.990  18.300  10.750
 2373DOPG   GL250332  22.790  18.430  10.530
 2373DOPG   C1A50333  22.640  18.400  11.070
 2373DOPG   D2A50334  22.210  18.420  11.220
 2373DOPG   C3A50335  22.340  18.680  11.650
 2373DOPG   C4A50336  22.260  18.710  12.100
 2373DOPG   C1B50337  22.640  18.870  10.650
 2373DOPG   D2B50338  22.560  18.920  11.000
 2373DOPG   C3B50339  22.130  18.860  10.930
 2373DOPG   C4B50340  21.770  18.620  11.100
 2374DOPG   GL050341  18.970  21.000  15.690
 2374DOPG   PO450342  18.590  21.030  15.700
 2374DOPG   GL150343  18.590  21.260  16.080
 2374DOPG   GL250344  18.260  21.380  16.210
 2374DOPG   C1A50345  18.800  20.960  16.510
 2374DOPG   D2A50346  19.330  20.940  16.620
 2374DOPG   C3A50347  19.440  21.020  17.130
 2374DOPG   C4A50348  19.640  21.360  17.390
 2374DOPG   C1B50349  18.410  21.280  16.610
 2374DOPG   D2B50350  18.590  21.150  17.020
 2374DOPG   C3B50351  18.540  21.290  17.430
 2374DOPG   C4B50352  18.340  21.600  17.390
 2375DOPG   GL050353  18.090  20.330  15.490
 2375DOPG   PO450354  18.520  20.020  15.460
 2375DOPG   GL150355  18.230  19.740  15.700
 2375DOPG   GL250356  18.120  19.970  15.830
 2375DOPG   C1A50357  18.040  19.390  16.000
 2375DOPG   D2A50358  17.910  19.030  16.220
 2375DOPG   C3A50359  18.150  18.610  16.280
 2375DOPG   C4A50360  18.250  18.490  16.700
 2375DOPG   C1B50361  18.250  19.800  16.200
 2375DOPG   D2B50362  18.730  19.870  16.370
 2375DOPG   C3B50363  18.880  19.920  16.740
 2375DOPG   C4B50364  19.360  20.120  16.790
 2376DOPG   GL050365  17.090  18.690  14.960
 2376DOPG   PO450366  16.970  18.340  15.140
 2376DOPG   GL150367  16.710  18.370  15.450
 2376DOPG   GL250368  16.450  18.450  15.520
 2376DOPG   C1A50369  16.790  18.210  15.880
 2376DOPG   D2A50370  16.640  18.030  16.400
 2376DOPG   C3A50371  16.310  18.260  16.600
 2376DOPG   C4A50372  15.920  18.340  16.770
 2376DOPG   C1B50373  16.170  18.260  15.760
 2376DOPG   D2B50374  16.090  18.430  16.170
 2376DOPG   C3B50375  15.740  18.210  16.310
 2376DOPG   C4B50376  15.380  17.990  16.090
 2377DOPG   GL050377  23.320  17.290  15.370
 2377DOPG   PO450378  23.110  17.640  15.150
 2377DOPG   GL150379  22.980  18.020  15.020
 2377DOPG   GL250380  22.750  18.060  15.280
 2377DOPG   C1A50381  22.690  18.230  14.800
 2377DOPG   D2A50382  22.370  18.510  14.740
 2377DOPG   C3A50383  22.050  18.580  14.980
 2377DOPG   C4A50384  21.730  18.880  14.960
 2377DOPG   C1B50385  22.360  18.250  15.230
 2377DOPG   D2B50386  22.150  18.470  15.580
 2377DOPG   C3B50387  21.860  18.850  15.620
 2377DOPG   C4B50388  21.640  19.000  15.450
 2378DOPG   GL050389   7.830  13.800  19.050
 2378DOPG   PO450390   7.640  13.580  18.790
 2378DOPG   GL150391   7.980  13.750  18.570
 2378DOPG   GL250392   8.040  14.130  18.350
 2378DOPG   C1A50393   8.450  14.000  18.380
 2378DOPG   D2A50394   8.740  13.890  18.060
 2378DOPG   C3A50395   9.090  14.170  17.910
 2378DOPG   C4A50396   9.210  14.660  17.960
 2378DOPG   C1B50397   8.150  14.520  18.230
 2378DOPG   D2B50398   8.360  14.880  18.120
 2378DOPG   C3B50399   8.620  15.280  18.340
 2378DOPG   C4B50400   8.980  15.470  18.390
 2379DOPG   GL050401  20.010  28.800   9.530
 2379DOPG   PO450402  19.870  29.100   9.370
 2379DOPG   GL150403  19.980  29.510   9.330
 2379DOPG   GL250404  19.930  29.720   9.540
 2379DOPG   C1A50405  19.840  29.820   8.990
 2379DOPG   D2A50406  19.520  30.070   8.840
 2379DOPG   C3A50407  19.560  30.480   8.730
 2379DOPG   C4A50408  19.940  30.740   8.610
 2379DOPG   C1B50409  20.150  30.010   9.410
 2379DOPG   D2B50410  20.450  30.320   9.220
 2379DOPG   C3B50411  20.680  30.720   9.360
 2379DOPG   C4B50412  20.560  31.110   9.370
 2380DOPG   GL050413  18.180  15.560  17.760
 2380DOPG   PO450414  17.840  15.410  17.630
 2380DOPG   GL150415  17.630  15.760  17.400
 2380DOPG   GL250416  17.790  15.900  17.190
 2380DOPG   C1A50417  17.320  16.100  17.220
 2380DOPG   D2A50418  17.510  16.440  17.140
 2380DOPG   C3A50419  17.890  16.350  16.950
 2380DOPG   C4A50420  18.170  16.340  16.530
 2380DOPG   C1B50421  17.550  16.020  16.790
 2380DOPG   D2B50422  17.420  16.490  16.650
 2380DOPG   C3B50423  17.040  16.470  16.390
 2380DOPG   C4B50424  16.650  16.530  16.500
 2381DOPG   GL050425  10.360  15.960  12.180
 2381DOPG   PO450426  10.310  16.080  12.660
 2381DOPG   GL150427  10.560  16.040  12.990
 2381DOPG   GL250428  10.710  16.350  12.920
 2381DOPG   C1A50429  10.860  15.870  13.260
 2381DOPG   D2A50430  11.190  15.620  13.350
 2381DOPG   C3A50431  11.390  15.500  13.840
 2381DOPG   C4A50432  11.320  15.720  14.240
 2381DOPG   C1B50433  10.630  16.560  13.300
 2381DOPG   D2B50434  10.640  16.270  13.620
 2381DOPG   C3B50435  10.380  16.400  14.020
 2381DOPG   C4B50436  10.450  16.290  14.390
 2382DOPG   GL050437   9.940  15.140  12.080
 2382DOPG   PO450438  10.050  14.860  12.480
 2382DOPG   GL150439  10.050  14.620  12.930
 2382DOPG   GL250440  10.020  14.310  12.860
 2382DOPG   C1A50441  10.380  14.340  13.190
 2382DOPG   D2A50442  10.570  14.500  13.550
 2382DOPG   C3A50443  10.880  14.850  13.530
 2382DOPG   C4A50444  11.090  15.140  13.830
 2382DOPG   C1B50445  10.340  14.050  12.790
 2382DOPG   D2B50446  10.640  13.930  13.090
 2382DOPG   C3B50447  10.900  13.650  13.050
 2382DOPG   C4B50448  11.330  13.550  13.120
 2383DOPG   GL050449  27.480  28.490  19.740
 2383DOPG   PO450450  27.010  28.640  19.650
 2383DOPG   GL150451  26.560  28.630  19.600
 2383DOPG   GL250452  26.590  28.790  19.260
 2383DOPG   C1A50453  26.190  28.480  19.510
 2383DOPG   D2A50454  26.150  28.120  19.360
 2383DOPG   C3A50455  25.900  27.690  19.550
 2383DOPG   C4A50456  25.580  27.780  19.850
 2383DOPG   C1B50457  26.520  28.490  19.030
 2383DOPG   D2B50458  26.490  28.000  18.940
 2383DOPG   C3B50459  26.580  27.630  18.900
 2383DOPG   C4B50460  26.540  27.500  18.530
 2384DOPG   GL050461  18.040  20.800  10.100
 2384DOPG   PO450462  18.000  21.030   9.780
 2384DOPG   GL150463  17.800  21.180   9.280
 2384DOPG   GL250464  18.020  21.510   9.180
 2384DOPG   C1A50465  17.700  21.180   8.810
 2384DOPG   D2A50466  17.870  21.320   8.500
 2384DOPG   C3A50467  18.210  21.340   8.250
 2384DOPG   C4A50468  18.160  21.380   7.750
 2384DOPG   C1B50469  18.320  21.690   8.860
 2384DOPG   D2B50470  18.290  21.840   8.380
 2384DOPG   C3B50471  18.190  22.270   8.410
 2384DOPG   C4B50472  17.900  22.580   8.130
 2385DOPG   GL050473   5.600  18.180  17.030
 2385DOPG   PO450474   5.470  17.730  16.930
 2385DOPG   GL150475   5.960  17.850  16.760
 2385DOPG   GL250476   6.040  18.200  16.640
 2385DOPG   C1A50477   6.380  17.790  16.640
 2385DOPG   D2A50478   6.820  17.820  16.530
 2385DOPG   C3A50479   7.160  17.700  16.460
 2385DOPG   C4A50480   7.410  17.320  16.440
 2385DOPG   C1B50481   6.230  18.180  17.050
 2385DOPG   D2B50482   6.470  17.850  17.120
 2385DOPG   C3B50483   6.460  17.800  17.550
 2385DOPG   C4B50484   6.460  17.610  17.960
 2386DOPG   GL050485  19.360  21.970  15.700
 2386DOPG   PO450486  19.690  22.140  15.710
 2386DOPG   GL150487  19.850  22.360  15.950
 2386DOPG   GL250488  19.940  22.320  16.240
 2386DOPG   C1A50489  19.540  22.540  16.390
 2386DOPG   D2A50490  19.520  22.770  16.740
 2386DOPG   C3A50491  19.280  22.720  17.070
 2386DOPG   C4A50492  18.970  22.990  17.320
 2386DOPG   C1B50493  20.000  22.570  16.650
 2386DOPG   D2B50494  19.760  22.530  17.090
 2386DOPG   C3B50495  19.740  22.310  17.460
 2386DOPG   C4B50496  19.950  22.200  17.760
 2387DOPG   GL050497  20.650  24.990  14.040
 2387DOPG   PO450498  20.480  25.390  14.070
 2387DOPG   GL150499  20.300  25.750  14.180
 2387DOPG   GL250500  20.000  25.810  14.030
 2387DOPG   C1A50501  20.510  25.940  14.530
 2387DOPG   D2A50502  20.560  26.090  14.940
 2387DOPG   C3A50503  20.890  26.130  15.250
 2387DOPG   C4A50504  21.440  26.200  15.270
 2387DOPG   C1B50505  20.070  26.200  14.320
 2387DOPG   D2B50506  19.960  26.500  14.550
 2387DOPG   C3B50507  19.590  26.670  14.320
 2387DOPG   C4B50508  19.300  27.040  14.110
 2388DOPG   GL050509  13.640  18.280  12.820
 2388DOPG   PO450510  13.440  18.330  13.050
 2388DOPG   GL150511  13.230  18.450  13.470
 2388DOPG   GL250512  13.130  18.690  13.650
 2388DOPG   C1A50513  12.790  18.300  13.670
 2388DOPG   D2A50514  12.550  17.970  13.750
 2388DOPG   C3A50515  12.430  17.600  14.010
 2388DOPG   C4A50516  12.010  17.670  14.220
 2388DOPG   C1B50517  12.940  18.770  13.990
 2388DOPG   D2B50518  12.670  18.620  14.320
 2388DOPG   C3B50519  12.570  18.110  14.260
 2388DOPG   C4B50520  12.300  17.940  14.580
 2389DOPG   GL050521   8.460  22.110  13.950
 2389DOPG   PO450522   8.520  22.300  13.560
 2389DOPG   GL150523   8.240  22.130  13.270
 2389DOPG   GL250524   8.310  21.900  13.040
 2389DOPG   C1A50525   7.780  22.320  13.200
 2389DOPG   D2A50526   7.610  22.610  12.950
 2389DOPG   C3A50527   7.570  22.350  12.540
 2389DOPG   C4A50528   7.580  22.040  12.480
 2389DOPG   C1B50529   7.770  21.800  13.180
 2389DOPG   D2B50530   7.460  21.980  12.940
 2389DOPG   C3B50531   7.120  22.220  12.990
 2389DOPG   C4B50532   6.800  22.400  13.200
 2390DOPG   GL050533  15.250  21.560  24.440
 2390DOPG   PO450534  15.160  21.170  24.320
 2390DOPG   GL150535  15.460  21.360  23.990
 2390DOPG   GL250536  15.250  21.430  23.820
 2390DOPG   C1A50537  15.590  21.290  23.460
 2390DOPG   D2A50538  15.700  21.030  23.210
 2390DOPG   C3A50539  15.630  20.890  22.790
 2390DOPG   C4A50540  15.710  20.750  22.420
 2390DOPG   C1B50541  15.200  21.640  23.440
 2390DOPG   D2B50542  15.170  21.820  23.090
 2390DOPG   C3B50543  15.250  21.660  22.630
 2390DOPG   C4B50544  15.420  21.340  22.470
 2391DOPG   GL050545  17.480  24.090  15.140
 2391DOPG   PO450546  17.520  24.210  14.710
 2391DOPG   GL150547  17.110  24.420  14.760
 2391DOPG   GL250548  16.840  24.260  14.490
 2391DOPG   C1A50549  17.000  24.750  14.460
 2391DOPG   D2A50550  16.690  25.070  14.600
 2391DOPG   C3A50551  16.560  25.140  15.040
 2391DOPG   C4A50552  16.660  25.440  15.300
 2391DOPG   C1B50553  16.610  24.570  14.770
 2391DOPG   D2B50554  17.020  24.840  14.940
 2391DOPG   C3B50555  17.010  25.320  14.920
 2391DOPG   C4B50556  17.000  25.760  14.920
 2392DOPG   GL050557   9.500  15.990   9.070
 2392DOPG   PO450558   9.660  15.730   8.750
 2392DOPG   GL150559  10.080  16.090   8.680
 2392DOPG   GL250560  10.270  16.040   8.850
 2392DOPG   C1A50561  10.540  16.350   8.600
 2392DOPG   D2A50562  10.800  16.400   8.900
 2392DOPG   C3A50563  11.250  16.410   8.640
 2392DOPG   C4A50564  11.460  16.340   8.280
 2392DOPG   C1B50565  10.410  16.310   9.150
 2392DOPG   D2B50566  10.490  16.740   9.300
 2392DOPG   C3B50567  10.710  16.770   9.580
 2392DOPG   C4B50568  10.940  17.070   9.910
 2393DOPG   GL050569  15.720  20.730  14.870
 2393DOPG   PO450570  15.630  20.340  14.990
 2393DOPG   GL150571  15.480  20.480  15.280
 2393DOPG   GL250572  15.350  20.770  15.150
 2393DOPG   C1A50573  15.300  20.680  15.670
 2393DOPG   D2A50574  15.000  20.660  16.040
 2393DOPG   C3A50575  14.960  21.010  16.400
 2393DOPG   C4A50576  15.280  21.300  16.400
 2393DOPG   C1B50577  14.990  21.020  15.380
 2393DOPG   D2B50578  14.710  21.300  15.580
 2393DOPG   C3B50579  14.380  21.140  15.840
 2393DOPG   C4B50580  14.420  21.150  16.360
 2394DOPG   GL050581   5.630  18.980  12.980
 2394DOPG   PO450582   5.920  18.820  13.220
 2394DOPG   GL150583   6.120  19.160  13.370
 2394DOPG   GL250584   6.350  19.190  13.510
 2394DOPG   C1A50585   6.240  19.600  13.300
 2394DOPG   D2A50586   6.370  20.040  13.250
 2394DOPG   C3A50587   6.180  20.420  13.150
 2394DOPG   C4A50588   6.070  20.600  12.880
 2394DOPG   C1B50589   6.620  19.370  13.740
 2394DOPG   D2B50590   7.090  19.640  13.840
 2394DOPG   C3B50591   6.930  20.040  14.050
 2394DOPG   C4B50592   6.620  20.180  14.170
 2395DOPG   GL050593  21.250  25.140  13.350
 2395DOPG   PO450594  21.160  25.290  13.050
 2395DOPG   GL150595  21.420  25.690  13.120
 2395DOPG   GL250596  21.240  25.890  12.770
 2395DOPG   C1A50597  21.770  25.910  13.220
 2395DOPG   D2A50598  22.150  25.930  13.100
 2395DOPG   C3A50599  22.420  25.990  13.500
 2395DOPG   C4A50600  22.920  26.090  13.620
 2395DOPG   C1B50601  21.120  26.230  12.760
 2395DOPG   D2B50602  21.100  26.460  12.400
 2395DOPG   C3B50603  20.700  26.360  12.050
 2395DOPG   C4B50604  20.680  26.570  11.610
 2396DOPG   GL050605  19.200  20.140  10.490
 2396DOPG   PO450606  19.460  20.390  10.720
 2396DOPG   GL150607  19.800  20.570  10.780
 2396DOPG   GL250608  19.840  20.820  10.560
 2396DOPG   C1A50609  20.260  20.600  10.790
 2396DOPG   D2A50610  20.630  20.430  10.550
 2396DOPG   C3A50611  20.760  20.060  10.730
 2396DOPG   C4A50612  20.980  19.650  10.720
 2396DOPG   C1B50613  20.150  20.470  10.320
 2396DOPG   D2B50614  20.360  20.370   9.890
 2396DOPG   C3B50615  20.810  20.380   9.800
 2396DOPG   C4B50616  20.900  20.510   9.380
 2397DOPG   GL050617  13.940  19.430  11.650
 2397DOPG   PO450618  13.570  19.180  11.610
 2397DOPG   GL150619  13.380  19.490  11.360
 2397DOPG   GL250620  13.110  19.330  11.390
 2397DOPG   C1A50621  13.330  19.700  11.030
 2397DOPG   D2A50622  13.090  20.060  11.020
 2397DOPG   C3A50623  12.820  20.270  10.690
 2397DOPG   C4A50624  12.670  20.730  10.830
 2397DOPG   C1B50625  12.980  19.000  10.900
 2397DOPG   D2B50626  12.990  18.930  10.440
 2397DOPG   C3B50627  13.030  19.180  10.240
 2397DOPG   C4B50628  12.960  19.410  10.580
 2398DOPG   GL050629  18.270  21.690  15.580
 2398DOPG   PO450630  18.390  21.720  15.930
 2398DOPG   GL150631  18.230  21.880  16.270
 2398DOPG   GL250632  18.030  21.990  16.370
 2398DOPG   C1A50633  18.410  21.910  16.700
 2398DOPG   D2A50634  18.520  22.100  17.020
 2398DOPG   C3A50635  18.990  22.290  16.930
 2398DOPG   C4A50636  19.410  22.170  16.970
 2398DOPG   C1B50637  17.760  21.660  16.450
 2398DOPG   D2B50638  17.500  21.300  16.650
 2398DOPG   C3B50639  17.300  21.280  17.010
 2398DOPG   C4B50640  16.830  21.270  17.240
 2399DOPG   GL050641  12.950  28.940  20.760
 2399DOPG   PO450642  12.940  28.540  20.810
 2399DOPG   GL150643  13.020  28.350  20.470
 2399DOPG   GL250644  13.110  28.060  20.430
 2399DOPG   C1A50645  13.060  28.390  20.020
 2399DOPG   D2A50646  12.950  28.160  19.680
 2399DOPG   C3A50647  13.110  28.310  19.310
 2399DOPG   C4A50648  13.320  28.340  18.930
 2399DOPG   C1B50649  13.140  27.880  20.070
 2399DOPG   D2B50650  13.260  27.620  19.730
 2399DOPG   C3B50651  13.630  27.600  19.550
 2399DOPG   C4B50652  14.000  27.410  19.570
 2400DOPG   GL050653  16.830  29.290  14.480
 2400DOPG   PO450654  16.650  29.450  14.260
 2400DOPG   GL150655  16.740  29.840  14.450
 2400DOPG   GL250656  17.010  29.860  14.540
 2400DOPG   C1A50657  16.590  30.220  14.630
 2400DOPG   D2A50658  16.320  30.620  14.750
 2400DOPG   C3A50659  16.620  30.990  14.800
 2400DOPG   C4A50660  16.580  31.450  14.990
 2400DOPG   C1B50661  17.050  30.130  14.810
 2400DOPG   D2B50662  17.200  30.310  15.170
 2400DOPG   C3B50663  17.300  30.690  15.410
 2400DOPG   C4B50664  17.230  30.950  15.650
 2401DOPG   GL050665  17.810  18.200  13.510
 2401DOPG   PO450666  17.550  17.810  13.560
 2401DOPG   GL150667  17.840  17.510  13.860
 2401DOPG   GL250668  17.650  17.420  14.050
 2401DOPG   C1A50669  17.960  16.980  13.840
 2401DOPG   D2A50670  18.130  16.590  14.100
 2401DOPG   C3A50671  17.750  16.290  14.110
 2401DOPG   C4A50672  17.690  15.850  14.140
 2401DOPG   C1B50673  18.090  17.240  14.220
 2401DOPG   D2B50674  18.440  16.930  14.460
 2401DOPG   C3B50675  18.330  16.370  14.510
 2401DOPG   C4B50676  18.480  16.060  14.190
 2402DOPG   GL050677  17.270  20.510  15.710
 2402DOPG   PO450678  17.590  20.250  15.850
 2402DOPG   GL150679  17.720  20.150  16.250
 2402DOPG   GL250680  17.590  20.250  16.480
 2402DOPG   C1A50681  17.980  19.980  16.590
 2402DOPG   D2A50682  18.190  19.580  16.640
 2402DOPG   C3A50683  18.640  19.490  16.750
 2402DOPG   C4A50684  18.770  19.550  17.210
 2402DOPG   C1B50685  17.260  20.110  16.760
 2402DOPG   D2B50686  17.010  19.680  16.820
 2402DOPG   C3B50687  17.000  19.450  16.440
 2402DOPG   C4B50688  16.920  19.180  16.140
 2403DOPG   GL050689  25.430  27.100  22.470
 2403DOPG   PO450690  25.230  27.280  22.150
 2403DOPG   GL150691  25.120  27.060  21.740
 2403DOPG   GL250692  25.300  27.130  21.500
 2403DOPG   C1A50693  24.970  26.590  21.610
 2403DOPG   D2A50694  24.640  26.560  21.400
 2403DOPG   C3A50695  24.610  26.260  21.060
 2403DOPG   C4A50696  24.720  26.290  20.720
 2403DOPG   C1B50697  25.530  27.290  21.210
 2403DOPG   D2B50698  25.820  27.370  20.980
 2403DOPG   C3B50699  25.860  27.640  20.650
 2403DOPG   C4B50700  25.530  27.810  20.370
 2404DOPG   GL050701  20.560  19.350  14.560
 2404DOPG   PO450702  20.290  19.450  14.810
 2404DOPG   GL150703  20.600  19.250  15.060
 2404DOPG   GL250704  20.900  19.050  14.890
 2404DOPG   C1A50705  20.680  19.000  15.340
 2404DOPG   D2A50706  20.540  18.540  15.380
 2404DOPG   C3A50707  20.330  18.310  15.080
 2404DOPG   C4A50708  20.090  18.330  14.710
 2404DOPG   C1B50709  21.060  19.440  14.850
 2404DOPG   D2B50710  21.500  19.530  14.760
 2404DOPG   C3B50711  21.810  19.410  14.990
 2404DOPG   C4B50712  22.310  19.370  14.870
 2405DOPG   GL050713  16.300  18.280  13.590
 2405DOPG   PO450714  15.960  17.950  13.480
 2405DOPG   GL150715  16.030  17.610  13.510
 2405DOPG   GL250716  16.190  17.360  13.280
 2405DOPG   C1A50717  15.910  17.170  13.700
 2405DOPG   D2A50718  16.070  16.790  13.830
 2405DOPG   C3A50719  16.260  16.360  13.840
 2405DOPG   C4A50720  16.080  16.080  14.060
 2405DOPG   C1B50721  15.890  17.090  13.100
 2405DOPG   D2B50722  15.810  16.630  12.980
 2405DOPG   C3B50723  15.900  16.300  12.650
 2405DOPG   C4B50724  16.240  16.070  12.320
 2406DOPG   GL050725   7.660  12.310  19.140
 2406DOPG   PO450726   7.850  12.760  19.170
 2406DOPG   GL150727   8.330  12.960  19.150
 2406DOPG   GL250728   8.590  12.930  19.370
 2406DOPG   C1A50729   8.590  13.260  19.040
 2406DOPG   D2A50730   8.900  13.370  19.380
 2406DOPG   C3A50731   9.240  13.690  19.470
 2406DOPG   C4A50732   9.620  13.880  19.340
 2406DOPG   C1B50733   8.910  12.850  19.220
 2406DOPG   D2B50734   9.210  13.040  18.930
 2406DOPG   C3B50735   9.310  12.840  18.580
 2406DOPG   C4B50736   9.630  12.620  18.430
 2407DOPG   GL050737   5.750  22.920  18.090
 2407DOPG   PO450738   6.030  22.620  18.130
 2407DOPG   GL150739   6.400  22.700  17.800
 2407DOPG   GL250740   6.210  22.600  17.380
 2407DOPG   C1A50741   6.670  22.340  17.660
 2407DOPG   D2A50742   6.740  22.020  17.830
 2407DOPG   C3A50743   6.960  21.630  17.750
 2407DOPG   C4A50744   7.190  21.360  17.560
 2407DOPG   C1B50745   6.620  22.530  17.220
 2407DOPG   D2B50746   7.110  22.640  17.210
 2407DOPG   C3B50747   7.270  22.200  17.140
 2407DOPG   C4B50748   7.660  22.060  17.120
 2408DOPG   GL050749  19.340  20.390  14.950
 2408DOPG   PO450750  19.430  20.270  15.400
 2408DOPG   GL150751  19.410  20.180  15.840
 2408DOPG   GL250752  19.110  20.030  16.070
 2408DOPG   C1A50753  19.440  20.300  16.320
 2408DOPG   D2A50754  19.740  20.470  16.580
 2408DOPG   C3A50755  19.710  20.600  17.010
 2408DOPG   C4A50756  19.980  20.890  17.140
 2408DOPG   C1B50757  19.310  19.710  16.410
 2408DOPG   D2B50758  19.160  19.530  16.840
 2408DOPG   C3B50759  18.950  19.090  17.060
 2408DOPG   C4B50760  18.960  18.660  17.200
 2409DOPG   GL050761  22.270  25.590  18.450
 2409DOPG   PO450762  22.110  25.880  18.120
 2409DOPG   GL150763  21.880  25.850  17.850
 2409DOPG   GL250764  21.660  26.120  17.780
 2409DOPG   C1A50765  21.980  25.600  17.470
 2409DOPG   D2A50766  21.950  25.290  17.210
 2409DOPG   C3A50767  21.720  25.160  16.910
 2409DOPG   C4A50768  21.270  25.200  16.820
 2409DOPG   C1B50769  21.620  25.930  17.410
 2409DOPG   D2B50770  21.370  26.010  17.070
 2409DOPG   C3B50771  21.480  26.170  16.630
 2409DOPG   C4B50772  21.950  26.190  16.530
 2410DOPG   GL050773  20.760  20.920  12.960
 2410DOPG   PO450774  20.990  21.120  13.310
 2410DOPG   GL150775  21.320  20.810  13.380
 2410DOPG   GL250776  21.580  20.950  13.360
 2410DOPG   C1A50777  21.360  20.370  13.290
 2410DOPG   D2A50778  21.380  19.850  13.340
 2410DOPG   C3A50779  21.830  19.590  13.380
 2410DOPG   C4A50780  22.200  19.760  13.640
 2410DOPG   C1B50781  21.890  21.260  13.490
 2410DOPG   D2B50782  22.230  21.150  13.790
 2410DOPG   C3B50783  22.440  20.760  13.680
 2410DOPG   C4B50784  22.760  20.480  13.900
 2411DOPG   GL050785  10.030  25.120  20.900
 2411DOPG   PO450786  10.420  24.960  21.110
 2411DOPG   GL150787  10.520  24.940  20.680
 2411DOPG   GL250788  10.400  25.250  20.500
 2411DOPG   C1A50789  10.590  24.680  20.370
 2411DOPG   D2A50790  10.870  24.660  20.080
 2411DOPG   C3A50791  10.850  24.320  19.720
 2411DOPG   C4A50792  11.240  24.140  19.490
 2411DOPG   C1B50793  10.840  25.160  20.420
 2411DOPG   D2B50794  11.060  24.850  20.620
 2411DOPG   C3B50795  11.010  24.430  20.550
 2411DOPG   C4B50796  11.030  24.080  20.550
 2412DOPG   GL050797  14.430  18.320  13.130
 2412DOPG   PO450798  14.470  17.900  13.320
 2412DOPG   GL150799  14.170  17.690  13.630
 2412DOPG   GL250800  13.920  17.860  13.810
 2412DOPG   C1A50801  14.080  17.360  13.880
 2412DOPG   D2A50802  13.670  17.300  14.240
 2412DOPG   C3A50803  13.640  17.080  14.590
 2412DOPG   C4A50804  13.710  16.680  14.650
 2412DOPG   C1B50805  14.010  17.680  14.250
 2412DOPG   D2B50806  13.790  17.650  14.640
 2412DOPG   C3B50807  13.750  17.640  15.090
 2412DOPG   C4B50808  13.790  17.850  15.380
 2413DOPG   GL050809  19.890  18.570  19.400
 2413DOPG   PO450810  19.700  18.790  19.100
 2413DOPG   GL150811  19.440  18.980  18.720
 2413DOPG   GL250812  19.670  19.080  18.470
 2413DOPG   C1A50813  19.210  18.740  18.430
 2413DOPG   D2A50814  19.130  18.610  18.060
 2413DOPG   C3A50815  18.740  18.690  17.740
 2413DOPG   C4A50816  18.710  19.000  17.540
 2413DOPG   C1B50817  19.670  18.800  18.170
 2413DOPG   D2B50818  19.600  18.790  17.730
 2413DOPG   C3B50819  19.170  18.980  17.620
 2413DOPG   C4B50820  18.930  19.430  17.790
 2414DOPG   GL050821  21.820  31.900  20.190
 2414DOPG   PO450822  21.820  31.350  20.110
 2414DOPG   GL150823  21.860  30.930  19.920
 2414DOPG   GL250824  22.180  30.770  19.960
 2414DOPG   C1A50825  21.790  30.450  19.730
 2414DOPG   D2A50826  21.880  30.070  19.610
 2414DOPG   C3A50827  21.840  29.980  19.200
 2414DOPG   C4A50828  21.860  29.730  18.880
 2414DOPG   C1B50829  22.250  30.810  19.640
 2414DOPG   D2B50830  22.200  30.490  19.250
 2414DOPG   C3B50831  22.340  30.120  19.320
 2414DOPG   C4B50832  22.410  29.790  19.720
 2415DOPG   GL050833  17.000  19.770  15.120
 2415DOPG   PO450834  17.090  20.050  15.490
 2415DOPG   GL150835  17.220  19.920  15.960
 2415DOPG   GL250836  17.340  19.630  16.070
 2415DOPG   C1A50837  16.960  20.030  16.390
 2415DOPG   D2A50838  16.770  20.300  16.600
 2415DOPG   C3A50839  16.430  20.310  16.360
 2415DOPG   C4A50840  16.060  20.020  16.600
 2415DOPG   C1B50841  17.420  19.690  16.460
 2415DOPG   D2B50842  17.560  19.700  16.960
 2415DOPG   C3B50843  17.320  19.830  17.330
 2415DOPG   C4B50844  17.310  19.880  17.790
 2416DOPG   GL050845   8.340  21.430  12.610
 2416DOPG   PO450846   8.730  21.250  12.830
 2416DOPG   GL150847   8.520  20.970  12.610
 2416DOPG   GL250848   8.370  20.870  12.890
 2416DOPG   C1A50849   8.340  20.660  12.370
 2416DOPG   D2A50850   8.010  20.480  12.270
 2416DOPG   C3A50851   7.960  20.370  11.830
 2416DOPG   C4A50852   7.680  20.520  11.470
 2416DOPG   C1B50853   8.010  21.020  12.540
 2416DOPG   D2B50854   7.890  20.990  12.050
 2416DOPG   C3B50855   8.100  20.850  11.680
 2416DOPG   C4B50856   8.170  20.590  11.330
 2417DOPG   GL050857  21.630   9.630  10.640
 2417DOPG   PO450858  21.730  10.040  10.920
 2417DOPG   GL150859  21.480  10.460  11.100
 2417DOPG   GL250860  21.550  10.570  11.410
 2417DOPG   C1A50861  21.370  10.940  10.970
 2417DOPG   D2A50862  21.580  11.180  10.750
 2417DOPG   C3A50863  21.590  11.560  11.050
 2417DOPG   C4A50864  21.200  11.830  11.090
 2417DOPG   C1B50865  21.370  11.030  11.440
 2417DOPG   D2B50866  21.050  11.410  11.380
 2417DOPG   C3B50867  20.690  11.520  11.120
 2417DOPG   C4B50868  20.670  11.890  11.230
 2418DOPG   GL050869  10.360  21.160  23.030
 2418DOPG   PO450870  10.380  21.040  22.600
 2418DOPG   GL150871  10.640  21.030  22.240
 2418DOPG   GL250872  10.910  21.130  22.290
 2418DOPG   C1A50873  10.800  20.790  21.840
 2418DOPG   D2A50874  10.990  21.010  21.430
 2418DOPG   C3A50875  10.820  21.190  21.010
 2418DOPG   C4A50876  10.570  21.080  20.700
 2418DOPG   C1B50877  11.330  21.010  22.370
 2418DOPG   D2B50878  11.670  21.150  22.120
 2418DOPG   C3B50879  11.770  20.950  21.700
 2418DOPG   C4B50880  12.070  20.750  21.430
 2419DOPG   GL050881  13.800  19.260  12.830
 2419DOPG   PO450882  13.810  19.340  12.400
 2419DOPG   GL150883  13.650  19.610  12.030
 2419DOPG   GL250884  13.400  19.690  12.210
 2419DOPG   C1A50885  13.370  19.890  11.740
 2419DOPG   D2A50886  13.420  20.080  11.400
 2419DOPG   C3A50887  13.150  20.520  11.420
 2419DOPG   C4A50888  13.090  20.830  11.160
 2419DOPG   C1B50889  13.080  19.950  12.100
 2419DOPG   D2B50890  12.850  20.030  12.380
 2419DOPG   C3B50891  12.540  20.070  12.250
 2419DOPG   C4B50892  12.060  19.880  12.330
 2420DOPG   GL050893  17.080  24.440  13.510
 2420DOPG   PO450894  17.410  24.810  13.310
 2420DOPG   GL150895  17.170  24.990  13.600
 2420DOPG   GL250896  17.340  25.140  13.800
 2420DOPG   C1A50897  16.820  25.310  13.540
 2420DOPG   D2A50898  16.730  25.690  13.490
 2420DOPG   C3A50899  16.260  25.570  13.450
 2420DOPG   C4A50900  16.040  25.800  13.710
 2420DOPG   C1B50901  17.130  25.570  13.800
 2420DOPG   D2B50902  16.910  25.910  13.970
 2420DOPG   C3B50903  16.750  26.010  14.390
 2420DOPG   C4B50904  16.530  25.770  14.680
 2421DOPG   GL050905  14.650  21.080  12.750
 2421DOPG   PO450906  14.270  21.140  12.730
 2421DOPG   GL150907  13.950  21.400  12.690
 2421DOPG   GL250908  13.740  21.200  12.680
 2421DOPG   C1A50909  13.960  21.900  12.730
 2421DOPG   D2A50910  13.840  22.380  12.550
 2421DOPG   C3A50911  13.530  22.560  12.260
 2421DOPG   C4A50912  13.100  22.400  12.210
 2421DOPG   C1B50913  13.410  20.900  12.430
 2421DOPG   D2B50914  13.100  20.910  12.110
 2421DOPG   C3B50915  13.010  20.490  11.900
 2421DOPG   C4B50916  12.590  20.240  11.750
 2422DOPG   GL050917  19.840  21.840  15.320
 2422DOPG   PO450918  20.170  22.070  15.610
 2422DOPG   GL150919  20.360  22.110  15.980
 2422DOPG   GL250920  20.490  21.800  16.060
 2422DOPG   C1A50921  20.410  22.230  16.450
 2422DOPG   D2A50922  20.730  22.100  16.820
 2422DOPG   C3A50923  20.600  21.980  17.230
 2422DOPG   C4A50924  20.430  21.840  17.690
 2422DOPG   C1B50925  20.520  21.550  16.420
 2422DOPG   D2B50926  20.720  21.590  16.820
 2422DOPG   C3B50927  21.060  21.830  17.070
 2422DOPG   C4B50928  21.470  21.900  17.200
 2423DOPG   GL050929   8.410  29.790  10.800
 2423DOPG   PO450930   8.860  29.640  10.980
 2423DOPG   GL150931   9.120  29.370  10.790
 2423DOPG   GL250932   9.380  29.540  10.920
 2423DOPG   C1A50933   9.410  29.050  10.800
 2423DOPG   D2A50934   9.760  28.670  10.880
 2423DOPG   C3A50935  10.220  28.660  11.100
 2423DOPG   C4A50936  10.750  28.690  11.210
 2423DOPG   C1B50937   9.650  29.400  10.590
 2423DOPG   D2B50938   9.730  28.950  10.430
 2423DOPG   C3B50939  10.090  28.700  10.500
 2423DOPG   C4B50940  10.250  28.310  10.400
 2424DOPG   GL050941  16.960  21.260  16.080
 2424DOPG   PO450942  16.730  21.420  15.670
 2424DOPG   GL150943  16.450  21.710  15.770
 2424DOPG   GL250944  16.330  21.830  15.440
 2424DOPG   C1A50945  16.600  21.790  16.200
 2424DOPG   D2A50946  16.350  21.690  16.580
 2424DOPG   C3A50947  15.920  21.670  16.660
 2424DOPG   C4A50948  15.490  21.640  16.800
 2424DOPG   C1B50949  16.000  22.080  15.750
 2424DOPG   D2B50950  15.900  22.460  15.890
 2424DOPG   C3B50951  15.680  22.510  16.340
 2424DOPG   C4B50952  15.760  22.680  16.820
 2425DOPG   GL050953  27.560  14.600  11.250
 2425DOPG   PO450954  27.560  15.020  11.320
 2425DOPG   GL150955  27.350  15.370  11.270
 2425DOPG   GL250956  27.100  15.190  11.290
 2425DOPG   C1A50957  27.410  15.810  11.480
 2425DOPG   D2A50958  27.600  16.190  11.570
 2425DOPG   C3A50959  27.430  16.530  11.600
 2425DOPG   C4A50960  27.480  16.920  11.430
 2425DOPG   C1B50961  26.780  14.990  11.620
 2425DOPG   D2B50962  26.380  14.770  11.830
 2425DOPG   C3B50963  26.110  14.560  11.520
 2425DOPG   C4B50964  25.780  14.310  11.480
 2426DOPG   GL050965  12.130  18.970  12.160
 2426DOPG   PO450966  11.730  18.750  12.200
 2426DOPG   GL150967  11.580  18.950  12.390
 2426DOPG   GL250968  11.310  18.760  12.440
 2426DOPG   C1A50969  11.430  19.340  12.400
 2426DOPG   D2A50970  11.630  19.710  12.600
 2426DOPG   C3A50971  11.860  19.710  12.900
 2426DOPG   C4A50972  12.050  19.430  13.220
 2426DOPG   C1B50973  11.120  19.070  12.770
 2426DOPG   D2B50974  10.670  19.150  13.020
 2426DOPG   C3B50975  10.300  19.110  12.860
 2426DOPG   C4B50976  10.010  18.690  12.890
 2427DOPG   GL050977  10.800  18.730  18.160
 2427DOPG   PO450978  10.690  18.520  18.460
 2427DOPG   GL150979  10.380  18.460  18.810
 2427DOPG   GL250980  10.070  18.290  18.690
 2427DOPG   C1A50981  10.060  18.400  19.180
 2427DOPG   D2A50982   9.870  18.210  19.560
 2427DOPG   C3A50983   9.500  17.970  19.590
 2427DOPG   C4A50984   9.090  17.910  19.540
 2427DOPG   C1B50985   9.710  18.540  18.770
 2427DOPG   D2B50986   9.510  18.390  19.200
 2427DOPG   C3B50987   9.750  18.670  19.540
 2427DOPG   C4B50988  10.120  18.910  19.350
 2428DOPG   GL050989  18.720  18.210  12.580
 2428DOPG   PO450990  18.520  18.170  12.210
 2428DOPG   GL150991  18.510  17.760  12.330
 2428DOPG   GL250992  18.220  17.720  12.450
 2428DOPG   C1A50993  18.740  17.480  12.160
 2428DOPG   D2A50994  19.120  17.220  12.240
 2428DOPG   C3A50995  19.490  17.240  12.600
 2428DOPG   C4A50996  19.910  17.330  12.620
 2428DOPG   C1B50997  18.400  17.290  12.480
 2428DOPG   D2B50998  18.600  17.010  12.260
 2428DOPG   C3B50999  18.640  17.050  11.750
 2428DOPG   C4B51000  18.960  17.270  11.590
 2429DOPG   GL051001  14.130   9.270   7.960
 2429DOPG   PO451002  14.140   9.640   7.670
 2429DOPG   GL151003  14.420   9.990   7.900
 2429DOPG   GL251004  14.630   9.900   8.220
 2429DOPG   C1A51005  14.330  10.340   8.070
 2429DOPG   D2A51006  13.860  10.420   8.220
 2429DOPG   C3A51007  13.760  10.860   8.380
 2429DOPG   C4A51008  13.530  11.130   8.620
 2429DOPG   C1B51009  14.690  10.290   8.410
 2429DOPG   D2B51010  14.920  10.600   8.570
 2429DOPG   C3B51011  14.930  10.900   8.960
 2429DOPG   C4B51012  14.900  11.000   9.400
 2430DOPG   GL051013  23.560  34.030  13.280
 2430DOPG   PO451014  23.490  33.750  13.630
 2430DOPG   GL151015  23.550  33.380  13.490
 2430DOPG   GL251016  23.110  33.250  13.490
 2430DOPG   C1A51017  23.800  33.040  13.400
 2430DOPG   D2A51018  23.790  32.610  13.370
 2430DOPG   C3A51019  24.130  32.380  13.710
 2430DOPG   C4A51020  23.920  32.220  14.060
 2430DOPG   C1B51021  23.210  32.890  13.610
 2430DOPG   D2B51022  23.580  32.560  13.810
 2430DOPG   C3B51023  23.700  32.210  13.590
 2430DOPG   C4B51024  23.690  31.760  13.490
 2431DOPG   GL051025  20.810  21.530  13.610
 2431DOPG   PO451026  21.200  21.800  13.570
 2431DOPG   GL151027  21.640  21.640  13.650
 2431DOPG   GL251028  21.690  21.440  13.940
 2431DOPG   C1A51029  22.060  21.660  13.740
 2431DOPG   D2A51030  22.400  21.510  14.080
 2431DOPG   C3A51031  22.240  21.730  14.460
 2431DOPG   C4A51032  22.130  22.130  14.410
 2431DOPG   C1B51033  21.990  21.240  14.210
 2431DOPG   D2B51034  22.150  21.190  14.630
 2431DOPG   C3B51035  22.410  21.050  14.870
 2431DOPG   C4B51036  22.580  21.140  15.190
 2432DOPG   GL051037  13.320  25.880   9.880
 2432DOPG   PO451038  13.420  25.540   9.470
 2432DOPG   GL151039  13.870  25.310   9.600
 2432DOPG   GL251040  14.180  25.260   9.420
 2432DOPG   C1A51041  14.070  24.830   9.830
 2432DOPG   D2A51042  13.990  24.390   9.670
 2432DOPG   C3A51043  14.020  24.010   9.890
 2432DOPG   C4A51044  14.200  23.830  10.210
 2432DOPG   C1B51045  14.690  25.320   9.510
 2432DOPG   D2B51046  14.940  25.200   9.870
 2432DOPG   C3B51047  15.350  25.120  10.010
 2432DOPG   C4B51048  15.600  24.680   9.930
 2433DOPG   GL051049  14.340  19.950  24.180
 2433DOPG   PO451050  14.140  19.580  23.980
 2433DOPG   GL151051  14.520  19.780  23.690
 2433DOPG   GL251052  14.680  20.050  23.790
 2433DOPG   C1A51053  14.490  19.950  23.280
 2433DOPG   D2A51054  14.330  20.040  22.900
 2433DOPG   C3A51055  14.530  20.140  22.520
 2433DOPG   C4A51056  14.600  19.870  22.190
 2433DOPG   C1B51057  14.960  19.840  23.460
 2433DOPG   D2B51058  14.840  19.830  22.940
 2433DOPG   C3B51059  15.040  20.080  22.660
 2433DOPG   C4B51060  15.340  19.850  22.440
 2434DOPG   GL051061  15.760  10.390   5.650
 2434DOPG   PO451062  15.880   9.990   5.840
 2434DOPG   GL151063  15.920  10.150   6.220
 2434DOPG   GL251064  15.680  10.450   6.200
 2434DOPG   C1A51065  16.160  10.310   6.460
 2434DOPG   D2A51066  16.140  10.630   6.860
 2434DOPG   C3A51067  16.060  10.500   7.200
 2434DOPG   C4A51068  16.310  10.100   7.320
 2434DOPG   C1B51069  15.730  10.850   5.910
 2434DOPG   D2B51070  15.480  11.180   5.970
 2434DOPG   C3B51071  15.770  11.410   6.230
 2434DOPG   C4B51072  15.880  11.640   6.540
 2435DOPG   GL051073  19.500  19.300  11.500
 2435DOPG   PO451074  19.310  19.420  11.190
 2435DOPG   GL151075  19.640  19.310  10.980
 2435DOPG   GL251076  19.800  19.550  10.890
 2435DOPG   C1A51077  19.750  19.130  10.550
 2435DOPG   D2A51078  19.690  19.150  10.130
 2435DOPG   C3A51079  19.410  19.250   9.770
 2435DOPG   C4A51080  19.090  19.470   9.710
 2435DOPG   C1B51081  20.040  19.450  11.210
 2435DOPG   D2B51082  20.390  19.200  11.240
 2435DOPG   C3B51083  20.510  19.160  11.650
 2435DOPG   C4B51084  20.660  18.900  11.990
 2436DOPG   GL051085  15.120  28.160  22.600
 2436DOPG   PO451086  14.870  28.200  22.250
 2436DOPG   GL151087  15.090  28.080  21.890
 2436DOPG   GL251088  15.050  28.250  21.630
 2436DOPG   C1A51089  15.460  27.840  21.910
 2436DOPG   D2A51090  15.850  27.800  21.670
 2436DOPG   C3A51091  15.910  27.520  21.310
 2436DOPG   C4A51092  16.000  27.120  21.240
 2436DOPG   C1B51093  15.010  27.960  21.360
 2436DOPG   D2B51094  15.220  27.900  20.970
 2436DOPG   C3B51095  15.530  27.650  20.950
 2436DOPG   C4B51096  15.430  27.260  20.880
 2437DOPG   GL051097   8.280  26.780  17.720
 2437DOPG   PO451098   8.460  26.660  18.080
 2437DOPG   GL151099   8.740  26.400  18.010
 2437DOPG   GL251100   8.840  26.510  17.820
 2437DOPG   C1A51101   8.870  25.980  17.980
 2437DOPG   D2A51102   9.010  25.710  17.680
 2437DOPG   C3A51103   8.960  25.320  17.410
 2437DOPG   C4A51104   9.040  25.090  17.050
 2437DOPG   C1B51105   8.910  26.170  17.480
 2437DOPG   D2B51106   8.980  25.770  17.230
 2437DOPG   C3B51107   9.310  25.630  16.950
 2437DOPG   C4B51108   9.780  25.600  16.790
 2438DOPG   GL051109  14.730   8.960   8.020
 2438DOPG   PO451110  14.870   8.940   8.490
 2438DOPG   GL151111  15.160   9.230   8.760
 2438DOPG   GL251112  15.400   9.410   8.500
 2438DOPG   C1A51113  15.250   9.530   8.970
 2438DOPG   D2A51114  15.470   9.880   9.150
 2438DOPG   C3A51115  15.630   9.890   9.630
 2438DOPG   C4A51116  15.550  10.230   9.900
 2438DOPG   C1B51117  15.700   9.460   8.830
 2438DOPG   D2B51118  16.040   9.740   9.130
 2438DOPG   C3B51119  15.820  10.230   9.130
 2438DOPG   C4B51120  15.810  10.600   9.110
 2439DOPG   GL051121  27.530  29.140  17.590
 2439DOPG   PO451122  27.850  29.370  17.430
 2439DOPG   GL151123  27.660  29.120  17.130
 2439DOPG   GL251124  27.550  29.350  16.820
 2439DOPG   C1A51125  27.460  28.820  16.970
 2439DOPG   D2A51126  27.050  28.610  16.840
 2439DOPG   C3A51127  26.620  28.690  16.800
 2439DOPG   C4A51128  26.110  28.570  16.960
 2439DOPG   C1B51129  27.140  29.060  16.610
 2439DOPG   D2B51130  26.850  28.880  16.430
 2439DOPG   C3B51131  26.470  28.670  16.230
 2439DOPG   C4B51132  26.000  28.630  16.010
 2440DOPG   GL051133  22.730  26.340  23.090
 2440DOPG   PO451134  22.250  26.240  23.220
 2440DOPG   GL151135  21.910  26.140  22.950
 2440DOPG   GL251136  21.600  26.320  22.880
 2440DOPG   C1A51137  21.820  25.740  22.660
 2440DOPG   D2A51138  21.650  25.680  22.270
 2440DOPG   C3A51139  21.840  25.530  21.930
 2440DOPG   C4A51140  22.220  25.480  21.760
 2440DOPG   C1B51141  21.590  26.190  22.410
 2440DOPG   D2B51142  21.790  26.320  21.990
 2440DOPG   C3B51143  21.640  26.360  21.610
 2440DOPG   C4B51144  21.460  26.180  21.390
 2441DOPG   GL051145  18.200  14.160   1.630
 2441DOPG   PO451146  18.480  14.480   1.520
 2441DOPG   GL151147  18.070  14.630   1.680
 2441DOPG   GL251148  18.070  15.010   1.660
 2441DOPG   C1A51149  17.850  14.370   2.060
 2441DOPG   D2A51150  17.870  14.210   2.470
 2441DOPG   C3A51151  17.850  14.190   2.900
 2441DOPG   C4A51152  17.890  14.030   3.370
 2441DOPG   C1B51153  18.030  15.490   1.560
 2441DOPG   D2B51154  17.850  15.760   1.750
 2441DOPG   C3B51155  17.970  16.030   2.080
 2441DOPG   C4B51156  17.830  16.050   2.500
 2442DOPG   GL051157   9.140  30.410  10.550
 2442DOPG   PO451158   9.320  30.020  10.430
 2442DOPG   GL151159   9.210  29.590  10.240
 2442DOPG   GL251160   9.030  29.650   9.910
 2442DOPG   C1A51161   9.170  29.040  10.280
 2442DOPG   D2A51162   9.290  28.590  10.500
 2442DOPG   C3A51163   9.640  28.480  10.310
 2442DOPG   C4A51164   9.760  28.060  10.260
 2442DOPG   C1B51165   9.280  29.260   9.900
 2442DOPG   D2B51166   9.590  29.020   9.940
 2442DOPG   C3B51167   9.790  28.780   9.680
 2442DOPG   C4B51168   9.950  29.000   9.300
 2443DOPG   GL051169  13.350  27.660  15.190
 2443DOPG   PO451170  13.090  27.380  15.230
 2443DOPG   GL151171  12.870  27.760  15.320
 2443DOPG   GL251172  13.050  27.710  15.650
 2443DOPG   C1A51173  12.590  28.040  15.660
 2443DOPG   D2A51174  12.640  28.490  15.760
 2443DOPG   C3A51175  12.580  28.640  16.180
 2443DOPG   C4A51176  12.660  28.820  16.570
 2443DOPG   C1B51177  12.890  27.900  15.960
 2443DOPG   D2B51178  12.620  28.120  16.170
 2443DOPG   C3B51179  12.660  28.290  16.750
 2443DOPG   C4B51180  12.750  28.330  17.180
 2444DOPG   GL051181  15.710  25.820  23.610
 2444DOPG   PO451182  15.360  25.770  23.320
 2444DOPG   GL151183  15.740  25.580  23.120
 2444DOPG   GL251184  15.950  25.520  23.310
 2444DOPG   C1A51185  16.010  25.350  22.840
 2444DOPG   D2A51186  16.310  25.140  22.680
 2444DOPG   C3A51187  16.520  24.790  22.800
 2444DOPG   C4A51188  16.630  24.690  23.290
 2444DOPG   C1B51189  16.350  25.230  23.210
 2444DOPG   D2B51190  16.820  25.180  23.240
 2444DOPG   C3B51191  17.200  25.030  22.970
 2444DOPG   C4B51192  17.520  25.030  22.720
 2445DOPG   GL051193  21.260  23.630  13.110
 2445DOPG   PO451194  21.700  23.650  13.220
 2445DOPG   GL151195  22.060  23.780  13.150
 2445DOPG   GL251196  22.190  23.910  13.400
 2445DOPG   C1A51197  22.520  23.680  13.000
 2445DOPG   D2A51198  22.910  23.760  12.690
 2445DOPG   C3A51199  23.160  23.430  12.750
 2445DOPG   C4A51200  23.620  23.430  12.650
 2445DOPG   C1B51201  22.630  24.130  13.530
 2445DOPG   D2B51202  23.130  24.240  13.500
 2445DOPG   C3B51203  23.430  23.880  13.550
 2445DOPG   C4B51204  23.440  23.640  13.940
 2446DOPG   GL051205  14.140  33.060  14.980
 2446DOPG   PO451206  14.120  32.790  14.600
 2446DOPG   GL151207  14.070  32.410  14.500
 2446DOPG   GL251208  14.040  32.190  14.830
 2446DOPG   C1A51209  14.280  31.980  14.390
 2446DOPG   D2A51210  14.550  31.680  14.540
 2446DOPG   C3A51211  14.420  31.090  14.620
 2446DOPG   C4A51212  14.810  30.760  14.610
 2446DOPG   C1B51213  14.160  31.850  14.850
 2446DOPG   D2B51214  14.390  31.460  14.940
 2446DOPG   C3B51215  14.730  31.250  15.190
 2446DOPG   C4B51216  14.770  30.830  15.120
 2447DOPG   GL051217  21.300  23.790  14.360
 2447DOPG   PO451218  21.540  23.990  14.100
 2447DOPG   GL151219  21.900  24.200  14.260
 2447DOPG   GL251220  21.980  24.030  14.390
 2447DOPG   C1A51221  22.100  24.550  14.320
 2447DOPG   D2A51222  22.350  24.940  14.400
 2447DOPG   C3A51223  22.590  24.860  14.750
 2447DOPG   C4A51224  22.730  24.730  15.130
 2447DOPG   C1B51225  22.250  24.310  14.770
 2447DOPG   D2B51226  22.810  24.360  14.810
 2447DOPG   C3B51227  23.080  24.420  15.200
 2447DOPG   C4B51228  23.280  24.450  15.570
 2448DOPG   GL051229  20.980  24.140  15.760
 2448DOPG   PO451230  21.190  23.920  15.510
 2448DOPG   GL151231  21.510  24.050  15.590
 2448DOPG   GL251232  21.450  24.160  15.930
 2448DOPG   C1A51233  21.860  24.280  15.650
 2448DOPG   D2A51234  22.320  24.360  15.710
 2448DOPG   C3A51235  22.590  24.580  16.060
 2448DOPG   C4A51236  22.730  24.900  16.090
 2448DOPG   C1B51237  21.550  24.400  16.400
 2448DOPG   D2B51238  21.530  24.540  16.790
 2448DOPG   C3B51239  21.780  24.590  17.090
 2448DOPG   C4B51240  22.030  24.710  17.420
 2449DOPG   GL051241  14.000  21.950  24.400
 2449DOPG   PO451242  13.680  21.800  24.050
 2449DOPG   GL151243  13.850  21.720  23.550
 2449DOPG   GL251244  14.010  21.950  23.420
 2449DOPG   C1A51245  13.850  21.550  23.100
 2449DOPG   D2A51246  14.070  21.440  22.660
 2449DOPG   C3A51247  14.330  21.730  22.480
 2449DOPG   C4A51248  14.390  21.850  22.090
 2449DOPG   C1B51249  14.170  21.910  22.980
 2449DOPG   D2B51250  13.970  22.230  22.640
 2449DOPG   C3B51251  13.520  22.210  22.380
 2449DOPG   C4B51252  13.320  22.130  22.030
 2450DOPG   GL051253   4.950  24.700  13.540
 2450DOPG   PO451254   5.000  24.650  13.990
 2450DOPG   GL151255   5.290  24.250  13.760
 2450DOPG   GL251256   5.310  24.120  14.040
 2450DOPG   C1A51257   5.190  23.760  13.560
 2450DOPG   D2A51258   5.170  23.490  13.090
 2450DOPG   C3A51259   5.640  23.540  12.880
 2450DOPG   C4A51260   5.880  23.480  12.420
 2450DOPG   C1B51261   5.820  24.200  13.990
 2450DOPG   D2B51262   6.150  24.140  13.690
 2450DOPG   C3B51263   6.300  23.930  13.250
 2450DOPG   C4B51264   5.930  23.850  13.160
 2451DOPG   GL051265  22.400  22.580   7.790
 2451DOPG   PO451266  22.290  22.740   7.440
 2451DOPG   GL151267  22.000  22.870   7.710
 2451DOPG   GL251268  21.860  23.090   7.680
 2451DOPG   C1A51269  21.760  22.600   8.030
 2451DOPG   D2A51270  21.350  22.790   8.430
 2451DOPG   C3A51271  21.260  22.980   8.860
 2451DOPG   C4A51272  21.320  23.180   9.340
 2451DOPG   C1B51273  21.440  22.980   7.910
 2451DOPG   D2B51274  21.040  22.820   7.950
 2451DOPG   C3B51275  20.870  22.740   8.360
 2451DOPG   C4B51276  20.510  22.800   8.550
 2452DOPG   GL051277  21.140  24.910  14.360
 2452DOPG   PO451278  20.960  25.330  14.260
 2452DOPG   GL151279  21.020  25.700  14.500
 2452DOPG   GL251280  21.110  25.970  14.370
 2452DOPG   C1A51281  21.060  25.720  14.890
 2452DOPG   D2A51282  20.740  25.670  15.220
 2452DOPG   C3A51283  20.950  25.760  15.570
 2452DOPG   C4A51284  20.960  25.930  16.020
 2452DOPG   C1B51285  21.470  25.910  14.610
 2452DOPG   D2B51286  21.610  25.740  14.980
 2452DOPG   C3B51287  21.400  25.690  15.370
 2452DOPG   C4B51288  21.410  25.980  15.750
 2453DOPG   GL051289  21.820  17.030   9.280
 2453DOPG   PO451290  21.490  17.120   9.460
 2453DOPG   GL151291  21.350  17.280   9.790
 2453DOPG   GL251292  21.270  17.590   9.760
 2453DOPG   C1A51293  21.340  17.450  10.230
 2453DOPG   D2A51294  21.320  17.410  10.650
 2453DOPG   C3A51295  21.370  17.690  10.980
 2453DOPG   C4A51296  21.200  17.890  11.290
 2453DOPG   C1B51297  21.130  17.900  10.180
 2453DOPG   D2B51298  20.910  18.230  10.300
 2453DOPG   C3B51299  20.480  18.260  10.420
 2453DOPG   C4B51300  20.010  18.200  10.510
 2454DOPG   GL051301  14.070  13.590  12.800
 2454DOPG   PO451302  13.880  14.060  12.660
 2454DOPG   GL151303  13.650  14.270  12.710
 2454DOPG   GL251304  13.940  14.500  12.940
 2454DOPG   C1A51305  13.370  14.530  12.800
 2454DOPG   D2A51306  13.170  14.760  12.430
 2454DOPG   C3A51307  13.430  14.630  12.110
 2454DOPG   C4A51308  13.370  14.420  11.660
 2454DOPG   C1B51309  13.880  14.940  13.140
 2454DOPG   D2B51310  13.880  15.280  13.280
 2454DOPG   C3B51311  14.080  15.600  13.140
 2454DOPG   C4B51312  14.010  16.110  12.970
 2455DOPG   GL051313  19.780  23.990  11.300
 2455DOPG   PO451314  19.960  23.960  11.580
 2455DOPG   GL151315  20.190  24.320  11.320
 2455DOPG   GL251316  20.460  24.300  11.030
 2455DOPG   C1A51317  20.180  24.690  10.960
 2455DOPG   D2A51318  20.360  24.960  10.600
 2455DOPG   C3A51319  20.160  25.380  10.490
 2455DOPG   C4A51320  20.160  25.720  10.120
 2455DOPG   C1B51321  20.900  24.490  11.060
 2455DOPG   D2B51322  21.280  24.740  11.100
 2455DOPG   C3B51323  21.630  24.810  10.750
 2455DOPG   C4B51324  21.840  24.690  10.440
 2456DOPG   GL051325  18.560  21.550  10.300
 2456DOPG   PO451326  18.850  21.820  10.240
 2456DOPG   GL151327  18.990  21.780   9.860
 2456DOPG   GL251328  19.270  21.640   9.970
 2456DOPG   C1A51329  19.000  21.910   9.460
 2456DOPG   D2A51330  19.100  22.230   8.990
 2456DOPG   C3A51331  19.250  22.550   8.860
 2456DOPG   C4A51332  19.530  22.860   8.720
 2456DOPG   C1B51333  19.260  21.480   9.590
 2456DOPG   D2B51334  19.020  21.060   9.520
 2456DOPG   C3B51335  19.290  20.780   9.310
 2456DOPG   C4B51336  19.360  20.780   8.790
 2457DOPG   GL051337   7.120  17.790   9.350
 2457DOPG   PO451338   7.480  17.980   9.600
 2457DOPG   GL151339   7.730  18.250   9.870
 2457DOPG   GL251340   7.920  18.290   9.690
 2457DOPG   C1A51341   7.710  18.520  10.220
 2457DOPG   D2A51342   7.540  18.860  10.530
 2457DOPG   C3A51343   7.100  18.850  10.660
 2457DOPG   C4A51344   6.850  19.170  10.730
 2457DOPG   C1B51345   8.220  18.660   9.610
 2457DOPG   D2B51346   8.710  18.640   9.540
 2457DOPG   C3B51347   9.090  18.850   9.820
 2457DOPG   C4B51348   9.410  19.050  10.060
 2458DOPG   GL051349   6.860  15.420  16.190
 2458DOPG   PO451350   6.970  15.520  16.620
 2458DOPG   GL151351   7.240  15.790  16.750
 2458DOPG   GL251352   7.370  16.130  16.870
 2458DOPG   C1A51353   7.690  15.820  16.840
 2458DOPG   D2A51354   8.040  16.100  16.900
 2458DOPG   C3A51355   8.170  16.160  17.290
 2458DOPG   C4A51356   8.640  16.340  17.510
 2458DOPG   C1B51357   7.680  16.400  16.600
 2458DOPG   D2B51358   8.150  16.630  16.600
 2458DOPG   C3B51359   8.570  16.410  16.620
 2458DOPG   C4B51360   9.050  16.480  16.680
 2459DOPG   GL051361   5.340  18.190  16.080
 2459DOPG   PO451362   5.740  18.390  16.060
 2459DOPG   GL151363   6.220  18.470  16.130
 2459DOPG   GL251364   6.170  18.430  15.810
 2459DOPG   C1A51365   6.600  18.750  16.090
 2459DOPG   D2A51366   7.030  18.760  15.980
 2459DOPG   C3A51367   7.250  19.170  16.060
 2459DOPG   C4A51368   7.600  19.500  16.120
 2459DOPG   C1B51369   6.540  18.410  15.690
 2459DOPG   D2B51370   6.960  18.240  15.730
 2459DOPG   C3B51371   7.250  18.100  15.570
 2459DOPG   C4B51372   7.450  17.960  15.190
 2460DOPG   GL051373   5.720  25.110  14.680
 2460DOPG   PO451374   5.440  25.350  14.450
 2460DOPG   GL151375   5.660  25.180  14.130
 2460DOPG   GL251376   5.540  24.810  14.210
 2460DOPG   C1A51377   6.100  25.010  13.920
 2460DOPG   D2A51378   6.160  24.650  13.690
 2460DOPG   C3A51379   5.790  24.560  13.650
 2460DOPG   C4A51380   5.560  24.340  13.400
 2460DOPG   C1B51381   5.940  24.610  14.280
 2460DOPG   D2B51382   6.360  24.510  14.130
 2460DOPG   C3B51383   6.550  24.310  13.890
 2460DOPG   C4B51384   6.730  24.040  13.600
 2461DOPG   GL051385  18.180  26.990   2.110
 2461DOPG   PO451386  18.350  27.150   2.520
 2461DOPG   GL151387  18.500  26.810   2.740
 2461DOPG   GL251388  18.190  26.800   2.970
 2461DOPG   C1A51389  18.420  26.410   3.070
 2461DOPG   D2A51390  18.410  26.170   3.390
 2461DOPG   C3A51391  18.230  26.390   3.810
 2461DOPG   C4A51392  18.220  26.610   4.170
 2461DOPG   C1B51393  18.030  26.720   3.400
 2461DOPG   D2B51394  17.740  27.000   3.700
 2461DOPG   C3B51395  17.920  27.060   4.010
 2461DOPG   C4B51396  18.110  27.010   4.420
 2462DOPG   GL051397  23.830  20.790  23.680
 2462DOPG   PO451398  24.040  21.040  23.460
 2462DOPG   GL151399  23.640  20.850  23.240
 2462DOPG   GL251400  23.750  20.440  23.250
 2462DOPG   C1A51401  23.580  20.990  22.860
 2462DOPG   D2A51402  23.730  20.740  22.510
 2462DOPG   C3A51403  23.890  20.360  22.450
 2462DOPG   C4A51404  23.890  19.940  22.230
 2462DOPG   C1B51405  23.600  20.430  22.910
 2462DOPG   D2B51406  23.390  20.360  22.460
 2462DOPG   C3B51407  23.600  20.620  22.060
 2462DOPG   C4B51408  23.740  21.010  21.880
 2463DOPG   GL051409  20.850  22.190  15.100
 2463DOPG   PO451410  20.880  21.750  15.250
 2463DOPG   GL151411  20.920  21.720  15.730
 2463DOPG   GL251412  21.090  21.900  15.850
 2463DOPG   C1A51413  20.970  21.370  16.110
 2463DOPG   D2A51414  20.980  20.870  16.180
 2463DOPG   C3A51415  21.370  20.810  16.490
 2463DOPG   C4A51416  21.660  20.860  16.540
 2463DOPG   C1B51417  21.500  22.070  15.830
 2463DOPG   D2B51418  21.900  21.890  15.880
 2463DOPG   C3B51419  21.830  21.470  15.950
 2463DOPG   C4B51420  21.900  21.080  16.080
 2464DOPG   GL051421  19.880  29.140  16.120
 2464DOPG   PO451422  20.080  29.530  15.890
 2464DOPG   GL151423  20.170  29.950  16.130
 2464DOPG   GL251424  20.000  30.210  15.860
 2464DOPG   C1A51425  20.150  30.310  16.310
 2464DOPG   D2A51426  20.220  30.750  16.380
 2464DOPG   C3A51427  20.040  30.910  16.740
 2464DOPG   C4A51428  20.090  30.960  17.220
 2464DOPG   C1B51429  20.000  30.690  15.930
 2464DOPG   D2B51430  20.240  31.100  16.050
 2464DOPG   C3B51431  20.650  31.320  15.940
 2464DOPG   C4B51432  20.940  31.490  16.080
 2465DOPG   GL051433   5.410  19.820  10.800
 2465DOPG   PO451434   5.760  19.990  11.040
 2465DOPG   GL151435   6.160  20.230  11.140
 2465DOPG   GL251436   6.220  20.300  10.800
 2465DOPG   C1A51437   6.570  20.200  11.130
 2465DOPG   D2A51438   7.040  20.470  11.020
 2465DOPG   C3A51439   7.390  20.150  10.830
 2465DOPG   C4A51440   7.720  19.810  10.730
 2465DOPG   C1B51441   6.670  20.520  10.750
 2465DOPG   D2B51442   6.830  20.950  10.860
 2465DOPG   C3B51443   7.240  20.970  11.190
 2465DOPG   C4B51444   7.640  21.030  11.490
 2466DOPG   GL051445  15.580  19.040  14.490
 2466DOPG   PO451446  15.520  19.460  14.720
 2466DOPG   GL151447  15.180  19.180  15.110
 2466DOPG   GL251448  14.990  19.360  15.260
 2466DOPG   C1A51449  15.170  18.840  15.430
 2466DOPG   D2A51450  14.980  18.690  15.750
 2466DOPG   C3A51451  15.250  18.380  15.830
 2466DOPG   C4A51452  15.690  18.400  15.820
 2466DOPG   C1B51453  14.830  19.160  15.660
 2466DOPG   D2B51454  14.540  18.920  15.800
 2466DOPG   C3B51455  14.380  19.090  16.190
 2466DOPG   C4B51456  14.060  18.960  16.440
 2467DOPG   GL051457  25.300  24.300  12.300
 2467DOPG   PO451458  25.160  24.300  12.660
 2467DOPG   GL151459  24.750  24.200  12.490
 2467DOPG   GL251460  24.490  24.340  12.410
 2467DOPG   C1A51461  24.390  24.090  12.780
 2467DOPG   D2A51462  24.410  23.910  13.140
 2467DOPG   C3A51463  23.940  23.980  13.310
 2467DOPG   C4A51464  23.710  24.290  13.400
 2467DOPG   C1B51465  24.180  24.480  12.580
 2467DOPG   D2B51466  23.940  24.800  12.940
 2467DOPG   C3B51467  23.800  25.170  12.760
 2467DOPG   C4B51468  23.820  25.610  12.770
 2468DOPG   GL051469  14.580  21.370  13.120
 2468DOPG   PO451470  14.780  21.750  13.090
 2468DOPG   GL151471  14.600  22.120  12.980
 2468DOPG   GL251472  14.630  22.490  12.740
 2468DOPG   C1A51473  14.240  22.270  12.930
 2468DOPG   D2A51474  13.880  22.390  13.090
 2468DOPG   C3A51475  13.510  22.150  12.950
 2468DOPG   C4A51476  13.260  22.350  12.690
 2468DOPG   C1B51477  14.240  22.640  12.600
 2468DOPG   D2B51478  13.770  22.940  12.640
 2468DOPG   C3B51479  13.810  23.430  12.570
 2468DOPG   C4B51480  13.910  23.870  12.560
 2469DOPG   GL051481  10.360  20.650  15.040
 2469DOPG   PO451482  10.490  20.310  15.340
 2469DOPG   GL151483  10.990  20.370  15.250
 2469DOPG   GL251484  11.230  20.600  15.250
 2469DOPG   C1A51485  11.280  20.140  14.970
 2469DOPG   D2A51486  11.330  19.860  14.600
 2469DOPG   C3A51487  11.560  19.470  14.700
 2469DOPG   C4A51488  11.940  19.270  14.510
 2469DOPG   C1B51489  11.300  20.600  14.800
 2469DOPG   D2B51490  11.340  20.350  14.440
 2469DOPG   C3B51491  11.780  20.430  14.180
 2469DOPG   C4B51492  12.250  20.610  14.260
 2470DOPG   GL051493  13.050  17.250  12.210
 2470DOPG   PO451494  12.830  17.320  12.630
 2470DOPG   GL151495  12.600  16.910  12.760
 2470DOPG   GL251496  12.750  16.640  12.800
 2470DOPG   C1A51497  12.270  16.630  12.860
 2470DOPG   D2A51498  12.420  16.380  13.250
 2470DOPG   C3A51499  12.820  16.370  13.410
 2470DOPG   C4A51500  13.130  16.450  13.780
 2470DOPG   C1B51501  12.820  16.200  12.560
 2470DOPG   D2B51502  12.970  15.660  12.480
 2470DOPG   C3B51503  12.850  15.220  12.510
 2470DOPG   C4B51504  12.960  14.850  12.890
 2471DOPG   GL051505   7.560  17.580   6.970
 2471DOPG   PO451506   7.640  17.560   7.390
 2471DOPG   GL151507   8.050  17.630   7.240
 2471DOPG   GL251508   8.250  17.720   7.430
 2471DOPG   C1A51509   8.450  17.590   7.030
 2471DOPG   D2A51510   8.860  17.400   6.930
 2471DOPG   C3A51511   9.200  17.330   7.120
 2471DOPG   C4A51512   9.430  17.270   7.480
 2471DOPG   C1B51513   8.660  17.570   7.490
 2471DOPG   D2B51514   9.080  17.620   7.680
 2471DOPG   C3B51515   9.190  18.070   7.690
 2471DOPG   C4B51516   9.120  18.410   8.000
 2472DOPG   GL051517  18.800  30.920   4.960
 2472DOPG   PO451518  18.850  30.610   5.140
 2472DOPG   GL151519  18.780  30.320   5.380
 2472DOPG   GL251520  18.740  30.390   5.630
 2472DOPG   C1A51521  18.830  29.800   5.370
 2472DOPG   D2A51522  18.730  29.440   5.530
 2472DOPG   C3A51523  18.800  29.300   5.980
 2472DOPG   C4A51524  19.000  29.240   6.290
 2472DOPG   C1B51525  18.990  30.520   5.900
 2472DOPG   D2B51526  19.340  30.790   6.000
 2472DOPG   C3B51527  19.410  31.040   6.270
 2472DOPG   C4B51528  19.530  30.750   6.730
 2473DOPG   GL051529  18.850  21.460  15.470
 2473DOPG   PO451530  19.170  21.410  15.830
 2473DOPG   GL151531  19.500  21.650  16.050
 2473DOPG   GL251532  19.510  21.920  16.210
 2473DOPG   C1A51533  19.620  21.370  16.400
 2473DOPG   D2A51534  19.840  20.980  16.640
 2473DOPG   C3A51535  20.290  21.100  16.840
 2473DOPG   C4A51536  20.530  21.170  17.150
 2473DOPG   C1B51537  19.690  21.920  16.660
 2473DOPG   D2B51538  19.780  21.900  17.120
 2473DOPG   C3B51539  20.050  21.740  17.430
 2473DOPG   C4B51540  20.250  21.280  17.520
 2474DOPG   GL051541  18.970  21.130  19.650
 2474DOPG   PO451542  19.140  20.980  19.310
 2474DOPG   GL151543  18.830  20.890  19.020
 2474DOPG   GL251544  18.500  20.920  19.080
 2474DOPG   C1A51545  18.730  21.150  18.630
 2474DOPG   D2A51546  19.100  21.160  18.230
 2474DOPG   C3A51547  18.870  21.000  17.800
 2474DOPG   C4A51548  19.090  20.930  17.480
 2474DOPG   C1B51549  18.310  20.690  18.720
 2474DOPG   D2B51550  18.230  20.340  18.900
 2474DOPG   C3B51551  17.860  20.140  18.730
 2474DOPG   C4B51552  17.780  19.870  18.490
 2475DOPG   GL051553  14.590  28.450  16.070
 2475DOPG   PO451554  14.540  28.360  15.640
 2475DOPG   GL151555  14.240  28.650  15.720
 2475DOPG   GL251556  14.240  28.850  15.980
 2475DOPG   C1A51557  14.050  29.090  15.610
 2475DOPG   D2A51558  14.050  29.530  15.640
 2475DOPG   C3A51559  13.830  29.850  15.840
 2475DOPG   C4A51560  13.610  30.020  16.120
 2475DOPG   C1B51561  14.300  29.270  16.020
 2475DOPG   D2B51562  14.250  29.720  16.080
 2475DOPG   C3B51563  14.280  30.070  15.990
 2475DOPG   C4B51564  14.040  30.360  16.090
 2476DOPG   GL051565   8.670  15.820   6.840
 2476DOPG   PO451566   9.100  15.930   6.770
 2476DOPG   GL151567   9.360  16.210   6.560
 2476DOPG   GL251568   9.720  16.220   6.470
 2476DOPG   C1A51569   9.690  16.540   6.840
 2476DOPG   D2A51570   9.990  16.790   6.810
 2476DOPG   C3A51571  10.050  17.250   6.890
 2476DOPG   C4A51572  10.040  17.430   7.260
 2476DOPG   C1B51573  10.040  16.480   6.380
 2476DOPG   D2B51574  10.420  16.790   6.420
 2476DOPG   C3B51575  10.610  17.220   6.450
 2476DOPG   C4B51576  10.440  17.540   6.410
 2477DOPG   GL051577  12.550   9.860  19.030
 2477DOPG   PO451578  12.180   9.870  19.150
 2477DOPG   GL151579  12.300  10.360  19.050
 2477DOPG   GL251580  12.610  10.440  19.090
 2477DOPG   C1A51581  12.370  10.810  18.820
 2477DOPG   D2A51582  12.580  11.070  18.430
 2477DOPG   C3A51583  12.350  11.300  18.140
 2477DOPG   C4A51584  12.120  11.610  17.930
 2477DOPG   C1B51585  12.660  10.850  19.230
 2477DOPG   D2B51586  12.410  11.270  19.040
 2477DOPG   C3B51587  12.240  11.380  18.680
 2477DOPG   C4B51588  11.920  11.520  18.350
 2478DOPG   GL051589  24.510  19.910  12.040
 2478DOPG   PO451590  24.610  19.760  12.420
 2478DOPG   GL151591  24.430  20.200  12.450
 2478DOPG   GL251592  24.390  20.380  12.740
 2478DOPG   C1A51593  24.420  20.600  12.300
 2478DOPG   D2A51594  24.400  20.950  12.070
 2478DOPG   C3A51595  24.590  21.260  12.340
 2478DOPG   C4A51596  24.860  21.650  12.360
 2478DOPG   C1B51597  23.980  20.750  12.670
 2478DOPG   D2B51598  24.070  20.980  12.410
 2478DOPG   C3B51599  23.780  21.320  12.400
 2478DOPG   C4B51600  23.520  21.710  12.430
 2479DOPG   GL051601  22.580  18.060  23.310
 2479DOPG   PO451602  22.720  17.960  22.950
 2479DOPG   GL151603  22.680  17.870  22.480
 2479DOPG   GL251604  22.370  18.070  22.400
 2479DOPG   C1A51605  22.380  17.620  22.240
 2479DOPG   D2A51606  22.090  17.670  21.910
 2479DOPG   C3A51607  21.770  17.990  21.860
 2479DOPG   C4A51608  21.840  18.340  21.660
 2479DOPG   C1B51609  21.880  17.980  22.370
 2479DOPG   D2B51610  21.410  17.850  22.230
 2479DOPG   C3B51611  21.290  18.220  21.940
 2479DOPG   C4B51612  21.330  18.510  21.740
 2480DOPG   GL051613  15.790  25.090  17.360
 2480DOPG   PO451614  16.070  25.530  17.430
 2480DOPG   GL151615  15.990  25.390  17.010
 2480DOPG   GL251616  16.020  25.040  16.860
 2480DOPG   C1A51617  16.040  25.570  16.640
 2480DOPG   D2A51618  16.370  25.420  16.410
 2480DOPG   C3A51619  16.520  25.620  16.130
 2480DOPG   C4A51620  16.790  25.450  15.820
 2480DOPG   C1B51621  16.060  25.050  16.320
 2480DOPG   D2B51622  16.240  25.190  15.850
 2480DOPG   C3B51623  16.540  24.990  15.670
 2480DOPG   C4B51624  16.730  24.660  15.840
 2481DOPG   GL051625   7.780  23.520   6.320
 2481DOPG   PO451626   7.960  23.710   6.010
 2481DOPG   GL151627   8.270  23.470   6.110
 2481DOPG   GL251628   8.290  23.060   5.900
 2481DOPG   C1A51629   8.550  23.190   6.380
 2481DOPG   D2A51630   8.820  23.030   6.680
 2481DOPG   C3A51631   8.900  23.230   7.170
 2481DOPG   C4A51632   8.740  23.360   7.510
 2481DOPG   C1B51633   8.630  22.700   6.030
 2481DOPG   D2B51634   8.790  22.610   6.450
 2481DOPG   C3B51635   8.790  22.300   6.670
 2481DOPG   C4B51636   8.620  21.940   6.740
 2482DOPG   GL051637  19.650  12.570  21.670
 2482DOPG   PO451638  20.060  12.590  21.310
 2482DOPG   GL151639  19.950  12.940  21.030
 2482DOPG   GL251640  20.260  12.820  20.880
 2482DOPG   C1A51641  19.900  13.330  20.700
 2482DOPG   D2A51642  19.610  13.190  20.400
 2482DOPG   C3A51643  19.440  13.440  20.080
 2482DOPG   C4A51644  19.000  13.600  20.110
 2482DOPG   C1B51645  20.370  13.190  20.950
 2482DOPG   D2B51646  20.140  13.480  21.180
 2482DOPG   C3B51647  19.830  13.730  21.140
 2482DOPG   C4B51648  19.450  13.910  21.140
 2483DOPG   GL051649  12.800  17.520  18.820
 2483DOPG   PO451650  12.450  17.670  18.880
 2483DOPG   GL151651  12.330  17.750  19.320
 2483DOPG   GL251652  12.140  17.960  19.360
 2483DOPG   C1A51653  12.380  17.790  19.840
 2483DOPG   D2A51654  12.580  17.640  20.210
 2483DOPG   C3A51655  12.350  17.370  20.560
 2483DOPG   C4A51656  12.070  16.980  20.590
 2483DOPG   C1B51657  11.980  18.200  19.710
 2483DOPG   D2B51658  11.680  18.310  19.880
 2483DOPG   C3B51659  11.700  18.200  20.310
 2483DOPG   C4B51660  11.660  18.330  20.700
 2484DOPG   GL051661  19.830  22.200  11.050
 2484DOPG   PO451662  20.160  22.410  10.820
 2484DOPG   GL151663  20.590  22.360  10.590
 2484DOPG   GL251664  20.550  22.170  10.310
 2484DOPG   C1A51665  20.980  22.300  10.460
 2484DOPG   D2A51666  21.320  22.340  10.110
 2484DOPG   C3A51667  21.530  22.350   9.650
 2484DOPG   C4A51668  21.820  22.290   9.330
 2484DOPG   C1B51669  20.760  22.230   9.970
 2484DOPG   D2B51670  21.020  22.550   9.780
 2484DOPG   C3B51671  20.950  22.990   9.820
 2484DOPG   C4B51672  20.890  23.450  10.090
 2485DOPG   GL051673  23.820  27.600  15.990
 2485DOPG   PO451674  23.390  27.480  15.830
 2485DOPG   GL151675  23.070  27.220  15.760
 2485DOPG   GL251676  23.070  27.180  15.480
 2485DOPG   C1A51677  23.020  26.800  15.900
 2485DOPG   D2A51678  22.750  26.420  15.820
 2485DOPG   C3A51679  22.520  26.210  15.740
 2485DOPG   C4A51680  22.370  25.840  15.920
 2485DOPG   C1B51681  23.060  26.800  15.420
 2485DOPG   D2B51682  23.120  26.300  15.530
 2485DOPG   C3B51683  23.030  25.990  15.790
 2485DOPG   C4B51684  22.830  25.790  16.050
 2486DOPG   GL051685   9.100  30.090   9.160
 2486DOPG   PO451686   9.270  29.880   9.470
 2486DOPG   GL151687   9.500  29.560   9.550
 2486DOPG   GL251688   9.510  29.230   9.340
 2486DOPG   C1A51689   9.870  29.380   9.720
 2486DOPG   D2A51690  10.200  29.060   9.740
 2486DOPG   C3A51691  10.080  28.730  10.060
 2486DOPG   C4A51692   9.860  28.360   9.880
 2486DOPG   C1B51693   9.220  28.900   9.510
 2486DOPG   D2B51694   9.310  28.560   9.850
 2486DOPG   C3B51695   9.240  28.160  10.080
 2486DOPG   C4B51696   9.090  27.750   9.920
 2487DOPG   GL051697   9.080  15.010  22.310
 2487DOPG   PO451698   9.180  14.900  21.870
 2487DOPG   GL151699   9.410  14.600  21.620
 2487DOPG   GL251700   9.480  14.230  21.500
 2487DOPG   C1A51701   9.630  14.700  21.310
 2487DOPG   D2A51702   9.450  14.720  20.880
 2487DOPG   C3A51703   9.540  15.040  20.650
 2487DOPG   C4A51704   9.560  15.400  20.380
 2487DOPG   C1B51705   9.810  14.100  21.270
 2487DOPG   D2B51706   9.890  13.730  20.940
 2487DOPG   C3B51707   9.600  13.660  20.660
 2487DOPG   C4B51708   9.570  13.350  20.370
 2488DOPG   GL051709  20.990  21.790  12.680
 2488DOPG   PO451710  21.030  21.640  13.050
 2488DOPG   GL151711  21.420  21.440  13.140
 2488DOPG   GL251712  21.600  21.720  12.990
 2488DOPG   C1A51713  21.840  21.180  13.000
 2488DOPG   D2A51714  22.190  20.880  13.220
 2488DOPG   C3A51715  22.680  21.010  12.990
 2488DOPG   C4A51716  23.180  21.120  13.050
 2488DOPG   C1B51717  21.980  21.670  13.260
 2488DOPG   D2B51718  22.410  21.370  13.200
 2488DOPG   C3B51719  22.860  21.510  13.120
 2488DOPG   C4B51720  23.240  21.530  12.830
 2489DOPG   GL051721  15.220  21.960  13.730
 2489DOPG   PO451722  14.830  21.950  13.580
 2489DOPG   GL151723  14.460  22.140  13.530
 2489DOPG   GL251724  14.150  22.090  13.680
 2489DOPG   C1A51725  14.190  22.590  13.490
 2489DOPG   D2A51726  13.830  22.610  13.530
 2489DOPG   C3A51727  13.460  22.660  13.140
 2489DOPG   C4A51728  13.070  22.640  13.130
 2489DOPG   C1B51729  13.730  22.140  13.510
 2489DOPG   D2B51730  13.290  22.300  13.530
 2489DOPG   C3B51731  13.210  22.680  13.660
 2489DOPG   C4B51732  12.850  22.920  13.660
 2490DOPG   GL051733  17.960  18.850  11.980
 2490DOPG   PO451734  17.880  18.580  11.780
 2490DOPG   GL151735  17.740  18.180  11.640
 2490DOPG   GL251736  17.340  18.070  11.480
 2490DOPG   C1A51737  17.750  17.830  11.320
 2490DOPG   D2A51738  17.720  17.600  11.090
 2490DOPG   C3A51739  17.780  17.560  10.670
 2490DOPG   C4A51740  18.020  17.410  10.190
 2490DOPG   C1B51741  17.360  18.130  11.010
 2490DOPG   D2B51742  16.950  18.110  10.660
 2490DOPG   C3B51743  17.090  17.960  10.310
 2490DOPG   C4B51744  17.170  17.790   9.910
 2491DOPG   GL051745  15.440  18.030  13.310
 2491DOPG   PO451746  15.120  18.100  13.680
 2491DOPG   GL151747  15.140  17.950  14.000
 2491DOPG   GL251748  15.160  17.680  13.980
 2491DOPG   C1A51749  15.210  17.700  14.440
 2491DOPG   D2A51750  15.110  17.540  14.750
 2491DOPG   C3A51751  15.220  17.200  14.830
 2491DOPG   C4A51752  14.920  16.820  14.920
 2491DOPG   C1B51753  15.220  17.290  14.140
 2491DOPG   D2B51754  15.090  17.050  14.390
 2491DOPG   C3B51755  14.790  16.880  14.250
 2491DOPG   C4B51756  14.500  16.710  14.560
 2492DOPG   GL051757  21.990  24.120  23.840
 2492DOPG   PO451758  22.360  24.160  23.860
 2492DOPG   GL151759  22.160  24.070  23.400
 2492DOPG   GL251760  22.320  23.990  22.980
 2492DOPG   C1A51761  21.980  24.310  23.090
 2492DOPG   D2A51762  21.690  24.350  22.830
 2492DOPG   C3A51763  21.800  24.240  22.350
 2492DOPG   C4A51764  21.970  24.240  21.980
 2492DOPG   C1B51765  22.140  23.890  22.520
 2492DOPG   D2B51766  21.820  23.730  22.330
 2492DOPG   C3B51767  21.490  23.890  22.530
 2492DOPG   C4B51768  21.240  24.090  22.790
 2493DOPG   GL051769   8.650  15.620  13.020
 2493DOPG   PO451770   9.110  15.790  13.080
 2493DOPG   GL151771   9.370  15.700  13.450
 2493DOPG   GL251772   9.280  15.860  13.780
 2493DOPG   C1A51773   9.610  16.110  13.550
 2493DOPG   D2A51774  10.130  16.180  13.640
 2493DOPG   C3A51775  10.390  15.760  13.500
 2493DOPG   C4A51776  10.580  15.540  13.010
 2493DOPG   C1B51777   9.640  15.860  14.070
 2493DOPG   D2B51778  10.150  15.900  14.140
 2493DOPG   C3B51779  10.590  15.970  14.030
 2493DOPG   C4B51780  10.910  16.310  14.180
 2494DOPG   GL051781  18.380  29.790  22.120
 2494DOPG   PO451782  18.030  29.670  22.010
 2494DOPG   GL151783  18.030  29.560  21.560
 2494DOPG   GL251784  18.180  29.670  21.310
 2494DOPG   C1A51785  17.930  29.340  21.130
 2494DOPG   D2A51786  17.950  29.140  20.800
 2494DOPG   C3A51787  18.360  29.150  20.580
 2494DOPG   C4A51788  18.600  29.140  20.220
 2494DOPG   C1B51789  18.470  29.370  21.110
 2494DOPG   D2B51790  18.710  28.940  21.200
 2494DOPG   C3B51791  18.430  28.610  21.490
 2494DOPG   C4B51792  18.260  28.310  21.820
 2495DOPG   GL051793  17.540  24.740  11.570
 2495DOPG   PO451794  17.370  25.090  11.390
 2495DOPG   GL151795  17.310  25.550  11.500
 2495DOPG   GL251796  17.510  25.630  11.250
 2495DOPG   C1A51797  16.970  25.860  11.590
 2495DOPG   D2A51798  16.500  25.950  11.810
 2495DOPG   C3A51799  16.500  26.520  11.850
 2495DOPG   C4A51800  16.260  26.860  11.890
 2495DOPG   C1B51801  17.260  26.040  11.150
 2495DOPG   D2B51802  17.220  26.420  11.320
 2495DOPG   C3B51803  17.480  26.380  11.620
 2495DOPG   C4B51804  17.790  26.590  11.700
 2496DOPG   GL051805  11.680  23.210  13.340
 2496DOPG   PO451806  11.290  23.400  13.460
 2496DOPG   GL151807  11.500  23.060  13.740
 2496DOPG   GL251808  11.690  23.320  13.920
 2496DOPG   C1A51809  11.780  22.830  13.690
 2496DOPG   D2A51810  11.880  22.400  13.710
 2496DOPG   C3A51811  12.140  22.140  13.510
 2496DOPG   C4A51812  12.120  22.030  13.010
 2496DOPG   C1B51813  12.080  23.180  14.050
 2496DOPG   D2B51814  12.420  22.810  13.940
 2496DOPG   C3B51815  12.820  22.770  14.220
 2496DOPG   C4B51816  13.010  22.750  14.660
 2497DOPG   GL051817  26.870  27.670  20.230
 2497DOPG   PO451818  26.800  28.040  20.250
 2497DOPG   GL151819  26.480  27.980  19.940
 2497DOPG   GL251820  26.480  27.660  19.920
 2497DOPG   C1A51821  26.490  27.720  19.410
 2497DOPG   D2A51822  26.160  27.600  19.160
 2497DOPG   C3A51823  26.200  27.330  18.950
 2497DOPG   C4A51824  26.250  26.920  18.910
 2497DOPG   C1B51825  26.650  27.280  19.660
 2497DOPG   D2B51826  26.550  27.110  19.260
 2497DOPG   C3B51827  26.700  27.110  18.850
 2497DOPG   C4B51828  26.930  27.140  18.480
 2498DOPG   GL051829  19.210  24.900  11.700
 2498DOPG   PO451830  19.120  25.310  11.730
 2498DOPG   GL151831  19.240  25.690  11.790
 2498DOPG   GL251832  19.000  25.880  11.800
 2498DOPG   C1A51833  19.410  26.040  11.500
 2498DOPG   D2A51834  19.760  26.360  11.530
 2498DOPG   C3A51835  19.840  26.480  11.900
 2498DOPG   C4A51836  19.800  26.320  12.270
 2498DOPG   C1B51837  18.650  25.890  11.540
 2498DOPG   D2B51838  18.290  25.910  11.390
 2498DOPG   C3B51839  18.160  26.020  11.020
 2498DOPG   C4B51840  18.200  26.520  10.870
 2499DOPG   GL051841  16.750  29.450  21.720
 2499DOPG   PO451842  16.830  29.490  21.250
 2499DOPG   GL151843  16.500  29.470  20.980
 2499DOPG   GL251844  16.620  29.120  20.950
 2499DOPG   C1A51845  16.210  29.450  20.570
 2499DOPG   D2A51846  16.350  29.180  20.370
 2499DOPG   C3A51847  16.640  29.280  20.170
 2499DOPG   C4A51848  17.010  29.390  20.090
 2499DOPG   C1B51849  16.700  28.800  20.930
 2499DOPG   D2B51850  16.810  28.560  20.630
 2499DOPG   C3B51851  16.580  28.790  20.220
 2499DOPG   C4B51852  16.660  28.850  19.860
 2500DOPG   GL051853  10.870  20.170   8.740
 2500DOPG   PO451854  11.090  20.050   9.100
 2500DOPG   GL151855  11.020  19.750   9.420
 2500DOPG   GL251856  11.260  19.630   9.640
 2500DOPG   C1A51857  10.710  19.730   9.760
 2500DOPG   D2A51858  10.500  19.950  10.120
 2500DOPG   C3A51859  10.240  19.820  10.520
 2500DOPG   C4A51860   9.850  20.090  10.650
 2500DOPG   C1B51861  11.060  19.240   9.890
 2500DOPG   D2B51862  11.300  18.760   9.970
 2500DOPG   C3B51863  11.440  18.370  10.080
 2500DOPG   C4B51864  11.100  18.080  10.100
 2501DOPG   GL051865  23.180  29.920  20.370
 2501DOPG   PO451866  22.980  30.310  20.370
 2501DOPG   GL151867  23.140  30.270  19.910
 2501DOPG   GL251868  22.880  30.050  19.650
 2501DOPG   C1A51869  23.250  30.290  19.520
 2501DOPG   D2A51870  23.230  30.420  18.970
 2501DOPG   C3A51871  22.930  30.470  18.650
 2501DOPG   C4A51872  22.850  30.860  18.310
 2501DOPG   C1B51873  23.180  29.780  19.830
 2501DOPG   D2B51874  23.650  29.760  19.680
 2501DOPG   C3B51875  23.710  29.610  19.320
 2501DOPG   C4B51876  23.410  29.290  19.080
 2502DOPG   GL051877   8.070  12.700  14.730
 2502DOPG   PO451878   8.410  12.480  14.820
 2502DOPG   GL151879   8.710  12.740  15.070
 2502DOPG   GL251880   8.690  12.720  15.360
 2502DOPG   C1A51881   9.120  13.000  15.250
 2502DOPG   D2A51882   9.310  13.200  15.780
 2502DOPG   C3A51883   9.730  13.450  15.850
 2502DOPG   C4A51884   9.880  13.810  15.930
 2502DOPG   C1B51885   9.160  12.500  15.300
 2502DOPG   D2B51886   9.450  12.210  15.090
 2502DOPG   C3B51887   9.810  12.040  15.340
 2502DOPG   C4B51888  10.010  11.890  15.700
 2503DOPG   GL051889   9.270  17.380   3.960
 2503DOPG   PO451890   9.580  17.090   4.070
 2503DOPG   GL151891  10.120  17.250   4.240
 2503DOPG   GL251892  10.220  17.470   4.380
 2503DOPG   C1A51893  10.460  17.150   4.620
 2503DOPG   D2A51894  10.830  17.130   4.820
 2503DOPG   C3A51895  10.970  17.500   5.000
 2503DOPG   C4A51896  11.040  17.890   5.260
 2503DOPG   C1B51897  10.430  17.710   4.720
 2503DOPG   D2B51898  10.790  18.010   4.800
 2503DOPG   C3B51899  10.680  18.350   5.180
 2503DOPG   C4B51900  10.470  18.610   5.500
 2504DOPG   GL051901  20.350  25.040  12.480
 2504DOPG   PO451902  20.720  25.290  12.610
 2504DOPG   GL151903  20.810  25.740  12.410
 2504DOPG   GL251904  20.590  25.900  12.240
 2504DOPG   C1A51905  21.090  26.000  12.270
 2504DOPG   D2A51906  21.190  26.260  11.930
 2504DOPG   C3A51907  21.060  26.270  11.510
 2504DOPG   C4A51908  21.120  26.400  11.120
 2504DOPG   C1B51909  20.260  26.160  12.240
 2504DOPG   D2B51910  20.280  26.620  12.200
 2504DOPG   C3B51911  20.120  26.980  12.340
 2504DOPG   C4B51912  20.000  27.390  12.300
 2505DOPG   GL051913  15.940  20.380  10.550
 2505DOPG   PO451914  16.110  20.180  10.780
 2505DOPG   GL151915  16.210  20.030  10.360
 2505DOPG   GL251916  16.450  20.040  10.220
 2505DOPG   C1A51917  15.970  19.740   9.990
 2505DOPG   D2A51918  15.880  19.250  10.020
 2505DOPG   C3A51919  16.080  18.940   9.780
 2505DOPG   C4A51920  16.170  18.590   9.890
 2505DOPG   C1B51921  16.460  19.750   9.960
 2505DOPG   D2B51922  16.260  19.390   9.780
 2505DOPG   C3B51923  15.910  19.500   9.520
 2505DOPG   C4B51924  15.880  19.590   9.160
 2506DOPG   GL051925  17.790  28.520  14.760
 2506DOPG   PO451926  18.150  28.570  14.810
 2506DOPG   GL151927  18.130  28.190  14.610
 2506DOPG   GL251928  18.190  28.020  14.250
 2506DOPG   C1A51929  18.130  27.800  14.720
 2506DOPG   D2A51930  18.210  27.410  14.790
 2506DOPG   C3A51931  18.050  27.070  14.640
 2506DOPG   C4A51932  18.100  26.830  14.230
 2506DOPG   C1B51933  18.120  27.560  14.270
 2506DOPG   D2B51934  17.990  27.310  13.960
 2506DOPG   C3B51935  18.360  27.360  13.670
 2506DOPG   C4B51936  18.850  27.270  13.760
 2507DOPG   GL051937  15.860  10.800   4.500
 2507DOPG   PO451938  16.250  11.180   4.480
 2507DOPG   GL151939  16.350  11.440   4.780
 2507DOPG   GL251940  16.670  11.620   4.830
 2507DOPG   C1A51941  16.060  11.640   5.130
 2507DOPG   D2A51942  16.150  11.970   5.510
 2507DOPG   C3A51943  15.780  12.220   5.640
 2507DOPG   C4A51944  15.720  12.640   5.960
 2507DOPG   C1B51945  16.620  11.710   5.300
 2507DOPG   D2B51946  17.040  11.710   5.550
 2507DOPG   C3B51947  17.170  12.230   5.600
 2507DOPG   C4B51948  17.550  12.480   5.880
 2508DOPG   GL051949  17.060  17.220  18.280
 2508DOPG   PO451950  17.320  16.950  18.590
 2508DOPG   GL151951  17.600  16.980  18.240
 2508DOPG   GL251952  17.540  17.360  18.200
 2508DOPG   C1A51953  17.590  17.030  17.760
 2508DOPG   D2A51954  17.840  17.200  17.450
 2508DOPG   C3A51955  17.690  17.430  17.030
 2508DOPG   C4A51956  17.810  17.610  16.680
 2508DOPG   C1B51957  17.320  17.730  18.060
 2508DOPG   D2B51958  17.140  17.960  17.740
 2508DOPG   C3B51959  16.850  18.240  17.590
 2508DOPG   C4B51960  16.900  18.410  17.280
 2509DOPG   GL051961  12.000  17.150  12.070
 2509DOPG   PO451962  12.200  16.820  11.990
 2509DOPG   GL151963  12.400  16.590  11.800
 2509DOPG   GL251964  12.320  16.360  11.550
 2509DOPG   C1A51965  12.530  16.090  11.930
 2509DOPG   D2A51966  12.740  15.590  11.680
 2509DOPG   C3A51967  13.110  15.420  11.900
 2509DOPG   C4A51968  13.330  15.220  12.150
 2509DOPG   C1B51969  12.480  15.980  11.280
 2509DOPG   D2B51970  12.370  15.560  11.230
 2509DOPG   C3B51971  12.440  15.290  10.900
 2509DOPG   C4B51972  12.740  14.960  10.840
 2510DOPG   GL051973  17.230  27.470  23.260
 2510DOPG   PO451974  17.070  27.750  23.050
 2510DOPG   GL151975  17.300  27.390  22.770
 2510DOPG   GL251976  17.590  27.500  22.750
 2510DOPG   C1A51977  17.350  27.070  22.430
 2510DOPG   D2A51978  17.530  27.080  22.030
 2510DOPG   C3A51979  17.320  27.240  21.740
 2510DOPG   C4A51980  17.350  27.280  21.330
 2510DOPG   C1B51981  17.790  27.280  22.470
 2510DOPG   D2B51982  18.150  27.080  22.220
 2510DOPG   C3B51983  18.000  27.050  21.880
 2510DOPG   C4B51984  18.100  26.720  21.750
 2511DOPG   GL051985   9.230  21.770  14.930
 2511DOPG   PO451986   8.730  21.840  14.770
 2511DOPG   GL151987   8.370  21.950  14.650
 2511DOPG   GL251988   8.200  22.170  14.470
 2511DOPG   C1A51989   7.880  21.740  14.410
 2511DOPG   D2A51990   7.700  21.480  14.060
 2511DOPG   C3A51991   7.380  21.570  13.780
 2511DOPG   C4A51992   6.890  21.530  13.660
 2511DOPG   C1B51993   8.040  22.450  14.790
 2511DOPG   D2B51994   8.050  22.710  15.130
 2511DOPG   C3B51995   7.850  22.670  15.530
 2511DOPG   C4B51996   7.770  22.640  15.890
 2512DOPG   GL051997  13.710  15.330  23.400
 2512DOPG   PO451998  13.830  15.480  23.020
 2512DOPG   GL151999  13.880  15.720  22.670
 2512DOPG   GL252000  14.160  15.700  22.530
 2512DOPG   C1A52001  13.650  15.910  22.370
 2512DOPG   D2A52002  13.430  16.120  22.130
 2512DOPG   C3A52003  13.630  16.500  22.140
 2512DOPG   C4A52004  13.450  16.900  22.000
 2512DOPG   C1B52005  14.470  15.590  22.190
 2512DOPG   D2B52006  14.870  15.720  22.070
 2512DOPG   C3B52007  15.000  16.150  22.020
 2512DOPG   C4B52008  14.910  16.490  21.660
 2513DOPG   GL052009  15.500  22.460  12.900
 2513DOPG   PO452010  15.110  22.520  12.710
 2513DOPG   GL152011  14.860  22.850  13.030
 2513DOPG   GL252012  14.610  22.600  13.210
 2513DOPG   C1A52013  14.500  23.190  13.010
 2513DOPG   D2A52014  14.130  23.290  12.970
 2513DOPG   C3A52015  13.850  23.450  13.350
 2513DOPG   C4A52016  13.920  23.680  13.700
 2513DOPG   C1B52017  14.180  22.770  13.030
 2513DOPG   D2B52018  13.800  23.030  13.140
 2513DOPG   C3B52019  13.450  23.280  12.860
 2513DOPG   C4B52020  13.110  23.620  12.880
 2514DOPG   GL052021  13.950  30.570  20.170
 2514DOPG   PO452022  14.320  30.350  20.270
 2514DOPG   GL152023  14.360  30.260  19.890
 2514DOPG   GL252024  14.370  29.930  19.900
 2514DOPG   C1A52025  14.370  30.070  19.430
 2514DOPG   D2A52026  14.310  29.790  19.090
 2514DOPG   C3A52027  14.440  29.350  19.130
 2514DOPG   C4A52028  14.650  29.100  18.990
 2514DOPG   C1B52029  14.250  29.600  19.600
 2514DOPG   D2B52030  14.220  29.160  19.760
 2514DOPG   C3B52031  14.070  28.780  19.620
 2514DOPG   C4B52032  13.760  28.420  19.690
 2515DOPG   GL052033  21.830  22.950  13.320
 2515DOPG   PO452034  22.020  23.300  13.300
 2515DOPG   GL152035  22.470  23.360  13.410
 2515DOPG   GL252036  22.570  23.660  13.580
 2515DOPG   C1A52037  22.880  23.310  13.260
 2515DOPG   D2A52038  23.280  23.210  13.240
 2515DOPG   C3A52039  23.400  23.070  12.980
 2515DOPG   C4A52040  23.470  22.840  12.640
 2515DOPG   C1B52041  22.940  23.820  13.230
 2515DOPG   D2B52042  23.260  24.110  13.040
 2515DOPG   C3B52043  23.340  24.530  13.150
 2515DOPG   C4B52044  23.140  24.720  13.500
 2516DOPG   GL052045  19.200  34.430  11.110
 2516DOPG   PO452046  19.210  34.000  11.100
 2516DOPG   GL152047  19.330  33.730  11.310
 2516DOPG   GL252048  19.270  33.420  11.180
 2516DOPG   C1A52049  19.640  33.640  11.560
 2516DOPG   D2A52050  19.600  33.530  12.050
 2516DOPG   C3A52051  19.230  33.290  12.340
 2516DOPG   C4A52052  19.190  33.010  12.630
 2516DOPG   C1B52053  19.350  33.250  11.400
 2516DOPG   D2B52054  19.570  33.090  11.790
 2516DOPG   C3B52055  19.710  32.580  11.900
 2516DOPG   C4B52056  20.080  32.300  11.720
 2517DOPG   GL052057  17.800  21.600  15.490
 2517DOPG   PO452058  17.490  21.860  15.540
 2517DOPG   GL152059  17.230  22.010  15.850
 2517DOPG   GL252060  17.050  21.790  16.020
 2517DOPG   C1A52061  17.070  22.210  16.280
 2517DOPG   D2A52062  16.880  22.260  16.690
 2517DOPG   C3A52063  16.650  21.900  16.910
 2517DOPG   C4A52064  16.750  21.430  16.780
 2517DOPG   C1B52065  17.180  21.790  16.460
 2517DOPG   D2B52066  17.390  21.780  16.830
 2517DOPG   C3B52067  17.130  21.980  17.120
 2517DOPG   C4B52068  17.230  22.100  17.530
 2518DOPG   GL052069  11.060  31.040  15.410
 2518DOPG   PO452070  11.320  31.270  15.160
 2518DOPG   GL152071  11.590  30.930  14.870
 2518DOPG   GL252072  11.390  30.810  14.550
 2518DOPG   C1A52073  11.890  30.570  15.000
 2518DOPG   D2A52074  12.330  30.290  15.150
 2518DOPG   C3A52075  12.260  29.860  14.980
 2518DOPG   C4A52076  12.470  29.470  14.830
 2518DOPG   C1B52077  11.740  30.540  14.410
 2518DOPG   D2B52078  12.200  30.420  14.570
 2518DOPG   C3B52079  12.340  30.050  14.550
 2518DOPG   C4B52080  12.800  29.750  14.640
 2519DOPG   GL052081  22.380  18.610  17.150
 2519DOPG   PO452082  22.230  18.860  17.480
 2519DOPG   GL152083  22.390  19.060  17.250
 2519DOPG   GL252084  22.210  19.070  16.970
 2519DOPG   C1A52085  22.750  19.290  16.930
 2519DOPG   D2A52086  22.850  19.480  16.450
 2519DOPG   C3A52087  22.540  19.850  16.190
 2519DOPG   C4A52088  22.210  19.790  15.880
 2519DOPG   C1B52089  22.010  19.100  16.600
 2519DOPG   D2B52090  21.560  19.170  16.540
 2519DOPG   C3B52091  21.310  19.410  16.240
 2519DOPG   C4B52092  20.990  19.770  16.410
 2520DOPG   GL052093   8.040  26.740   8.010
 2520DOPG   PO452094   8.020  26.410   7.740
 2520DOPG   GL152095   8.210  26.270   8.120
 2520DOPG   GL252096   8.530  26.360   8.010
 2520DOPG   C1A52097   8.160  26.180   8.630
 2520DOPG   D2A52098   7.760  26.220   8.900
 2520DOPG   C3A52099   7.450  26.100   9.100
 2520DOPG   C4A52100   7.420  25.680   9.410
 2520DOPG   C1B52101   8.740  25.910   8.140
 2520DOPG   D2B52102   9.220  25.800   8.140
 2520DOPG   C3B52103   9.390  25.370   8.410
 2520DOPG   C4B52104   9.310  25.000   8.770
 2521DOPG   GL052105  23.740  32.460  18.160
 2521DOPG   PO452106  24.040  32.210  18.380
 2521DOPG   GL152107  23.920  31.790  18.230
 2521DOPG   GL252108  24.030  31.370  18.170
 2521DOPG   C1A52109  23.670  31.460  17.800
 2521DOPG   D2A52110  23.480  31.080  17.800
 2521DOPG   C3A52111  23.290  31.110  18.120
 2521DOPG   C4A52112  22.980  31.320  18.300
 2521DOPG   C1B52113  24.000  31.040  17.780
 2521DOPG   D2B52114  23.720  30.650  17.710
 2521DOPG   C3B52115  23.870  30.350  17.440
 2521DOPG   C4B52116  23.720  29.940  17.170
 2522DOPG   GL052117  19.360  19.980  14.680
 2522DOPG   PO452118  19.430  19.880  15.090
 2522DOPG   GL152119  19.540  19.760  15.480
 2522DOPG   GL252120  19.210  19.620  15.660
 2522DOPG   C1A52121  19.640  19.770  15.950
 2522DOPG   D2A52122  19.810  19.880  16.360
 2522DOPG   C3A52123  19.770  19.630  16.780
 2522DOPG   C4A52124  19.740  19.650  17.230
 2522DOPG   C1B52125  19.420  19.340  15.750
 2522DOPG   D2B52126  19.770  18.950  15.780
 2522DOPG   C3B52127  19.640  18.470  15.660
 2522DOPG   C4B52128  19.640  18.300  16.100
 2523DOPG   GL052129  20.160  20.830  12.370
 2523DOPG   PO452130  20.420  20.730  12.070
 2523DOPG   GL152131  20.660  20.320  12.000
 2523DOPG   GL252132  20.940  20.180  12.260
 2523DOPG   C1A52133  21.040  20.100  11.730
 2523DOPG   D2A52134  21.280  19.850  11.410
 2523DOPG   C3A52135  21.570  19.510  11.540
 2523DOPG   C4A52136  21.720  19.080  11.300
 2523DOPG   C1B52137  21.350  20.150  12.140
 2523DOPG   D2B52138  21.740  20.060  12.350
 2523DOPG   C3B52139  22.130  19.800  12.210
 2523DOPG   C4B52140  22.320  19.570  12.460
 2524DOPG   GL052141  26.800  21.410  21.080
 2524DOPG   PO452142  27.270  21.570  21.030
 2524DOPG   GL152143  27.170  21.670  20.640
 2524DOPG   GL252144  27.120  21.550  20.370
 2524DOPG   C1A52145  26.780  21.890  20.510
 2524DOPG   D2A52146  26.640  22.030  20.150
 2524DOPG   C3A52147  26.230  22.080  19.850
 2524DOPG   C4A52148  25.960  22.130  19.510
 2524DOPG   C1B52149  27.030  21.900  19.920
 2524DOPG   D2B52150  26.920  21.910  19.570
 2524DOPG   C3B52151  26.550  22.010  19.410
 2524DOPG   C4B52152  26.300  22.490  19.350
 2525DOPG   GL052153   8.700  11.640  16.570
 2525DOPG   PO452154   8.920  11.950  16.690
 2525DOPG   GL152155   9.230  12.100  16.590
 2525DOPG   GL252156   9.560  11.890  16.540
 2525DOPG   C1A52157   9.580  12.450  16.580
 2525DOPG   D2A52158   9.980  12.610  16.550
 2525DOPG   C3A52159  10.070  13.030  16.700
 2525DOPG   C4A52160  10.250  13.440  16.910
 2525DOPG   C1B52161   9.910  12.030  16.600
 2525DOPG   D2B52162  10.340  12.130  16.500
 2525DOPG   C3B52163  10.600  12.340  16.260
 2525DOPG   C4B52164  10.740  12.670  16.100
 2526DOPG   GL052165  17.010  18.800   5.270
 2526DOPG   PO452166  17.300  18.830   4.880
 2526DOPG   GL152167  17.290  19.100   4.450
 2526DOPG   GL252168  17.380  18.920   4.260
 2526DOPG   C1A52169  17.290  19.340   3.990
 2526DOPG   D2A52170  17.390  19.320   3.560
 2526DOPG   C3A52171  17.740  19.200   3.340
 2526DOPG   C4A52172  18.070  19.330   3.100
 2526DOPG   C1B52173  17.230  18.910   3.760
 2526DOPG   D2B52174  17.220  18.870   3.310
 2526DOPG   C3B52175  16.980  19.010   2.980
 2526DOPG   C4B52176  16.850  18.900   2.560
 2527DOPG   GL052177  12.710  25.120   9.680
 2527DOPG   PO452178  12.630  25.400  10.050
 2527DOPG   GL152179  12.760  24.940  10.140
 2527DOPG   GL252180  13.000  24.840   9.930
 2527DOPG   C1A52181  12.850  24.550  10.370
 2527DOPG   D2A52182  12.890  24.550  10.840
 2527DOPG   C3A52183  13.180  24.170  10.840
 2527DOPG   C4A52184  13.370  23.810  11.050
 2527DOPG   C1B52185  13.340  24.510  10.030
 2527DOPG   D2B52186  13.570  24.170  10.080
 2527DOPG   C3B52187  14.050  24.340  10.260
 2527DOPG   C4B52188  14.200  24.290  10.590
 2528DOPG   GL052189  27.590  20.450  21.440
 2528DOPG   PO452190  27.320  20.790  21.380
 2528DOPG   GL152191  27.000  20.870  21.040
 2528DOPG   GL252192  27.080  21.110  20.720
 2528DOPG   C1A52193  26.580  21.030  21.000
 2528DOPG   D2A52194  26.240  20.900  20.710
 2528DOPG   C3A52195  26.020  21.040  20.460
 2528DOPG   C4A52196  25.810  21.420  20.400
 2528DOPG   C1B52197  26.660  21.330  20.510
 2528DOPG   D2B52198  26.340  21.510  20.270
 2528DOPG   C3B52199  26.120  21.830  20.350
 2528DOPG   C4B52200  25.710  21.910  20.200
 2529DOPG   GL052201  11.160  18.000  13.010
 2529DOPG   PO452202  11.120  18.330  12.650
 2529DOPG   GL152203  11.090  18.520  13.020
 2529DOPG   GL252204  11.350  18.730  13.130
 2529DOPG   C1A52205  10.840  18.640  13.410
 2529DOPG   D2A52206  10.820  18.500  13.910
 2529DOPG   C3A52207  11.170  18.300  13.980
 2529DOPG   C4A52208  11.600  18.450  14.140
 2529DOPG   C1B52209  11.120  19.050  13.280
 2529DOPG   D2B52210  10.920  19.500  13.230
 2529DOPG   C3B52211  11.310  19.770  13.400
 2529DOPG   C4B52212  11.610  19.910  13.240
 2530DOPG   GL052213   8.360  16.690   5.570
 2530DOPG   PO452214   8.890  16.720   5.580
 2530DOPG   GL152215   9.190  16.820   5.980
 2530DOPG   GL252216   9.070  17.080   6.170
 2530DOPG   C1A52217   9.520  17.210   6.050
 2530DOPG   D2A52218   9.430  17.720   6.020
 2530DOPG   C3A52219   9.700  17.860   6.360
 2530DOPG   C4A52220   9.780  18.130   6.590
 2530DOPG   C1B52221   9.160  17.510   6.400
 2530DOPG   D2B52222   9.340  17.780   6.720
 2530DOPG   C3B52223   9.650  17.630   7.020
 2530DOPG   C4B52224   9.780  17.770   7.420
 2531DOPG   GL052225  19.990  22.960  10.730
 2531DOPG   PO452226  20.240  22.800  10.430
 2531DOPG   GL152227  20.700  22.780  10.330
 2531DOPG   GL252228  20.580  22.660  10.070
 2531DOPG   C1A52229  21.050  22.710  10.260
 2531DOPG   D2A52230  21.300  22.910  10.210
 2531DOPG   C3A52231  21.630  23.080  10.610
 2531DOPG   C4A52232  21.790  22.990  10.980
 2531DOPG   C1B52233  20.530  22.790   9.630
 2531DOPG   D2B52234  20.830  22.890   9.230
 2531DOPG   C3B52235  21.230  22.720   9.280
 2531DOPG   C4B52236  21.650  22.840   9.140
 2532DOPG   GL052237  15.260  11.990  20.890
 2532DOPG   PO452238  14.960  12.250  20.960
 2532DOPG   GL152239  15.060  12.550  20.710
 2532DOPG   GL252240  15.400  12.350  20.590
 2532DOPG   C1A52241  15.340  12.880  20.690
 2532DOPG   D2A52242  15.550  13.250  20.560
 2532DOPG   C3A52243  15.410  13.560  20.220
 2532DOPG   C4A52244  15.490  13.640  19.880
 2532DOPG   C1B52245  15.660  12.300  20.210
 2532DOPG   D2B52246  15.850  12.300  19.830
 2532DOPG   C3B52247  15.660  12.310  19.410
 2532DOPG   C4B52248  15.510  12.570  19.190
 2533DOPG   GL052249  21.540  23.540  15.130
 2533DOPG   PO452250  21.850  23.680  15.400
 2533DOPG   GL152251  22.240  23.880  15.540
 2533DOPG   GL252252  22.310  23.760  15.170
 2533DOPG   C1A52253  22.510  23.800  15.890
 2533DOPG   D2A52254  22.450  23.600  16.220
 2533DOPG   C3A52255  22.240  23.140  16.300
 2533DOPG   C4A52256  21.860  23.010  16.460
 2533DOPG   C1B52257  22.500  23.470  15.500
 2533DOPG   D2B52258  22.650  23.160  15.770
 2533DOPG   C3B52259  22.470  22.890  16.010
 2533DOPG   C4B52260  22.720  22.900  16.510
 2534DOPG   GL052261  16.570  24.400  11.630
 2534DOPG   PO452262  16.260  24.140  11.890
 2534DOPG   GL152263  16.030  24.450  11.910
 2534DOPG   GL252264  16.290  24.750  11.910
 2534DOPG   C1A52265  15.800  24.830  12.150
 2534DOPG   D2A52266  15.430  24.920  12.230
 2534DOPG   C3A52267  15.100  25.360  12.080
 2534DOPG   C4A52268  14.820  25.280  11.750
 2534DOPG   C1B52269  16.240  24.750  11.520
 2534DOPG   D2B52270  16.180  25.110  11.270
 2534DOPG   C3B52271  15.920  25.370  11.200
 2534DOPG   C4B52272  15.930  25.770  10.830
 2535DOPG   GL052273  23.000  31.400  19.970
 2535DOPG   PO452274  22.820  31.400  19.680
 2535DOPG   GL152275  22.770  31.310  19.220
 2535DOPG   GL252276  22.420  31.250  19.300
 2535DOPG   C1A52277  22.970  31.030  18.780
 2535DOPG   D2A52278  23.320  30.810  18.620
 2535DOPG   C3A52279  23.310  30.490  18.390
 2535DOPG   C4A52280  23.100  30.100  18.320
 2535DOPG   C1B52281  22.210  30.960  19.060
 2535DOPG   D2B52282  21.960  30.710  18.770
 2535DOPG   C3B52283  22.080  30.270  18.560
 2535DOPG   C4B52284  22.030  30.040  18.150
 2536DOPG   GL052285   7.330  18.770   7.750
 2536DOPG   PO452286   7.440  18.370   7.640
 2536DOPG   GL152287   7.810  18.610   7.620
 2536DOPG   GL252288   7.810  18.880   7.900
 2536DOPG   C1A52289   8.150  18.680   7.450
 2536DOPG   D2A52290   8.280  18.630   7.060
 2536DOPG   C3A52291   8.390  18.310   6.800
 2536DOPG   C4A52292   8.740  18.300   6.470
 2536DOPG   C1B52293   8.280  19.020   7.770
 2536DOPG   D2B52294   8.690  18.880   7.800
 2536DOPG   C3B52295   8.900  19.110   8.000
 2536DOPG   C4B52296   9.040  18.850   8.320
 2537DOPG   GL052297  18.420  24.370  14.660
 2537DOPG   PO452298  18.760  24.300  15.010
 2537DOPG   GL152299  18.670  24.610  15.360
 2537DOPG   GL252300  18.520  24.840  15.290
 2537DOPG   C1A52301  18.400  24.790  15.780
 2537DOPG   D2A52302  18.270  25.250  15.900
 2537DOPG   C3A52303  18.370  25.570  15.810
 2537DOPG   C4A52304  17.980  25.830  15.690
 2537DOPG   C1B52305  18.190  25.080  15.410
 2537DOPG   D2B52306  17.880  25.370  15.600
 2537DOPG   C3B52307  17.660  25.720  15.320
 2537DOPG   C4B52308  17.420  25.990  15.170
 2538DOPG   GL052309  22.900  33.750  11.590
 2538DOPG   PO452310  22.660  33.630  11.920
 2538DOPG   GL152311  22.280  33.290  11.860
 2538DOPG   GL252312  22.500  33.050  11.750
 2538DOPG   C1A52313  21.930  33.010  11.730
 2538DOPG   D2A52314  21.470  33.000  11.820
 2538DOPG   C3A52315  21.120  32.700  11.740
 2538DOPG   C4A52316  20.660  32.530  11.830
 2538DOPG   C1B52317  22.350  32.710  11.510
 2538DOPG   D2B52318  22.170  32.480  11.800
 2538DOPG   C3B52319  21.750  32.460  11.730
 2538DOPG   C4B52320  21.390  32.320  11.510
 2539DOPG   GL052321  21.630  23.030  14.930
 2539DOPG   PO452322  21.250  23.110  15.180
 2539DOPG   GL152323  21.220  22.920  15.570
 2539DOPG   GL252324  21.100  23.040  15.890
 2539DOPG   C1A52325  21.310  22.540  15.740
 2539DOPG   D2A52326  21.730  22.590  16.160
 2539DOPG   C3A52327  21.650  22.280  16.480
 2539DOPG   C4A52328  21.300  22.060  16.690
 2539DOPG   C1B52329  21.580  23.000  15.870
 2539DOPG   D2B52330  21.920  23.240  15.940
 2539DOPG   C3B52331  21.980  23.570  16.360
 2539DOPG   C4B52332  21.700  23.850  16.530
 2540DOPG   GL052333  16.670  18.800  11.330
 2540DOPG   PO452334  16.910  18.540  11.580
 2540DOPG   GL152335  16.890  18.240  11.200
 2540DOPG   GL252336  16.700  18.380  11.030
 2540DOPG   C1A52337  16.820  17.760  11.050
 2540DOPG   D2A52338  16.890  17.290  10.930
 2540DOPG   C3A52339  16.540  17.200  10.680
 2540DOPG   C4A52340  16.080  17.010  10.590
 2540DOPG   C1B52341  16.310  18.190  10.780
 2540DOPG   D2B52342  15.900  18.000  10.730
 2540DOPG   C3B52343  15.690  17.610  10.550
 2540DOPG   C4B52344  15.250  17.550  10.570
 2541DOPG   GL052345  10.410  23.180  12.390
 2541DOPG   PO452346  10.610  23.030  12.690
 2541DOPG   GL152347  10.970  22.840  12.760
 2541DOPG   GL252348  11.260  22.950  12.530
 2541DOPG   C1A52349  11.210  22.590  12.920
 2541DOPG   D2A52350  11.200  22.110  12.700
 2541DOPG   C3A52351  11.520  21.890  12.780
 2541DOPG   C4A52352  11.650  21.700  13.040
 2541DOPG   C1B52353  11.570  22.570  12.540
 2541DOPG   D2B52354  11.810  22.360  12.810
 2541DOPG   C3B52355  12.220  22.480  12.980
 2541DOPG   C4B52356  12.670  22.340  12.840
 2542DOPG   GL052357   7.730  18.210  11.290
 2542DOPG   PO452358   8.040  18.040  11.060
 2542DOPG   GL152359   8.390  18.240  11.220
 2542DOPG   GL252360   8.300  18.110  11.560
 2542DOPG   C1A52361   8.660  18.400  11.480
 2542DOPG   D2A52362   8.890  18.770  11.530
 2542DOPG   C3A52363   8.670  19.190  11.430
 2542DOPG   C4A52364   8.470  19.470  11.330
 2542DOPG   C1B52365   8.270  18.540  11.650
 2542DOPG   D2B52366   8.390  18.830  11.770
 2542DOPG   C3B52367   8.300  18.920  12.200
 2542DOPG   C4B52368   8.610  19.250  12.460
 2543DOPG   GL052369  12.010  10.890   7.860
 2543DOPG   PO452370  12.150  10.980   8.270
 2543DOPG   GL152371  12.350  11.360   8.450
 2543DOPG   GL252372  12.330  11.620   8.590
 2543DOPG   C1A52373  12.680  11.580   8.270
 2543DOPG   D2A52374  12.660  12.020   8.190
 2543DOPG   C3A52375  12.440  12.180   8.590
 2543DOPG   C4A52376  12.700  12.460   8.910
 2543DOPG   C1B52377  12.630  11.850   8.860
 2543DOPG   D2B52378  13.020  12.070   8.960
 2543DOPG   C3B52379  13.370  12.000   8.700
 2543DOPG   C4B52380  13.380  12.110   8.330
 2544DOPG   GL052381  21.810  27.090  23.510
 2544DOPG   PO452382  21.700  27.170  23.040
 2544DOPG   GL152383  21.630  26.800  22.740
 2544DOPG   GL252384  21.840  26.660  22.620
 2544DOPG   C1A52385  21.380  26.620  22.480
 2544DOPG   D2A52386  21.210  26.220  22.150
 2544DOPG   C3A52387  21.470  25.950  21.890
 2544DOPG   C4A52388  21.620  25.700  21.440
 2544DOPG   C1B52389  22.080  26.230  22.490
 2544DOPG   D2B52390  22.030  25.920  22.140
 2544DOPG   C3B52391  21.990  26.000  21.710
 2544DOPG   C4B52392  21.950  26.110  21.250
 2545DOPG   GL052393  29.380  29.900  13.290
 2545DOPG   PO452394  29.050  29.560  13.270
 2545DOPG   GL152395  28.640  29.310  13.250
 2545DOPG   GL252396  28.720  29.040  13.470
 2545DOPG   C1A52397  28.300  29.140  13.220
 2545DOPG   D2A52398  27.960  29.210  12.940
 2545DOPG   C3A52399  27.560  29.220  12.910
 2545DOPG   C4A52400  27.130  29.010  13.070
 2545DOPG   C1B52401  28.520  28.660  13.260
 2545DOPG   D2B52402  28.050  28.580  13.280
 2545DOPG   C3B52403  27.750  28.330  13.490
 2545DOPG   C4B52404  27.500  28.070  13.460
 2546DOPG   GL052405   8.210  14.990  13.920
 2546DOPG   PO452406   8.000  14.920  14.290
 2546DOPG   GL152407   8.260  15.090  14.450
 2546DOPG   GL252408   8.600  15.010  14.610
 2546DOPG   C1A52409   8.250  15.580  14.710
 2546DOPG   D2A52410   8.180  15.920  14.980
 2546DOPG   C3A52411   8.280  15.950  15.440
 2546DOPG   C4A52412   8.630  16.120  15.640
 2546DOPG   C1B52413   8.720  15.450  14.440
 2546DOPG   D2B52414   8.730  15.870  14.520
 2546DOPG   C3B52415   8.690  15.950  14.930
 2546DOPG   C4B52416   8.940  16.290  15.260
 2547DOPG   GL052417  10.090  12.230  11.830
 2547DOPG   PO452418  10.170  11.820  12.160
 2547DOPG   GL152419  10.530  12.100  12.130
 2547DOPG   GL252420  10.590  12.330  12.520
 2547DOPG   C1A52421  10.750  12.300  11.820
 2547DOPG   D2A52422  11.250  12.390  11.780
 2547DOPG   C3A52423  11.580  12.620  11.720
 2547DOPG   C4A52424  11.970  12.720  11.500
 2547DOPG   C1B52425  10.830  12.670  12.620
 2547DOPG   D2B52426  11.040  12.930  12.500
 2547DOPG   C3B52427  11.410  13.170  12.570
 2547DOPG   C4B52428  11.530  13.650  12.600
 2548DOPG   GL052429  10.850  14.510   4.460
 2548DOPG   PO452430  10.900  14.510   4.890
 2548DOPG   GL152431  11.230  14.470   5.120
 2548DOPG   GL252432  11.310  14.790   5.030
 2548DOPG   C1A52433  11.650  14.390   5.210
 2548DOPG   D2A52434  12.080  14.470   5.430
 2548DOPG   C3A52435  12.140  14.710   5.830
 2548DOPG   C4A52436  12.360  14.640   6.110
 2548DOPG   C1B52437  11.630  15.080   5.210
 2548DOPG   D2B52438  11.810  15.290   4.850
 2548DOPG   C3B52439  12.020  15.010   4.590
 2548DOPG   C4B52440  12.200  14.650   4.280
 2549DOPG   GL052441   9.410  27.270   6.160
 2549DOPG   PO452442   9.720  27.410   6.390
 2549DOPG   GL152443   9.940  27.010   6.430
 2549DOPG   GL252444   9.960  26.810   6.680
 2549DOPG   C1A52445  10.390  26.980   6.540
 2549DOPG   D2A52446  10.840  26.950   6.600
 2549DOPG   C3A52447  10.960  26.610   6.760
 2549DOPG   C4A52448  11.300  26.390   6.950
 2549DOPG   C1B52449  10.130  26.590   7.170
 2549DOPG   D2B52450   9.970  26.450   7.510
 2549DOPG   C3B52451  10.230  26.180   7.750
 2549DOPG   C4B52452  10.400  26.150   8.150
 2550DOPG   GL052453  14.690  13.520  11.170
 2550DOPG   PO452454  14.320  13.780  11.230
 2550DOPG   GL152455  14.010  14.050  11.030
 2550DOPG   GL252456  13.920  13.850  10.790
 2550DOPG   C1A52457  13.750  14.380  11.130
 2550DOPG   D2A52458  13.350  14.520  10.920
 2550DOPG   C3A52459  13.110  14.660  11.070
 2550DOPG   C4A52460  13.070  14.820  11.400
 2550DOPG   C1B52461  13.510  14.040  10.930
 2550DOPG   D2B52462  13.100  13.970  10.760
 2550DOPG   C3B52463  12.820  13.880  11.080
 2550DOPG   C4B52464  12.450  13.940  11.280
 2551DOPG   GL052465  15.950  20.260  15.430
 2551DOPG   PO452466  15.750  20.080  15.520
 2551DOPG   GL152467  15.780  19.960  15.840
 2551DOPG   GL252468  16.060  20.090  16.020
 2551DOPG   C1A52469  15.770  19.760  16.250
 2551DOPG   D2A52470  15.630  19.620  16.670
 2551DOPG   C3A52471  15.700  19.510  17.040
 2551DOPG   C4A52472  15.740  19.140  17.250
 2551DOPG   C1B52473  15.850  20.380  16.340
 2551DOPG   D2B52474  15.700  20.400  16.740
 2551DOPG   C3B52475  15.760  20.040  17.050
 2551DOPG   C4B52476  15.880  19.910  17.540
 2552DOPG   GL052477  21.870  24.020  19.250
 2552DOPG   PO452478  21.810  23.850  19.680
 2552DOPG   GL152479  22.050  23.870  20.070
 2552DOPG   GL252480  21.930  24.070  20.320
 2552DOPG   C1A52481  22.290  23.740  20.430
 2552DOPG   D2A52482  22.440  23.870  20.850
 2552DOPG   C3A52483  22.850  23.680  20.990
 2552DOPG   C4A52484  23.100  23.520  21.260
 2552DOPG   C1B52485  21.990  24.090  20.720
 2552DOPG   D2B52486  22.100  24.230  21.130
 2552DOPG   C3B52487  21.740  24.150  21.520
 2552DOPG   C4B52488  21.480  24.320  21.820
 2553DOPG   GL052489   6.030  18.070  19.150
 2553DOPG   PO452490   6.030  18.400  18.820
 2553DOPG   GL152491   6.450  18.520  18.600
 2553DOPG   GL252492   6.350  18.550  18.270
 2553DOPG   C1A52493   6.770  18.240  18.710
 2553DOPG   D2A52494   7.230  18.000  18.630
 2553DOPG   C3A52495   7.420  18.010  18.320
 2553DOPG   C4A52496   7.670  18.290  18.140
 2553DOPG   C1B52497   6.800  18.490  18.190
 2553DOPG   D2B52498   7.090  18.360  18.250
 2553DOPG   C3B52499   7.380  18.780  18.200
 2553DOPG   C4B52500   7.690  18.760  17.920
 2554DOPG   GL052501  17.510  22.130  24.740
 2554DOPG   PO452502  17.960  22.290  24.700
 2554DOPG   GL152503  18.130  22.410  24.350
 2554DOPG   GL252504  17.960  22.740  24.170
 2554DOPG   C1A52505  18.190  22.300  24.000
 2554DOPG   D2A52506  18.240  22.040  23.630
 2554DOPG   C3A52507  17.900  21.870  23.290
 2554DOPG   C4A52508  17.780  22.050  22.910
 2554DOPG   C1B52509  17.940  22.790  23.740
 2554DOPG   D2B52510  17.640  22.750  23.490
 2554DOPG   C3B52511  17.390  22.470  23.360
 2554DOPG   C4B52512  17.400  22.000  23.320
 2555DOPG   GL052513  14.430  19.750  11.790
 2555DOPG   PO452514  14.490  19.770  11.330
 2555DOPG   GL152515  14.150  20.070  11.490
 2555DOPG   GL252516  13.840  19.880  11.640
 2555DOPG   C1A52517  13.880  20.230  11.270
 2555DOPG   D2A52518  13.980  20.730  11.090
 2555DOPG   C3A52519  14.350  20.720  10.760
 2555DOPG   C4A52520  14.310  20.820  10.300
 2555DOPG   C1B52521  13.850  19.690  11.210
 2555DOPG   D2B52522  14.200  19.680  10.920
 2555DOPG   C3B52523  14.260  19.380  10.530
 2555DOPG   C4B52524  14.150  19.110  10.230
 2556DOPG   GL052525  19.990  21.640  11.740
 2556DOPG   PO452526  20.200  21.530  11.330
 2556DOPG   GL152527  20.260  21.090  11.330
 2556DOPG   GL252528  20.570  21.090  11.520
 2556DOPG   C1A52529  20.450  20.840  11.180
 2556DOPG   D2A52530  20.810  20.560  11.010
 2556DOPG   C3A52531  21.200  20.630  10.830
 2556DOPG   C4A52532  21.520  20.730  10.810
 2556DOPG   C1B52533  20.920  21.040  11.240
 2556DOPG   D2B52534  21.240  21.170  10.950
 2556DOPG   C3B52535  21.650  21.180  10.730
 2556DOPG   C4B52536  21.830  21.150  10.330
 2557DOPG   GL052537  21.100  24.730  13.090
 2557DOPG   PO452538  21.130  24.380  13.280
 2557DOPG   GL152539  21.570  24.700  13.470
 2557DOPG   GL252540  21.860  24.590  13.200
 2557DOPG   C1A52541  21.800  25.080  13.460
 2557DOPG   D2A52542  21.890  25.400  13.190
 2557DOPG   C3A52543  22.090  25.350  12.810
 2557DOPG   C4A52544  22.210  25.330  12.350
 2557DOPG   C1B52545  22.230  24.600  13.510
 2557DOPG   D2B52546  22.720  24.740  13.330
 2557DOPG   C3B52547  22.880  25.090  13.260
 2557DOPG   C4B52548  23.170  25.490  13.340
 2558DOPG   GL052549  13.820  10.620   5.940
 2558DOPG   PO452550  13.530  10.890   6.070
 2558DOPG   GL152551  13.850  11.250   6.150
 2558DOPG   GL252552  13.730  11.220   6.420
 2558DOPG   C1A52553  14.070  11.560   6.150
 2558DOPG   D2A52554  14.000  11.940   6.170
 2558DOPG   C3A52555  14.010  12.260   6.460
 2558DOPG   C4A52556  14.160  12.230   6.860
 2558DOPG   C1B52557  13.870  11.650   6.570
 2558DOPG   D2B52558  13.730  12.000   6.810
 2558DOPG   C3B52559  13.710  12.190   7.180
 2558DOPG   C4B52560  13.690  12.610   7.540
 2559DOPG   GL052561  19.610  13.280  22.720
 2559DOPG   PO452562  19.650  13.710  22.630
 2559DOPG   GL152563  19.900  14.000  22.360
 2559DOPG   GL252564  20.050  13.830  22.120
 2559DOPG   C1A52565  19.710  14.280  22.050
 2559DOPG   D2A52566  19.500  14.550  21.820
 2559DOPG   C3A52567  19.070  14.730  22.060
 2559DOPG   C4A52568  18.680  14.530  22.160
 2559DOPG   C1B52569  20.130  13.800  21.620
 2559DOPG   D2B52570  20.470  14.060  21.350
 2559DOPG   C3B52571  20.130  14.130  21.040
 2559DOPG   C4B52572  19.770  14.020  20.750
 2560DOPG   GL052573  13.650  17.930  12.400
 2560DOPG   PO452574  13.800  18.070  11.910
 2560DOPG   GL152575  13.530  18.030  11.530
 2560DOPG   GL252576  13.210  17.850  11.470
 2560DOPG   C1A52577  13.710  18.160  11.160
 2560DOPG   D2A52578  13.830  18.480  10.870
 2560DOPG   C3A52579  13.830  18.360  10.540
 2560DOPG   C4A52580  13.500  18.170  10.190
 2560DOPG   C1B52581  13.190  17.990  11.100
 2560DOPG   D2B52582  13.460  17.910  10.790
 2560DOPG   C3B52583  13.340  17.800  10.430
 2560DOPG   C4B52584  13.360  17.260  10.340
 2561DOPG   GL052585  15.640  15.860  16.570
 2561DOPG   PO452586  15.350  15.640  16.400
 2561DOPG   GL152587  15.360  15.740  16.040
 2561DOPG   GL252588  15.000  15.850  16.040
 2561DOPG   C1A52589  15.350  15.990  15.580
 2561DOPG   D2A52590  15.370  16.360  15.390
 2561DOPG   C3A52591  15.070  16.660  15.410
 2561DOPG   C4A52592  14.690  16.750  15.380
 2561DOPG   C1B52593  14.600  15.810  15.970
 2561DOPG   D2B52594  14.330  16.020  15.590
 2561DOPG   C3B52595  14.500  16.290  15.320
 2561DOPG   C4B52596  14.310  16.670  15.080
 2562DOPG   GL052597  19.780  20.270  14.630
 2562DOPG   PO452598  19.910  19.880  14.770
 2562DOPG   GL152599  20.060  19.690  15.200
 2562DOPG   GL252600  20.240  19.890  15.350
 2562DOPG   C1A52601  19.940  19.540  15.630
 2562DOPG   D2A52602  20.080  19.430  16.080
 2562DOPG   C3A52603  20.030  19.260  16.490
 2562DOPG   C4A52604  20.030  19.250  16.910
 2562DOPG   C1B52605  20.460  19.560  15.590
 2562DOPG   D2B52606  20.680  19.290  15.920
 2562DOPG   C3B52607  20.630  19.410  16.350
 2562DOPG   C4B52608  20.310  19.670  16.500
 2563DOPG   GL052609   9.580  15.730  10.140
 2563DOPG   PO452610   9.950  15.990   9.970
 2563DOPG   GL152611  10.520  15.920   9.960
 2563DOPG   GL252612  10.700  16.130  10.110
 2563DOPG   C1A52613  10.920  15.890   9.730
 2563DOPG   D2A52614  11.380  15.820   9.710
 2563DOPG   C3A52615  11.610  16.130   9.620
 2563DOPG   C4A52616  11.700  16.300   9.270
 2563DOPG   C1B52617  11.090  16.150  10.100
 2563DOPG   D2B52618  11.490  16.170  10.110
 2563DOPG   C3B52619  11.740  16.460  10.160
 2563DOPG   C4B52620  11.710  16.640   9.780
 2564DOPG   GL052621  12.580  17.750   8.840
 2564DOPG   PO452622  12.590  18.170   8.750
 2564DOPG   GL152623  12.510  18.200   9.180
 2564DOPG   GL252624  12.780  18.130   9.430
 2564DOPG   C1A52625  12.270  18.050   9.570
 2564DOPG   D2A52626  11.820  18.140   9.730
 2564DOPG   C3A52627  11.540  17.820  10.000
 2564DOPG   C4A52628  11.490  17.820  10.460
 2564DOPG   C1B52629  13.040  17.950   9.780
 2564DOPG   D2B52630  13.180  17.670   9.990
 2564DOPG   C3B52631  13.660  17.610   9.940
 2564DOPG   C4B52632  14.000  17.620   9.770
 2565DOPG   GL052633  10.390  15.150  10.390
 2565DOPG   PO452634  10.130  15.370  10.700
 2565DOPG   GL152635  10.550  15.400  10.790
 2565DOPG   GL252636  10.720  15.100  10.810
 2565DOPG   C1A52637  10.980  15.470  11.000
 2565DOPG   D2A52638  11.400  15.520  11.060
 2565DOPG   C3A52639  11.590  15.540  10.620
 2565DOPG   C4A52640  12.160  15.470  10.550
 2565DOPG   C1B52641  10.850  14.690  11.040
 2565DOPG   D2B52642  10.830  14.280  11.230
 2565DOPG   C3B52643  11.260  14.300  11.450
 2565DOPG   C4B52644  11.600  14.200  11.730
 2566DOPG   GL052645  20.370  29.030  10.480
 2566DOPG   PO452646  20.110  28.900  10.840
 2566DOPG   GL152647  19.930  28.530  10.920
 2566DOPG   GL252648  19.600  28.470  10.880
 2566DOPG   C1A52649  20.030  28.030  11.030
 2566DOPG   D2A52650  20.210  27.590  11.220
 2566DOPG   C3A52651  20.120  27.540  11.550
 2566DOPG   C4A52652  19.860  27.620  11.840
 2566DOPG   C1B52653  19.560  28.130  11.010
 2566DOPG   D2B52654  19.650  27.820  11.380
 2566DOPG   C3B52655  19.640  27.380  11.390
 2566DOPG   C4B52656  19.770  26.950  11.410
 2567DOPG   GL052657  12.360  21.620  18.170
 2567DOPG   PO452658  11.990  21.580  18.490
 2567DOPG   GL152659  11.720  21.920  18.580
 2567DOPG   GL252660  11.450  21.680  18.670
 2567DOPG   C1A52661  11.480  22.120  18.860
 2567DOPG   D2A52662  11.460  22.310  19.250
 2567DOPG   C3A52663  11.270  22.140  19.570
 2567DOPG   C4A52664  11.190  21.900  20.030
 2567DOPG   C1B52665  11.150  21.580  18.970
 2567DOPG   D2B52666  10.950  21.880  19.330
 2567DOPG   C3B52667  10.690  22.220  19.320
 2567DOPG   C4B52668  10.480  22.670  19.260
 2568DOPG   GL052669  10.800  12.370   7.120
 2568DOPG   PO452670  11.060  12.420   6.830
 2568DOPG   GL152671  11.260  12.850   6.750
 2568DOPG   GL252672  11.180  13.190   7.040
 2568DOPG   C1A52673  11.770  12.960   6.730
 2568DOPG   D2A52674  12.220  12.960   6.690
 2568DOPG   C3A52675  12.480  13.210   6.960
 2568DOPG   C4A52676  12.520  13.680   7.040
 2568DOPG   C1B52677  11.640  13.210   7.210
 2568DOPG   D2B52678  12.050  13.320   7.180
 2568DOPG   C3B52679  12.140  13.470   6.760
 2568DOPG   C4B52680  12.210  13.740   6.440
 2569DOPG   GL052681  15.520  32.640  18.510
 2569DOPG   PO452682  15.770  32.340  18.310
 2569DOPG   GL152683  15.890  31.990  18.030
 2569DOPG   GL252684  16.210  32.090  17.890
 2569DOPG   C1A52685  15.780  31.760  17.690
 2569DOPG   D2A52686  15.610  31.430  17.410
 2569DOPG   C3A52687  15.410  31.080  17.160
 2569DOPG   C4A52688  15.390  30.630  17.070
 2569DOPG   C1B52689  16.260  31.730  17.560
 2569DOPG   D2B52690  16.210  31.370  17.350
 2569DOPG   C3B52691  16.550  31.010  17.350
 2569DOPG   C4B52692  16.520  30.590  17.320
 2570DOPG   GL052693   6.640  16.270  15.030
 2570DOPG   PO452694   6.460  16.620  14.930
 2570DOPG   GL152695   6.800  16.910  15.000
 2570DOPG   GL252696   6.990  16.650  15.180
 2570DOPG   C1A52697   6.890  17.120  15.320
 2570DOPG   D2A52698   7.340  17.090  15.470
 2570DOPG   C3A52699   7.670  16.990  15.500
 2570DOPG   C4A52700   7.910  16.620  15.570
 2570DOPG   C1B52701   7.080  16.730  15.640
 2570DOPG   D2B52702   7.400  16.740  15.880
 2570DOPG   C3B52703   7.440  16.820  16.270
 2570DOPG   C4B52704   7.710  16.940  16.650
 2571DOPG   GL052705  14.880  12.700   9.010
 2571DOPG   PO452706  14.950  13.120   8.990
 2571DOPG   GL152707  14.590  12.930   8.720
 2571DOPG   GL252708  14.600  12.570   8.630
 2571DOPG   C1A52709  14.140  12.810   8.740
 2571DOPG   D2A52710  13.800  12.780   8.500
 2571DOPG   C3A52711  13.410  12.640   8.550
 2571DOPG   C4A52712  13.040  12.400   8.570
 2571DOPG   C1B52713  14.340  12.590   8.370
 2571DOPG   D2B52714  14.590  12.660   7.980
 2571DOPG   C3B52715  14.730  12.300   7.700
 2571DOPG   C4B52716  14.530  11.990   7.460
 2572DOPG   GL052717  17.390  22.680   9.540
 2572DOPG   PO452718  17.790  22.690   9.610
 2572DOPG   GL152719  18.100  22.900   9.370
 2572DOPG   GL252720  18.300  22.740   9.350
 2572DOPG   C1A52721  18.390  23.150   9.060
 2572DOPG   D2A52722  18.740  23.460   8.950
 2572DOPG   C3A52723  18.770  23.900   8.730
 2572DOPG   C4A52724  18.950  24.180   8.370
 2572DOPG   C1B52725  18.020  22.720   8.880
 2572DOPG   D2B52726  17.780  22.620   8.620
 2572DOPG   C3B52727  17.580  22.240   8.700
 2572DOPG   C4B52728  17.280  21.950   8.940
 2573DOPG   GL052729  14.540  20.670  13.750
 2573DOPG   PO452730  14.360  20.350  13.400
 2573DOPG   GL152731  14.040  20.470  13.740
 2573DOPG   GL252732  14.010  20.760  13.870
 2573DOPG   C1A52733  13.590  20.610  13.740
 2573DOPG   D2A52734  13.080  20.580  13.650
 2573DOPG   C3A52735  12.830  20.500  13.260
 2573DOPG   C4A52736  12.440  20.430  13.210
 2573DOPG   C1B52737  13.670  21.140  13.870
 2573DOPG   D2B52738  13.580  21.590  13.720
 2573DOPG   C3B52739  13.220  21.840  13.860
 2573DOPG   C4B52740  13.100  22.320  14.020
 2574DOPG   GL052741  18.060  29.560  14.550
 2574DOPG   PO452742  18.300  29.850  14.380
 2574DOPG   GL152743  18.180  30.260  14.480
 2574DOPG   GL252744  18.370  30.330  14.650
 2574DOPG   C1A52745  17.930  30.590  14.540
 2574DOPG   D2A52746  17.720  30.990  14.390
 2574DOPG   C3A52747  17.340  31.100  14.660
 2574DOPG   C4A52748  17.010  31.310  14.850
 2574DOPG   C1B52749  18.470  30.670  14.830
 2574DOPG   D2B52750  18.500  31.100  14.890
 2574DOPG   C3B52751  18.280  31.350  15.180
 2574DOPG   C4B52752  18.230  31.720  15.470
 2575DOPG   GL052753  17.320  27.930   2.800
 2575DOPG   PO452754  17.120  27.810   3.090
 2575DOPG   GL152755  16.930  27.440   3.340
 2575DOPG   GL252756  17.150  27.410   3.530
 2575DOPG   C1A52757  16.710  27.110   3.450
 2575DOPG   D2A52758  16.710  26.740   3.670
 2575DOPG   C3A52759  16.900  26.390   3.740
 2575DOPG   C4A52760  17.280  26.330   4.070
 2575DOPG   C1B52761  17.400  27.310   3.930
 2575DOPG   D2B52762  17.210  27.400   4.270
 2575DOPG   C3B52763  17.190  27.090   4.560
 2575DOPG   C4B52764  17.340  26.650   4.670
 2576DOPG   GL052765  17.220  23.950  14.350
 2576DOPG   PO452766  17.070  23.940  14.840
 2576DOPG   GL152767  16.800  24.180  15.040
 2576DOPG   GL252768  16.600  23.970  15.240
 2576DOPG   C1A52769  16.760  24.620  15.290
 2576DOPG   D2A52770  16.980  24.900  15.470
 2576DOPG   C3A52771  17.310  25.130  15.300
 2576DOPG   C4A52772  17.790  25.160  15.120
 2576DOPG   C1B52773  16.340  24.370  15.120
 2576DOPG   D2B52774  16.250  24.780  15.110
 2576DOPG   C3B52775  16.170  25.210  15.330
 2576DOPG   C4B52776  15.810  25.260  15.500
 2577DOPG   GL052777  11.160   9.480  17.270
 2577DOPG   PO452778  10.770   9.750  17.250
 2577DOPG   GL152779  10.980  10.070  16.960
 2577DOPG   GL252780  10.900  10.090  16.660
 2577DOPG   C1A52781  11.280  10.350  16.760
 2577DOPG   D2A52782  11.620  10.640  16.570
 2577DOPG   C3A52783  11.670  11.030  16.410
 2577DOPG   C4A52784  11.830  10.930  16.070
 2577DOPG   C1B52785  10.760  10.490  16.870
 2577DOPG   D2B52786  10.600  10.840  16.830
 2577DOPG   C3B52787  10.940  11.100  16.750
 2577DOPG   C4B52788  11.110  11.470  17.010
 2578DOPG   GL052789  19.900  25.830  13.570
 2578DOPG   PO452790  19.470  25.910  13.350
 2578DOPG   GL152791  19.530  26.220  13.590
 2578DOPG   GL252792  19.180  26.340  13.460
 2578DOPG   C1A52793  19.700  26.370  13.970
 2578DOPG   D2A52794  20.000  26.750  14.080
 2578DOPG   C3A52795  20.470  26.790  14.070
 2578DOPG   C4A52796  20.790  27.080  14.390
 2578DOPG   C1B52797  18.920  26.550  13.210
 2578DOPG   D2B52798  18.730  26.700  12.860
 2578DOPG   C3B52799  18.290  26.890  13.040
 2578DOPG   C4B52800  17.870  26.910  12.920
 2579DOPG   GL052801  12.960  14.820   2.630
 2579DOPG   PO452802  12.600  14.580   2.530
 2579DOPG   GL152803  12.590  14.890   2.890
 2579DOPG   GL252804  12.890  14.840   3.220
 2579DOPG   C1A52805  12.320  15.110   3.150
 2579DOPG   D2A52806  11.970  15.230   3.370
 2579DOPG   C3A52807  11.950  15.660   3.560
 2579DOPG   C4A52808  11.720  15.850   3.800
 2579DOPG   C1B52809  12.560  14.910   3.530
 2579DOPG   D2B52810  12.610  14.880   3.970
 2579DOPG   C3B52811  12.960  15.020   4.200
 2579DOPG   C4B52812  13.170  15.420   4.410
 2580DOPG   GL052813  19.430  18.800  13.520
 2580DOPG   PO452814  19.810  18.730  13.700
 2580DOPG   GL152815  20.030  18.490  13.650
 2580DOPG   GL252816  20.130  18.400  13.410
 2580DOPG   C1A52817  20.470  18.340  13.840
 2580DOPG   D2A52818  20.720  17.980  13.880
 2580DOPG   C3A52819  21.140  18.000  14.080
 2580DOPG   C4A52820  21.280  17.920  14.480
 2580DOPG   C1B52821  20.470  18.350  13.230
 2580DOPG   D2B52822  20.880  18.540  13.380
 2580DOPG   C3B52823  21.150  18.220  13.310
 2580DOPG   C4B52824  21.600  18.350  13.130
 2581DOPG   GL052825  16.990  22.810  19.420
 2581DOPG   PO452826  17.160  22.890  18.990
 2581DOPG   GL152827  17.040  22.850  18.550
 2581DOPG   GL252828  16.710  22.940  18.490
 2581DOPG   C1A52829  17.490  22.890  18.230
 2581DOPG   D2A52830  17.660  22.710  17.930
 2581DOPG   C3A52831  17.720  22.820  17.590
 2581DOPG   C4A52832  17.940  22.770  17.280
 2581DOPG   C1B52833  16.770  22.470  18.550
 2581DOPG   D2B52834  16.580  22.190  18.850
 2581DOPG   C3B52835  16.630  21.740  18.850
 2581DOPG   C4B52836  16.460  21.350  18.700
 2582DOPG   GL052837  17.460  24.480  12.440
 2582DOPG   PO452838  17.390  24.880  12.780
 2582DOPG   GL152839  17.220  25.200  13.070
 2582DOPG   GL252840  17.370  25.310  13.300
 2582DOPG   C1A52841  16.910  25.520  12.970
 2582DOPG   D2A52842  16.780  25.870  12.810
 2582DOPG   C3A52843  16.460  25.920  12.490
 2582DOPG   C4A52844  16.180  25.770  12.160
 2582DOPG   C1B52845  17.300  25.770  13.370
 2582DOPG   D2B52846  17.460  26.150  13.400
 2582DOPG   C3B52847  17.600  26.430  13.730
 2582DOPG   C4B52848  17.760  26.840  13.840
 2583DOPG   GL052849  20.840  23.380  11.670
 2583DOPG   PO452850  20.840  23.630  11.360
 2583DOPG   GL152851  20.880  23.630  10.900
 2583DOPG   GL252852  20.910  23.950  10.920
 2583DOPG   C1A52853  21.050  23.760  10.460
 2583DOPG   D2A52854  21.200  24.110  10.220
 2583DOPG   C3A52855  21.290  24.550  10.390
 2583DOPG   C4A52856  21.330  24.940  10.160
 2583DOPG   C1B52857  20.880  24.280  10.590
 2583DOPG   D2B52858  20.910  24.700  10.620
 2583DOPG   C3B52859  20.740  24.910  10.280
 2583DOPG   C4B52860  20.450  24.780   9.920
 2584DOPG   GL052861   8.460  12.820  13.920
 2584DOPG   PO452862   8.790  12.620  14.030
 2584DOPG   GL152863   9.120  12.710  14.360
 2584DOPG   GL252864   9.220  12.490  14.370
 2584DOPG   C1A52865   9.280  13.100  14.410
 2584DOPG   D2A52866   9.450  13.180  14.740
 2584DOPG   C3A52867   9.770  13.310  14.850
 2584DOPG   C4A52868  10.050  12.990  14.980
 2584DOPG   C1B52869   9.230  12.710  14.820
 2584DOPG   D2B52870   9.590  12.890  15.160
 2584DOPG   C3B52871   9.570  13.240  15.360
 2584DOPG   C4B52872   9.440  13.700  15.570
 2585DOPG   GL052873  20.970  29.180  22.530
 2585DOPG   PO452874  20.730  28.810  22.500
 2585DOPG   GL152875  20.600  28.500  22.150
 2585DOPG   GL252876  20.230  28.610  22.170
 2585DOPG   C1A52877  20.630  28.630  21.730
 2585DOPG   D2A52878  20.450  28.730  21.360
 2585DOPG   C3A52879  20.540  28.810  20.860
 2585DOPG   C4A52880  20.550  29.030  20.490
 2585DOPG   C1B52881  20.120  28.540  21.730
 2585DOPG   D2B52882  19.910  28.570  21.210
 2585DOPG   C3B52883  20.020  28.620  20.810
 2585DOPG   C4B52884  20.320  28.490  20.550
 2586DOPG   GL052885  17.490  21.390  16.160
 2586DOPG   PO452886  17.770  21.160  15.960
 2586DOPG   GL152887  17.760  20.910  16.220
 2586DOPG   GL252888  17.570  20.670  16.150
 2586DOPG   C1A52889  17.920  21.080  16.640
 2586DOPG   D2A52890  18.100  21.220  16.980
 2586DOPG   C3A52891  18.030  21.610  16.940
 2586DOPG   C4A52892  17.910  22.060  16.860
 2586DOPG   C1B52893  17.960  20.540  16.500
 2586DOPG   D2B52894  18.060  20.340  16.920
 2586DOPG   C3B52895  17.860  20.050  17.180
 2586DOPG   C4B52896  17.860  19.640  17.380
 2587DOPG   GL052897  14.700  18.910  13.320
 2587DOPG   PO452898  14.410  19.030  13.610
 2587DOPG   GL152899  14.330  19.110  14.090
 2587DOPG   GL252900  14.360  19.410  14.290
 2587DOPG   C1A52901  14.070  18.900  14.460
 2587DOPG   D2A52902  13.920  18.610  14.750
 2587DOPG   C3A52903  14.340  18.450  14.960
 2587DOPG   C4A52904  14.660  18.210  15.140
 2587DOPG   C1B52905  14.070  19.340  14.640
 2587DOPG   D2B52906  14.020  19.330  15.110
 2587DOPG   C3B52907  13.720  19.010  15.270
 2587DOPG   C4B52908  13.610  18.600  15.210
 2588DOPG   GL052909  13.100  23.960  24.070
 2588DOPG   PO452910  13.050  23.940  23.610
 2588DOPG   GL152911  13.270  23.910  23.190
 2588DOPG   GL252912  13.310  24.080  22.980
 2588DOPG   C1A52913  13.440  23.580  22.880
 2588DOPG   D2A52914  13.820  23.320  23.030
 2588DOPG   C3A52915  14.170  23.440  22.830
 2588DOPG   C4A52916  14.610  23.390  22.850
 2588DOPG   C1B52917  13.210  23.960  22.600
 2588DOPG   D2B52918  13.360  23.750  22.310
 2588DOPG   C3B52919  13.720  23.640  22.190
 2588DOPG   C4B52920  14.180  23.610  22.300
 2589DOPG   GL052921   7.540  21.850  20.240
 2589DOPG   PO452922   7.710  22.060  19.870
 2589DOPG   GL152923   7.980  21.990  19.480
 2589DOPG   GL252924   7.850  22.340  19.420
 2589DOPG   C1A52925   8.180  22.110  19.040
 2589DOPG   D2A52926   8.500  22.410  18.970
 2589DOPG   C3A52927   8.830  22.200  18.800
 2589DOPG   C4A52928   8.720  22.310  18.310
 2589DOPG   C1B52929   8.340  22.390  19.490
 2589DOPG   D2B52930   8.520  22.020  19.630
 2589DOPG   C3B52931   8.270  21.680  19.720
 2589DOPG   C4B52932   8.190  21.550  19.310
 2590DOPG   GL052933  12.200  18.510  12.370
 2590DOPG   PO452934  12.080  18.540  12.680
 2590DOPG   GL152935  12.040  18.940  12.700
 2590DOPG   GL252936  11.980  18.930  13.100
 2590DOPG   C1A52937  11.710  19.190  12.790
 2590DOPG   D2A52938  11.450  19.430  13.070
 2590DOPG   C3A52939  11.200  19.740  12.870
 2590DOPG   C4A52940  10.940  19.750  12.440
 2590DOPG   C1B52941  11.620  18.980  13.420
 2590DOPG   D2B52942  11.290  18.760  13.640
 2590DOPG   C3B52943  10.940  19.040  13.790
 2590DOPG   C4B52944  10.650  19.130  13.570
 2591DOPG   GL052945  20.620  32.460  19.050
 2591DOPG   PO452946  20.660  32.160  19.410
 2591DOPG   GL152947  20.640  31.930  19.080
 2591DOPG   GL252948  20.650  31.490  19.170
 2591DOPG   C1A52949  20.590  31.700  18.710
 2591DOPG   D2A52950  20.460  31.680  18.270
 2591DOPG   C3A52951  20.490  31.320  18.110
 2591DOPG   C4A52952  20.330  31.130  17.730
 2591DOPG   C1B52953  20.820  31.280  18.820
 2591DOPG   D2B52954  20.730  31.060  18.470
 2591DOPG   C3B52955  20.400  30.930  18.450
 2591DOPG   C4B52956  20.010  30.710  18.240
 2592DOPG   GL052957   6.830  19.560   7.670
 2592DOPG   PO452958   6.940  19.860   7.390
 2592DOPG   GL152959   7.150  20.200   7.650
 2592DOPG   GL252960   6.930  20.460   7.800
 2592DOPG   C1A52961   7.630  20.140   7.670
 2592DOPG   D2A52962   8.050  19.980   7.490
 2592DOPG   C3A52963   8.270  20.250   7.570
 2592DOPG   C4A52964   8.390  20.570   7.820
 2592DOPG   C1B52965   7.360  20.610   7.820
 2592DOPG   D2B52966   7.660  20.950   8.000
 2592DOPG   C3B52967   7.950  20.810   8.300
 2592DOPG   C4B52968   8.170  20.720   8.600
 2593DOPG   GL052969  12.570  19.080  12.360
 2593DOPG   PO452970  13.020  19.170  12.420
 2593DOPG   GL152971  12.730  19.550  12.210
 2593DOPG   GL252972  12.440  19.570  12.230
 2593DOPG   C1A52973  12.670  19.770  11.870
 2593DOPG   D2A52974  12.810  19.900  11.450
 2593DOPG   C3A52975  12.760  19.700  11.060
 2593DOPG   C4A52976  12.520  19.650  10.610
 2593DOPG   C1B52977  12.280  19.310  11.890
 2593DOPG   D2B52978  11.980  19.140  11.590
 2593DOPG   C3B52979  12.060  19.230  11.200
 2593DOPG   C4B52980  12.220  19.330  10.880
 2594DOPG   GL052981  14.450  15.210  23.280
 2594DOPG   PO452982  14.380  14.820  23.020
 2594DOPG   GL152983  14.620  14.870  22.610
 2594DOPG   GL252984  14.430  14.990  22.280
 2594DOPG   C1A52985  14.890  14.770  22.320
 2594DOPG   D2A52986  15.010  14.570  21.970
 2594DOPG   C3A52987  15.190  14.860  21.710
 2594DOPG   C4A52988  15.350  15.050  21.370
 2594DOPG   C1B52989  14.620  15.010  21.890
 2594DOPG   D2B52990  14.790  15.050  21.460
 2594DOPG   C3B52991  14.920  14.900  21.200
 2594DOPG   C4B52992  14.840  14.770  20.780
 2595DOPG   GL052993  15.050  19.700  14.900
 2595DOPG   PO452994  14.990  19.860  15.260
 2595DOPG   GL152995  15.190  20.150  15.570
 2595DOPG   GL252996  15.330  19.870  15.690
 2595DOPG   C1A52997  15.380  20.280  16.020
 2595DOPG   D2A52998  15.360  20.130  16.380
 2595DOPG   C3A52999  15.350  20.070  16.800
 2595DOPG   C4A53000  14.970  20.140  17.140
 2595DOPG   C1B53001  14.900  19.870  16.000
 2595DOPG   D2B53002  14.830  20.200  16.290
 2595DOPG   C3B53003  14.740  20.030  16.700
 2595DOPG   C4B53004  14.510  19.700  16.970
 2596DOPG   GL053005  14.160   8.860   8.690
 2596DOPG   PO453006  13.770   9.040   8.780
 2596DOPG   GL153007  13.650   9.520   8.840
 2596DOPG   GL253008  14.010   9.810   8.950
 2596DOPG   C1A53009  13.850   9.950   8.520
 2596DOPG   D2A53010  14.190  10.160   8.540
 2596DOPG   C3A53011  14.240  10.620   8.520
 2596DOPG   C4A53012  14.080  11.010   8.720
 2596DOPG   C1B53013  14.100  10.290   9.040
 2596DOPG   D2B53014  14.520  10.630   9.060
 2596DOPG   C3B53015  14.440  11.030   9.110
 2596DOPG   C4B53016  14.490  11.460   9.240
 2597DOPG   GL053017   9.030  19.590  22.450
 2597DOPG   PO453018   9.290  19.770  22.240
 2597DOPG   GL153019   9.580  19.610  21.870
 2597DOPG   GL253020   9.710  19.390  21.960
 2597DOPG   C1A53021   9.750  19.510  21.480
 2597DOPG   D2A53022   9.930  19.610  20.950
 2597DOPG   C3A53023  10.240  19.290  20.840
 2597DOPG   C4A53024  10.680  19.060  20.850
 2597DOPG   C1B53025  10.080  19.150  21.680
 2597DOPG   D2B53026  10.070  19.140  21.250
 2597DOPG   C3B53027  10.280  18.810  20.930
 2597DOPG   C4B53028  10.530  18.600  20.710
 2598DOPG   GL053029  16.590  21.580  15.090
 2598DOPG   PO453030  16.180  21.530  15.020
 2598DOPG   GL153031  15.870  21.640  15.420
 2598DOPG   GL253032  15.630  21.660  15.230
 2598DOPG   C1A53033  15.720  21.620  15.860
 2598DOPG   D2A53034  15.550  21.700  16.300
 2598DOPG   C3A53035  15.620  22.090  16.610
 2598DOPG   C4A53036  15.690  22.070  17.010
 2598DOPG   C1B53037  15.290  21.690  15.560
 2598DOPG   D2B53038  15.130  21.780  15.910
 2598DOPG   C3B53039  14.720  21.880  15.960
 2598DOPG   C4B53040  14.400  21.660  15.940
 2599DOPG   GL053041  14.970   8.050  14.590
 2599DOPG   PO453042  15.210   7.690  14.350
 2599DOPG   GL153043  15.440   8.050  14.180
 2599DOPG   GL253044  15.780   8.140  14.240
 2599DOPG   C1A53045  15.380   8.370  13.850
 2599DOPG   D2A53046  15.470   8.760  13.800
 2599DOPG   C3A53047  15.790   8.960  13.800
 2599DOPG   C4A53048  16.120   8.900  13.950
 2599DOPG   C1B53049  15.680   8.540  14.360
 2599DOPG   D2B53050  15.580   8.990  14.320
 2599DOPG   C3B53051  15.600   9.340  14.590
 2599DOPG   C4B53052  15.640   9.790  14.670
 2600DOPG   GL053053  12.820  30.320  19.150
 2600DOPG   PO453054  12.840  30.350  18.670
 2600DOPG   GL153055  13.260  30.400  18.440
 2600DOPG   GL253056  13.700  30.420  18.680
 2600DOPG   C1A53057  13.490  30.360  18.060
 2600DOPG   D2A53058  13.900  30.220  18.240
 2600DOPG   C3A53059  13.930  29.810  18.200
 2600DOPG   C4A53060  14.060  29.380  17.980
 2600DOPG   C1B53061  14.010  30.100  18.780
 2600DOPG   D2B53062  14.290  29.740  18.600
 2600DOPG   C3B53063  14.410  29.760  18.260
 2600DOPG   C4B53064  14.670  29.600  17.940
 2601DOPG   GL053065  19.000  33.780  16.540
 2601DOPG   PO453066  19.340  33.550  16.790
 2601DOPG   GL153067  19.470  33.120  16.890
 2601DOPG   GL253068  19.380  33.030  17.130
 2601DOPG   C1A53069  19.770  32.810  16.680
 2601DOPG   D2A53070  19.670  32.540  16.400
 2601DOPG   C3A53071  19.910  32.390  16.060
 2601DOPG   C4A53072  20.060  32.100  15.720
 2601DOPG   C1B53073  19.260  32.710  16.720
 2601DOPG   D2B53074  19.070  32.400  16.480
 2601DOPG   C3B53075  19.310  32.160  16.270
 2601DOPG   C4B53076  19.550  31.980  16.000
 2602DOPG   GL053077  19.310  22.940  10.260
 2602DOPG   PO453078  19.330  22.550  10.170
 2602DOPG   GL153079  19.580  22.540   9.830
 2602DOPG   GL253080  19.400  22.860   9.750
 2602DOPG   C1A53081  19.710  22.510   9.480
 2602DOPG   D2A53082  19.790  22.680   9.120
 2602DOPG   C3A53083  19.690  23.210   9.050
 2602DOPG   C4A53084  19.680  23.600   8.930
 2602DOPG   C1B53085  19.780  23.010   9.500
 2602DOPG   D2B53086  20.160  23.010   9.400
 2602DOPG   C3B53087  20.510  23.240   9.440
 2602DOPG   C4B53088  20.870  23.480   9.400
 2603DOPG   GL053089  19.490  29.580  11.650
 2603DOPG   PO453090  19.270  29.410  11.810
 2603DOPG   GL153091  19.150  28.950  11.880
 2603DOPG   GL253092  18.870  28.770  11.860
 2603DOPG   C1A53093  19.450  28.610  11.860
 2603DOPG   D2A53094  19.790  28.370  12.200
 2603DOPG   C3A53095  19.770  27.930  12.200
 2603DOPG   C4A53096  19.690  27.720  12.660
 2603DOPG   C1B53097  18.810  28.280  11.890
 2603DOPG   D2B53098  18.720  27.740  11.850
 2603DOPG   C3B53099  18.920  27.460  12.160
 2603DOPG   C4B53100  19.160  27.050  12.200
 2604DOPG   GL053101  24.030  33.180  11.550
 2604DOPG   PO453102  23.650  33.450  11.420
 2604DOPG   GL153103  23.530  33.050  11.630
 2604DOPG   GL253104  23.380  32.800  11.460
 2604DOPG   C1A53105  23.380  32.870  12.060
 2604DOPG   D2A53106  23.340  32.850  12.510
 2604DOPG   C3A53107  23.390  32.340  12.460
 2604DOPG   C4A53108  23.460  31.950  12.320
 2604DOPG   C1B53109  23.210  32.550  11.630
 2604DOPG   D2B53110  22.740  32.440  11.710
 2604DOPG   C3B53111  22.710  32.120  12.020
 2604DOPG   C4B53112  22.780  31.980  12.450
 2605DOPG   GL053113  22.470  22.040  24.260
 2605DOPG   PO453114  22.650  22.230  23.870
 2605DOPG   GL153115  22.780  22.250  23.400
 2605DOPG   GL253116  23.150  22.160  23.250
 2605DOPG   C1A53117  22.460  22.350  23.130
 2605DOPG   D2A53118  22.270  22.510  22.750
 2605DOPG   C3A53119  21.910  22.520  22.610
 2605DOPG   C4A53120  21.440  22.430  22.460
 2605DOPG   C1B53121  22.830  22.030  22.960
 2605DOPG   D2B53122  22.450  22.010  22.750
 2605DOPG   C3B53123  22.100  22.080  22.420
 2605DOPG   C4B53124  21.820  21.860  22.190
 2606DOPG   GL053125  14.270  10.220   6.610
 2606DOPG   PO453126  14.430   9.940   6.880
 2606DOPG   GL153127  14.450  10.350   7.110
 2606DOPG   GL253128  14.620  10.270   7.400
 2606DOPG   C1A53129  14.410  10.730   7.290
 2606DOPG   D2A53130  14.160  11.050   7.550
 2606DOPG   C3A53131  14.370  11.430   7.430
 2606DOPG   C4A53132  14.600  11.590   7.080
 2606DOPG   C1B53133  14.800  10.710   7.550
 2606DOPG   D2B53134  14.690  11.120   7.730
 2606DOPG   C3B53135  14.910  11.260   8.100
 2606DOPG   C4B53136  14.990  11.730   8.280
 2607DOPG   GL053137  20.810  19.580  24.350
 2607DOPG   PO453138  20.380  19.410  24.520
 2607DOPG   GL153139  20.240  19.510  24.120
 2607DOPG   GL253140  19.930  19.570  24.010
 2607DOPG   C1A53141  20.340  19.760  23.690
 2607DOPG   D2A53142  20.650  19.640  23.320
 2607DOPG   C3A53143  20.400  19.250  23.180
 2607DOPG   C4A53144  19.970  19.200  23.150
 2607DOPG   C1B53145  20.080  19.260  23.670
 2607DOPG   D2B53146  20.140  18.870  23.470
 2607DOPG   C3B53147  19.840  18.740  23.130
 2607DOPG   C4B53148  19.500  18.580  23.190
 2608DOPG   GL053149  28.740  30.190  12.560
 2608DOPG   PO453150  28.460  29.910  12.440
 2608DOPG   GL153151  28.190  29.650  12.230
 2608DOPG   GL253152  27.930  29.760  12.190
 2608DOPG   C1A53153  27.980  29.340  11.960
 2608DOPG   D2A53154  27.810  29.440  11.540
 2608DOPG   C3A53155  27.460  29.470  11.330
 2608DOPG   C4A53156  27.030  29.660  11.240
 2608DOPG   C1B53157  27.590  29.600  12.170
 2608DOPG   D2B53158  27.080  29.560  12.210
 2608DOPG   C3B53159  26.770  29.820  11.910
 2608DOPG   C4B53160  26.880  30.130  11.620
 2609DOPG   GL053161  13.970  19.080  13.270
 2609DOPG   PO453162  13.640  19.120  13.510
 2609DOPG   GL153163  13.320  19.140  13.960
 2609DOPG   GL253164  13.300  19.460  14.050
 2609DOPG   C1A53165  13.280  18.940  14.270
 2609DOPG   D2A53166  13.140  18.720  14.570
 2609DOPG   C3A53167  13.420  18.370  14.660
 2609DOPG   C4A53168  13.590  18.150  14.340
 2609DOPG   C1B53169  12.900  19.820  14.070
 2609DOPG   D2B53170  12.490  19.990  13.980
 2609DOPG   C3B53171  12.160  20.110  14.310
 2609DOPG   C4B53172  11.930  19.890  14.570
 2610DOPG   GL053173  13.600  27.300  21.630
 2610DOPG   PO453174  13.550  27.630  21.560
 2610DOPG   GL153175  13.980  27.450  21.290
 2610DOPG   GL253176  14.230  27.370  21.360
 2610DOPG   C1A53177  14.120  27.290  20.870
 2610DOPG   D2A53178  14.450  27.340  20.560
 2610DOPG   C3A53179  14.570  26.980  20.330
 2610DOPG   C4A53180  14.960  26.750  20.350
 2610DOPG   C1B53181  14.570  27.170  21.070
 2610DOPG   D2B53182  14.840  27.040  20.770
 2610DOPG   C3B53183  15.000  27.260  20.540
 2610DOPG   C4B53184  14.850  27.680  20.490
 2611DOPG   GL053185  19.360  19.660  11.800
 2611DOPG   PO453186  19.570  19.280  12.000
 2611DOPG   GL153187  19.810  18.950  11.830
 2611DOPG   GL253188  19.770  18.560  11.800
 2611DOPG   C1A53189  20.060  18.900  11.550
 2611DOPG   D2A53190  20.520  18.680  11.220
 2611DOPG   C3A53191  20.760  18.370  11.460
 2611DOPG   C4A53192  20.880  17.990  11.710
 2611DOPG   C1B53193  19.780  18.530  11.410
 2611DOPG   D2B53194  19.870  18.850  11.020
 2611DOPG   C3B53195  19.840  18.660  10.690
 2611DOPG   C4B53196  20.080  18.640  10.340
 2612DOPG   GL053197  10.310  18.600  23.180
 2612DOPG   PO453198  10.140  18.290  22.980
 2612DOPG   GL153199  10.320  18.320  22.550
 2612DOPG   GL253200  10.200  18.390  22.360
 2612DOPG   C1A53201  10.670  18.100  22.320
 2612DOPG   D2A53202  10.820  17.770  22.100
 2612DOPG   C3A53203  11.060  17.460  22.220
 2612DOPG   C4A53204  11.220  17.110  21.900
 2612DOPG   C1B53205  10.530  18.590  22.110
 2612DOPG   D2B53206  10.930  18.510  22.000
 2612DOPG   C3B53207  11.060  18.400  21.430
 2612DOPG   C4B53208  10.900  18.380  20.990
 2613DOPG   GL053209  15.330  14.580   6.610
 2613DOPG   PO453210  14.970  14.570   6.750
 2613DOPG   GL153211  15.050  14.160   6.610
 2613DOPG   GL253212  14.770  14.080   6.450
 2613DOPG   C1A53213  15.100  13.700   6.670
 2613DOPG   D2A53214  15.340  13.350   6.900
 2613DOPG   C3A53215  15.360  12.960   6.730
 2613DOPG   C4A53216  15.400  12.850   6.250
 2613DOPG   C1B53217  14.810  13.710   6.200
 2613DOPG   D2B53218  14.820  13.920   5.660
 2613DOPG   C3B53219  14.390  13.800   5.450
 2613DOPG   C4B53220  14.080  13.630   5.720
 2614DOPG   GL053221   8.030  16.610  12.210
 2614DOPG   PO453222   8.270  16.920  12.490
 2614DOPG   GL153223   8.300  17.040  12.920
 2614DOPG   GL253224   8.630  17.130  12.930
 2614DOPG   C1A53225   8.290  17.370  13.220
 2614DOPG   D2A53226   8.280  17.780  13.430
 2614DOPG   C3A53227   8.530  18.190  13.510
 2614DOPG   C4A53228   8.960  18.350  13.360
 2614DOPG   C1B53229   8.750  17.290  13.320
 2614DOPG   D2B53230   8.680  17.490  13.650
 2614DOPG   C3B53231   8.650  17.910  13.860
 2614DOPG   C4B53232   9.010  18.140  14.050
 2615DOPG   GL053233  16.230  23.240  11.870
 2615DOPG   PO453234  15.880  23.500  12.120
 2615DOPG   GL153235  15.470  23.540  11.930
 2615DOPG   GL253236  15.320  23.680  11.620
 2615DOPG   C1A53237  15.050  23.620  12.080
 2615DOPG   D2A53238  14.800  23.970  12.190
 2615DOPG   C3A53239  14.410  23.900  12.250
 2615DOPG   C4A53240  14.140  23.500  12.260
 2615DOPG   C1B53241  14.960  23.950  11.400
 2615DOPG   D2B53242  14.750  24.240  11.260
 2615DOPG   C3B53243  14.920  24.650  11.090
 2615DOPG   C4B53244  15.070  25.070  11.200
 2616DOPG   GL053245  19.770   9.280  17.550
 2616DOPG   PO453246  19.610   9.680  17.750
 2616DOPG   GL153247  19.750  10.060  17.820
 2616DOPG   GL253248  20.070  10.040  17.700
 2616DOPG   C1A53249  19.580  10.390  17.690
 2616DOPG   D2A53250  19.250  10.500  17.500
 2616DOPG   C3A53251  18.920  10.550  17.660
 2616DOPG   C4A53252  18.490  10.420  17.680
 2616DOPG   C1B53253  19.980  10.140  17.260
 2616DOPG   D2B53254  20.110  10.430  16.880
 2616DOPG   C3B53255  19.950  10.780  16.600
 2616DOPG   C4B53256  19.860  11.220  16.650
 2617DOPG   GL053257  15.770  22.840  13.590
 2617DOPG   PO453258  15.650  23.060  13.340
 2617DOPG   GL153259  15.170  23.140  13.380
 2617DOPG   GL253260  14.900  23.350  13.220
 2617DOPG   C1A53261  14.860  23.400  13.710
 2617DOPG   D2A53262  14.520  23.500  14.000
 2617DOPG   C3A53263  14.160  23.360  14.020
 2617DOPG   C4A53264  14.140  22.950  14.330
 2617DOPG   C1B53265  14.680  23.790  13.340
 2617DOPG   D2B53266  14.270  23.920  13.230
 2617DOPG   C3B53267  13.980  24.110  12.950
 2617DOPG   C4B53268  13.570  23.920  12.860
 2618DOPG   GL053269  18.760  20.360   0.570
 2618DOPG   PO453270  19.000  20.370   0.950
 2618DOPG   GL153271  18.870  20.190   1.240
 2618DOPG   GL253272  18.580  20.220   1.260
 2618DOPG   C1A53273  18.750  19.920   1.590
 2618DOPG   D2A53274  19.000  19.620   1.850
 2618DOPG   C3A53275  19.220  19.740   2.230
 2618DOPG   C4A53276  19.030  19.630   2.640
 2618DOPG   C1B53277  18.310  20.590   1.470
 2618DOPG   D2B53278  17.950  20.760   1.730
 2618DOPG   C3B53279  17.680  20.530   1.910
 2618DOPG   C4B53280  17.260  20.560   2.160
 2619DOPG   GL053281  19.300  23.000  15.460
 2619DOPG   PO453282  19.200  23.050  15.850
 2619DOPG   GL153283  19.210  22.890  16.180
 2619DOPG   GL253284  19.420  23.100  16.440
 2619DOPG   C1A53285  19.090  22.620  16.570
 2619DOPG   D2A53286  18.770  22.710  16.760
 2619DOPG   C3A53287  18.620  23.110  16.920
 2619DOPG   C4A53288  18.600  23.430  17.290
 2619DOPG   C1B53289  19.210  23.150  16.830
 2619DOPG   D2B53290  19.010  23.470  17.050
 2619DOPG   C3B53291  19.180  23.910  17.260
 2619DOPG   C4B53292  19.310  24.260  17.590
 2620DOPG   GL053293  20.060  12.310  20.790
 2620DOPG   PO453294  20.510  12.300  20.600
 2620DOPG   GL153295  20.210  12.330  20.310
 2620DOPG   GL253296  20.320  12.320  20.120
 2620DOPG   C1A53297  19.850  12.380  20.080
 2620DOPG   D2A53298  19.610  12.560  19.790
 2620DOPG   C3A53299  19.150  12.550  19.730
 2620DOPG   C4A53300  18.780  12.740  19.800
 2620DOPG   C1B53301  20.390  12.770  20.000
 2620DOPG   D2B53302  20.260  13.230  19.880
 2620DOPG   C3B53303  20.390  13.750  19.910
 2620DOPG   C4B53304  20.690  13.990  20.030
 2621DOPG   GL053305  21.330  22.180  14.090
 2621DOPG   PO453306  21.540  22.130  13.770
 2621DOPG   GL153307  22.090  22.150  13.810
 2621DOPG   GL253308  22.260  22.070  13.430
 2621DOPG   C1A53309  22.510  21.980  14.000
 2621DOPG   D2A53310  22.780  21.730  14.340
 2621DOPG   C3A53311  23.050  21.810  14.710
 2621DOPG   C4A53312  23.490  21.870  14.670
 2621DOPG   C1B53313  22.710  21.890  13.410
 2621DOPG   D2B53314  23.080  21.760  13.520
 2621DOPG   C3B53315  23.350  21.890  13.130
 2621DOPG   C4B53316  23.190  22.030  12.700
 2622DOPG   GL053317  19.010  16.050   8.560
 2622DOPG   PO453318  19.140  15.990   8.890
 2622DOPG   GL153319  19.260  16.310   9.210
 2622DOPG   GL253320  19.610  16.440   9.070
 2622DOPG   C1A53321  19.250  16.730   9.480
 2622DOPG   D2A53322  18.830  16.940   9.780
 2622DOPG   C3A53323  18.770  17.320   9.940
 2622DOPG   C4A53324  18.860  17.820   9.920
 2622DOPG   C1B53325  19.680  16.870   9.310
 2622DOPG   D2B53326  20.040  16.910   9.570
 2622DOPG   C3B53327  20.130  16.430   9.710
 2622DOPG   C4B53328  20.440  16.290  10.030
 2623DOPG   GL053329  17.750  22.640  15.350
 2623DOPG   PO453330  17.870  22.610  15.770
 2623DOPG   GL153331  17.970  22.630  16.170
 2623DOPG   GL253332  18.170  22.480  16.220
 2623DOPG   C1A53333  17.940  22.610  16.790
 2623DOPG   D2A53334  18.040  22.330  17.230
 2623DOPG   C3A53335  17.690  22.360  17.550
 2623DOPG   C4A53336  17.580  22.230  17.850
 2623DOPG   C1B53337  18.340  22.440  16.620
 2623DOPG   D2B53338  18.370  22.610  17.060
 2623DOPG   C3B53339  18.750  22.510  17.280
 2623DOPG   C4B53340  18.880  22.160  17.560
 2624DOPG   GL053341  13.390  19.420  12.640
 2624DOPG   PO453342  13.390  19.800  12.690
 2624DOPG   GL153343  13.230  20.220  12.640
 2624DOPG   GL253344  13.190  20.430  12.390
 2624DOPG   C1A53345  12.720  20.320  12.760
 2624DOPG   D2A53346  12.270  20.350  12.690
 2624DOPG   C3A53347  12.220  20.510  12.190
 2624DOPG   C4A53348  12.590  20.720  11.810
 2624DOPG   C1B53349  12.740  20.580  12.290
 2624DOPG   D2B53350  12.570  21.020  12.230
 2624DOPG   C3B53351  12.480  21.290  12.590
 2624DOPG   C4B53352  12.760  21.370  13.000
 2625DOPG   GL053353  21.150  34.650  13.300
 2625DOPG   PO453354  20.720  34.440  13.500
 2625DOPG   GL153355  20.550  33.970  13.570
 2625DOPG   GL253356  20.410  33.880  13.250
 2625DOPG   C1A53357  20.620  33.620  13.930
 2625DOPG   D2A53358  20.860  33.560  14.300
 2625DOPG   C3A53359  20.890  33.180  14.490
 2625DOPG   C4A53360  21.060  32.770  14.300
 2625DOPG   C1B53361  20.270  33.590  13.550
 2625DOPG   D2B53362  20.260  33.170  13.560
 2625DOPG   C3B53363  20.380  32.840  13.140
 2625DOPG   C4B53364  20.570  32.670  12.830
 2626DOPG   GL053365  22.480  20.280   8.110
 2626DOPG   PO453366  22.260  20.200   8.570
 2626DOPG   GL153367  21.910  20.360   8.680
 2626DOPG   GL253368  21.710  20.640   8.760
 2626DOPG   C1A53369  21.650  20.130   8.790
 2626DOPG   D2A53370  21.290  20.380   8.970
 2626DOPG   C3A53371  20.850  20.470   8.800
 2626DOPG   C4A53372  20.650  20.650   8.500
 2626DOPG   C1B53373  21.340  20.900   8.910
 2626DOPG   D2B53374  20.940  20.970   8.770
 2626DOPG   C3B53375  20.530  20.780   9.020
 2626DOPG   C4B53376  20.370  20.710   9.510
 2627DOPG   GL053377  22.600  22.950  18.990
 2627DOPG   PO453378  22.750  22.590  18.670
 2627DOPG   GL153379  22.470  22.720  18.320
 2627DOPG   GL253380  22.150  22.940  18.370
 2627DOPG   C1A53381  22.220  22.580  17.910
 2627DOPG   D2A53382  21.930  22.750  17.610
 2627DOPG   C3A53383  21.500  22.650  17.570
 2627DOPG   C4A53384  21.090  22.840  17.430
 2627DOPG   C1B53385  22.030  23.050  18.030
 2627DOPG   D2B53386  22.080  23.260  17.580
 2627DOPG   C3B53387  22.260  23.120  17.330
 2627DOPG   C4B53388  22.650  23.060  17.310
 2628DOPG   GL053389  13.380  28.470   4.100
 2628DOPG   PO453390  13.800  28.210   4.220
 2628DOPG   GL153391  13.930  27.960   4.680
 2628DOPG   GL253392  13.710  28.010   4.830
 2628DOPG   C1A53393  14.220  27.780   4.950
 2628DOPG   D2A53394  14.450  27.570   5.300
 2628DOPG   C3A53395  14.290  27.120   5.350
 2628DOPG   C4A53396  14.230  26.710   5.630
 2628DOPG   C1B53397  13.780  27.790   5.240
 2628DOPG   D2B53398  13.980  27.550   5.570
 2628DOPG   C3B53399  14.390  27.390   5.700
 2628DOPG   C4B53400  14.560  27.040   5.860
 2629DOPG   GL053401   8.500  29.790  12.380
 2629DOPG   PO453402   8.600  29.420  12.650
 2629DOPG   GL153403   8.740  28.970  12.690
 2629DOPG   GL253404   8.820  28.680  12.970
 2629DOPG   C1A53405   8.990  28.580  12.470
 2629DOPG   D2A53406   9.210  28.420  12.660
 2629DOPG   C3A53407   9.390  28.060  12.650
 2629DOPG   C4A53408   9.480  27.600  12.750
 2629DOPG   C1B53409   8.540  28.330  13.080
 2629DOPG   D2B53410   8.590  27.950  12.950
 2629DOPG   C3B53411   9.000  27.780  12.940
 2629DOPG   C4B53412   9.120  27.340  13.010
 2630DOPG   GL053413  10.990  15.630   3.120
 2630DOPG   PO453414  10.770  15.940   3.530
 2630DOPG   GL153415  11.010  16.120   3.950
 2630DOPG   GL253416  10.800  16.180   4.250
 2630DOPG   C1A53417  11.210  16.460   4.210
 2630DOPG   D2A53418  11.580  16.490   4.370
 2630DOPG   C3A53419  11.820  16.270   4.560
 2630DOPG   C4A53420  12.240  16.340   4.460
 2630DOPG   C1B53421  11.190  16.130   4.660
 2630DOPG   D2B53422  11.470  16.260   5.000
 2630DOPG   C3B53423  11.870  16.480   5.070
 2630DOPG   C4B53424  12.230  16.780   5.050
 2631DOPG   GL053425  10.700  11.540   9.670
 2631DOPG   PO453426  10.760  11.220   9.900
 2631DOPG   GL153427  11.140  11.390   9.830
 2631DOPG   GL253428  11.320  11.180   9.900
 2631DOPG   C1A53429  11.400  11.810   9.840
 2631DOPG   D2A53430  11.770  11.880  10.080
 2631DOPG   C3A53431  12.110  11.960  10.280
 2631DOPG   C4A53432  12.290  12.290  10.560
 2631DOPG   C1B53433  11.470  11.460  10.180
 2631DOPG   D2B53434  11.730  11.560  10.540
 2631DOPG   C3B53435  11.920  11.970  10.720
 2631DOPG   C4B53436  12.260  12.250  11.060
 2632DOPG   GL053437   6.660  18.680  10.490
 2632DOPG   PO453438   6.620  18.630  10.120
 2632DOPG   GL153439   6.800  18.970  10.070
 2632DOPG   GL253440   6.900  19.250   9.840
 2632DOPG   C1A53441   7.260  18.860  10.090
 2632DOPG   D2A53442   7.720  19.020  10.160
 2632DOPG   C3A53443   8.050  19.090   9.910
 2632DOPG   C4A53444   8.340  19.370   9.700
 2632DOPG   C1B53445   7.100  19.410   9.500
 2632DOPG   D2B53446   7.420  19.490   9.220
 2632DOPG   C3B53447   7.780  19.560   9.440
 2632DOPG   C4B53448   7.990  19.680   9.920
 2633DOPG   GL053449  21.650  21.410  12.600
 2633DOPG   PO453450  21.220  21.430  12.430
 2633DOPG   GL153451  21.480  21.400  12.150
 2633DOPG   GL253452  21.450  21.080  12.160
 2633DOPG   C1A53453  21.790  21.420  11.770
 2633DOPG   D2A53454  22.140  21.310  11.730
 2633DOPG   C3A53455  22.510  21.390  11.930
 2633DOPG   C4A53456  22.960  21.290  12.090
 2633DOPG   C1B53457  21.770  20.850  11.840
 2633DOPG   D2B53458  22.040  20.530  11.530
 2633DOPG   C3B53459  22.420  20.830  11.280
 2633DOPG   C4B53460  22.560  21.220  11.340
 2634DOPG   GL053461  21.250  25.890  13.850
 2634DOPG   PO453462  21.040  25.720  13.420
 2634DOPG   GL153463  21.230  26.160  13.390
 2634DOPG   GL253464  21.010  26.290  13.610
 2634DOPG   C1A53465  21.480  26.280  13.160
 2634DOPG   D2A53466  21.520  26.470  12.660
 2634DOPG   C3A53467  21.580  26.260  12.350
 2634DOPG   C4A53468  21.820  26.000  12.110
 2634DOPG   C1B53469  21.370  26.380  13.830
 2634DOPG   D2B53470  21.590  26.720  13.930
 2634DOPG   C3B53471  22.070  26.750  13.960
 2634DOPG   C4B53472  22.360  27.010  14.160
 2635DOPG   GL053473   9.610  13.390  11.640
 2635DOPG   PO453474   9.610  13.230  11.200
 2635DOPG   GL153475  10.050  13.130  11.410
 2635DOPG   GL253476   9.970  13.060  11.720
 2635DOPG   C1A53477  10.370  13.280  11.200
 2635DOPG   D2A53478  10.650  13.600  11.250
 2635DOPG   C3A53479  10.980  13.520  11.540
 2635DOPG   C4A53480  11.310  13.720  11.770
 2635DOPG   C1B53481  10.280  13.170  11.980
 2635DOPG   D2B53482  10.500  13.530  11.760
 2635DOPG   C3B53483  10.770  13.660  12.110
 2635DOPG   C4B53484  11.070  13.880  12.260
 2636DOPG   GL053485  16.980  33.530  15.200
 2636DOPG   PO453486  16.810  33.650  14.810
 2636DOPG   GL153487  16.660  33.290  14.590
 2636DOPG   GL253488  16.320  33.280  14.390
 2636DOPG   C1A53489  16.600  32.870  14.690
 2636DOPG   D2A53490  16.950  32.580  14.860
 2636DOPG   C3A53491  16.850  32.210  14.940
 2636DOPG   C4A53492  16.920  31.780  15.010
 2636DOPG   C1B53493  16.260  32.820  14.340
 2636DOPG   D2B53494  16.100  32.410  14.320
 2636DOPG   C3B53495  15.680  32.320  14.350
 2636DOPG   C4B53496  15.580  31.890  14.460
 2637DOPG   GL053497  19.580  23.310  10.890
 2637DOPG   PO453498  19.940  23.450  11.070
 2637DOPG   GL153499  19.980  23.470  10.670
 2637DOPG   GL253500  20.320  23.760  10.660
 2637DOPG   C1A53501  19.820  23.740  10.350
 2637DOPG   D2A53502  20.120  24.090  10.170
 2637DOPG   C3A53503  20.420  24.100   9.790
 2637DOPG   C4A53504  20.570  23.980   9.380
 2637DOPG   C1B53505  20.620  23.870  10.250
 2637DOPG   D2B53506  20.900  23.950   9.860
 2637DOPG   C3B53507  21.260  24.220   9.720
 2637DOPG   C4B53508  21.550  24.500   9.580
 2638DOPG   GL053509  16.530  22.240  10.420
 2638DOPG   PO453510  16.070  22.350  10.400
 2638DOPG   GL153511  15.570  22.390  10.420
 2638DOPG   GL253512  15.400  22.460  10.620
 2638DOPG   C1A53513  15.480  22.670  10.070
 2638DOPG   D2A53514  15.200  22.630   9.600
 2638DOPG   C3A53515  14.920  22.890   9.490
 2638DOPG   C4A53516  14.490  22.800   9.470
 2638DOPG   C1B53517  15.110  22.540  10.510
 2638DOPG   D2B53518  14.990  22.500  10.170
 2638DOPG   C3B53519  14.660  22.620   9.910
 2638DOPG   C4B53520  14.230  22.630   9.830
 2639DOPG   GL053521  16.060  18.250  14.370
 2639DOPG   PO453522  16.380  17.850  14.330
 2639DOPG   GL153523  16.180  17.610  14.500
 2639DOPG   GL253524  16.560  17.470  14.620
 2639DOPG   C1A53525  16.110  17.260  14.610
 2639DOPG   D2A53526  16.380  16.980  14.800
 2639DOPG   C3A53527  16.510  17.220  15.130
 2639DOPG   C4A53528  16.700  17.510  15.430
 2639DOPG   C1B53529  16.780  17.110  14.490
 2639DOPG   D2B53530  16.950  16.760  14.230
 2639DOPG   C3B53531  16.720  16.430  14.070
 2639DOPG   C4B53532  16.610  16.080  14.110
 2640DOPG   GL053533  20.960  24.310  12.790
 2640DOPG   PO453534  21.330  24.050  12.820
 2640DOPG   GL153535  21.830  24.160  12.840
 2640DOPG   GL253536  21.960  24.420  12.770
 2640DOPG   C1A53537  22.160  24.090  12.480
 2640DOPG   D2A53538  22.440  24.430  12.590
 2640DOPG   C3A53539  22.340  24.660  13.000
 2640DOPG   C4A53540  22.260  25.070  13.120
 2640DOPG   C1B53541  22.310  24.160  13.000
 2640DOPG   D2B53542  22.760  24.340  13.070
 2640DOPG   C3B53543  22.920  24.730  12.800
 2640DOPG   C4B53544  23.260  25.060  12.930
 2641DOPG   GL053545   7.350  18.440  21.300
 2641DOPG   PO453546   7.450  18.520  20.780
 2641DOPG   GL153547   7.870  18.400  20.900
 2641DOPG   GL253548   8.190  18.630  20.980
 2641DOPG   C1A53549   8.310  18.210  20.740
 2641DOPG   D2A53550   8.590  18.050  21.060
 2641DOPG   C3A53551   9.020  18.160  21.010
 2641DOPG   C4A53552   9.430  18.270  20.960
 2641DOPG   C1B53553   8.670  18.520  20.990
 2641DOPG   D2B53554   8.950  18.470  20.640
 2641DOPG   C3B53555   9.320  18.540  20.530
 2641DOPG   C4B53556   9.470  18.960  20.380
 2642DOPG   GL053557  25.050  23.930  11.120
 2642DOPG   PO453558  24.720  24.100  10.840
 2642DOPG   GL153559  24.380  23.890  10.940
 2642DOPG   GL253560  24.250  24.120  10.990
 2642DOPG   C1A53561  24.200  23.670  11.270
 2642DOPG   D2A53562  23.770  23.550  11.380
 2642DOPG   C3A53563  23.600  23.880  11.640
 2642DOPG   C4A53564  23.180  23.960  11.700
 2642DOPG   C1B53565  23.770  24.030  11.160
 2642DOPG   D2B53566  23.310  24.120  11.200
 2642DOPG   C3B53567  23.010  23.720  11.230
 2642DOPG   C4B53568  22.570  23.630  11.120
 2643DOPG   GL053569  18.110  23.480  15.580
 2643DOPG   PO453570  18.470  23.700  15.580
 2643DOPG   GL153571  18.450  23.560  16.000
 2643DOPG   GL253572  18.190  23.300  16.060
 2643DOPG   C1A53573  18.370  23.490  16.470
 2643DOPG   D2A53574  18.590  23.670  16.840
 2643DOPG   C3A53575  18.950  23.920  16.760
 2643DOPG   C4A53576  19.190  24.320  16.790
 2643DOPG   C1B53577  17.910  23.150  16.320
 2643DOPG   D2B53578  17.580  23.060  16.170
 2643DOPG   C3B53579  17.230  23.420  16.280
 2643DOPG   C4B53580  16.890  23.460  16.070
 2644DOPG   GL053581  20.430  14.720  23.340
 2644DOPG   PO453582  20.380  15.170  23.080
 2644DOPG   GL153583  20.360  15.520  22.750
 2644DOPG   GL253584  20.140  15.870  22.780
 2644DOPG   C1A53585  20.500  15.720  22.290
 2644DOPG   D2A53586  20.410  15.830  21.940
 2644DOPG   C3A53587  20.270  16.300  21.850
 2644DOPG   C4A53588  20.420  16.560  21.490
 2644DOPG   C1B53589  20.190  16.110  22.370
 2644DOPG   D2B53590  19.820  16.370  22.100
 2644DOPG   C3B53591  19.750  16.270  21.610
 2644DOPG   C4B53592  19.870  16.180  21.230
 2645DOPG   GL053593  10.260  16.100  10.370
 2645DOPG   PO453594  10.410  15.680  10.350
 2645DOPG   GL153595  10.770  15.540  10.180
 2645DOPG   GL253596  10.890  15.400  10.350
 2645DOPG   C1A53597  11.090  15.450   9.840
 2645DOPG   D2A53598  11.500  15.300   9.770
 2645DOPG   C3A53599  11.630  15.090  10.100
 2645DOPG   C4A53600  11.600  14.960  10.570
 2645DOPG   C1B53601  11.160  15.230  10.620
 2645DOPG   D2B53602  11.270  15.030  10.980
 2645DOPG   C3B53603  11.280  14.500  10.950
 2645DOPG   C4B53604  11.600  14.270  11.020
 2646DOPG   GL053605  13.350  29.880  20.810
 2646DOPG   PO453606  12.940  29.820  20.760
 2646DOPG   GL153607  13.080  29.420  20.500
 2646DOPG   GL253608  12.840  29.240  20.380
 2646DOPG   C1A53609  13.440  29.060  20.430
 2646DOPG   D2A53610  13.630  29.380  20.090
 2646DOPG   C3A53611  13.750  29.250  19.690
 2646DOPG   C4A53612  13.640  29.210  19.310
 2646DOPG   C1B53613  12.860  29.110  19.930
 2646DOPG   D2B53614  12.980  28.760  19.670
 2646DOPG   C3B53615  13.350  28.730  19.470
 2646DOPG   C4B53616  13.670  28.680  19.250
 2647DOPG   GL053617  10.530  11.080  19.950
 2647DOPG   PO453618  10.660  11.060  19.470
 2647DOPG   GL153619  10.640  11.420  19.210
 2647DOPG   GL253620  11.000  11.610  19.240
 2647DOPG   C1A53621  10.540  11.370  18.750
 2647DOPG   D2A53622  10.740  11.430  18.400
 2647DOPG   C3A53623  11.020  11.600  18.160
 2647DOPG   C4A53624  11.140  11.980  18.150
 2647DOPG   C1B53625  10.730  11.980  19.130
 2647DOPG   D2B53626  10.660  12.380  19.030
 2647DOPG   C3B53627  10.950  12.590  18.760
 2647DOPG   C4B53628  11.120  12.940  18.550
 2648DOPG   GL053629  20.680  24.590  14.430
 2648DOPG   PO453630  20.930  24.550  14.050
 2648DOPG   GL153631  21.480  24.530  14.170
 2648DOPG   GL253632  21.750  24.560  13.880
 2648DOPG   C1A53633  21.610  24.850  14.370
 2648DOPG   D2A53634  21.930  25.300  14.230
 2648DOPG   C3A53635  22.270  25.610  14.130
 2648DOPG   C4A53636  22.410  26.000  14.050
 2648DOPG   C1B53637  21.950  24.960  13.890
 2648DOPG   D2B53638  22.400  25.090  13.590
 2648DOPG   C3B53639  22.610  25.500  13.700
 2648DOPG   C4B53640  23.020  25.630  13.920
 2649DOPG   GL053641  23.700  26.700  11.380
 2649DOPG   PO453642  23.530  27.130  11.400
 2649DOPG   GL153643  23.150  26.890  11.580
 2649DOPG   GL253644  23.050  27.090  11.920
 2649DOPG   C1A53645  22.980  26.480  11.820
 2649DOPG   D2A53646  23.170  26.090  12.160
 2649DOPG   C3A53647  22.860  26.120  12.510
 2649DOPG   C4A53648  22.550  25.880  12.750
 2649DOPG   C1B53649  23.040  26.840  12.320
 2649DOPG   D2B53650  23.190  26.500  12.630
 2649DOPG   C3B53651  23.000  26.300  12.950
 2649DOPG   C4B53652  22.880  25.870  13.160
 2650DOPG   GL053653   6.350  26.840  10.150
 2650DOPG   PO453654   6.200  26.340  10.070
 2650DOPG   GL153655   6.620  26.220  10.090
 2650DOPG   GL253656   6.620  26.490  10.300
 2650DOPG   C1A53657   7.090  26.360  10.090
 2650DOPG   D2A53658   7.300  26.220  10.510
 2650DOPG   C3A53659   7.620  25.960  10.330
 2650DOPG   C4A53660   7.950  25.520  10.330
 2650DOPG   C1B53661   6.840  26.440  10.660
 2650DOPG   D2B53662   6.950  26.230  11.130
 2650DOPG   C3B53663   7.150  25.910  11.160
 2650DOPG   C4B53664   7.510  25.800  11.340
 2651DOPG   GL053665  24.110  17.670  11.960
 2651DOPG   PO453666  23.880  17.730  11.650
 2651DOPG   GL153667  23.500  18.010  11.740
 2651DOPG   GL253668  23.560  18.240  11.890
 2651DOPG   C1A53669  22.960  17.990  11.700
 2651DOPG   D2A53670  22.560  18.270  11.570
 2651DOPG   C3A53671  22.410  17.960  11.160
 2651DOPG   C4A53672  22.010  17.910  11.090
 2651DOPG   C1B53673  23.180  18.150  12.120
 2651DOPG   D2B53674  22.770  17.980  12.210
 2651DOPG   C3B53675  22.380  18.130  12.040
 2651DOPG   C4B53676  22.030  18.230  11.690
 2652DOPG   GL053677  29.400  28.070  11.530
 2652DOPG   PO453678  28.950  28.280  11.580
 2652DOPG   GL153679  28.550  28.160  11.570
 2652DOPG   GL253680  28.520  27.760  11.680
 2652DOPG   C1A53681  28.120  28.290  11.760
 2652DOPG   D2A53682  27.760  28.550  11.910
 2652DOPG   C3A53683  27.540  28.440  11.630
 2652DOPG   C4A53684  27.250  28.350  11.300
 2652DOPG   C1B53685  28.390  27.400  11.890
 2652DOPG   D2B53686  28.100  27.060  12.010
 2652DOPG   C3B53687  28.220  26.710  12.230
 2652DOPG   C4B53688  27.870  26.500  12.480
 2653DOPG   GL053689   8.350  13.710  14.960
 2653DOPG   PO453690   8.190  13.740  15.370
 2653DOPG   GL153691   8.550  14.060  15.510
 2653DOPG   GL253692   8.770  13.760  15.480
 2653DOPG   C1A53693   8.880  14.410  15.450
 2653DOPG   D2A53694   9.230  14.680  15.380
 2653DOPG   C3A53695   9.530  15.020  15.560
 2653DOPG   C4A53696   9.750  15.480  15.560
 2653DOPG   C1B53697   9.070  14.000  15.750
 2653DOPG   D2B53698   9.450  14.090  15.870
 2653DOPG   C3B53699   9.560  14.450  15.720
 2653DOPG   C4B53700   9.750  14.570  15.420
 2654DOPG   GL053701   5.320  18.550  16.820
 2654DOPG   PO453702   5.370  18.990  16.960
 2654DOPG   GL153703   5.820  18.990  16.860
 2654DOPG   GL253704   6.000  19.350  16.730
 2654DOPG   C1A53705   6.110  18.960  16.480
 2654DOPG   D2A53706   6.510  19.220  16.390
 2654DOPG   C3A53707   6.930  19.050  16.460
 2654DOPG   C4A53708   7.150  18.830  16.780
 2654DOPG   C1B53709   6.350  19.200  16.860
 2654DOPG   D2B53710   6.730  18.990  16.940
 2654DOPG   C3B53711   6.750  18.560  17.010
 2654DOPG   C4B53712   6.690  18.240  16.810
 2655DOPG   GL053713  20.680  17.040   9.000
 2655DOPG   PO453714  21.090  17.190   8.990
 2655DOPG   GL153715  21.030  17.380   9.390
 2655DOPG   GL253716  20.680  17.400   9.340
 2655DOPG   C1A53717  20.750  17.580   9.770
 2655DOPG   D2A53718  20.580  17.830  10.140
 2655DOPG   C3A53719  20.100  18.060   9.960
 2655DOPG   C4A53720  19.740  18.230  10.000
 2655DOPG   C1B53721  20.310  17.390   9.430
 2655DOPG   D2B53722  20.180  17.590   9.800
 2655DOPG   C3B53723  19.770  17.680   9.930
 2655DOPG   C4B53724  19.630  17.920  10.350
 2656DOPG   GL053725  11.580  11.740   5.770
 2656DOPG   PO453726  12.030  11.870   6.050
 2656DOPG   GL153727  12.270  12.060   6.340
 2656DOPG   GL253728  11.930  12.050   6.570
 2656DOPG   C1A53729  12.530  12.450   6.370
 2656DOPG   D2A53730  12.760  12.830   6.490
 2656DOPG   C3A53731  12.970  13.230   6.230
 2656DOPG   C4A53732  13.390  13.380   6.180
 2656DOPG   C1B53733  12.030  12.480   6.650
 2656DOPG   D2B53734  12.140  12.710   6.300
 2656DOPG   C3B53735  12.000  13.180   6.340
 2656DOPG   C4B53736  11.640  13.360   6.520
 2657DOPG   GL053737  17.100  19.850  19.240
 2657DOPG   PO453738  16.690  19.650  19.280
 2657DOPG   GL153739  16.740  19.630  18.880
 2657DOPG   GL253740  17.060  19.690  18.760
 2657DOPG   C1A53741  16.630  20.010  18.500
 2657DOPG   D2A53742  16.680  20.250  18.070
 2657DOPG   C3A53743  16.390  20.430  17.850
 2657DOPG   C4A53744  16.000  20.310  17.910
 2657DOPG   C1B53745  16.960  19.640  18.380
 2657DOPG   D2B53746  16.820  19.760  18.090
 2657DOPG   C3B53747  16.930  19.630  17.600
 2657DOPG   C4B53748  16.990  19.270  17.510
 2658DOPG   GL053749  17.850  19.590  24.680
 2658DOPG   PO453750  17.850  19.690  24.280
 2658DOPG   GL153751  17.920  19.470  23.780
 2658DOPG   GL253752  17.790  19.140  23.830
 2658DOPG   C1A53753  17.920  19.600  23.400
 2658DOPG   D2A53754  17.900  19.560  22.850
 2658DOPG   C3A53755  17.810  19.790  22.600
 2658DOPG   C4A53756  17.890  19.660  22.140
 2658DOPG   C1B53757  17.760  19.140  23.410
 2658DOPG   D2B53758  17.600  19.260  23.120
 2658DOPG   C3B53759  17.340  18.870  22.980
 2658DOPG   C4B53760  17.200  18.380  22.990
 2659DOPG   GL053761  22.170   9.830  12.190
 2659DOPG   PO453762  21.770   9.890  12.380
 2659DOPG   GL153763  21.840  10.340  12.260
 2659DOPG   GL253764  21.490  10.310  12.200
 2659DOPG   C1A53765  21.820  10.760  12.180
 2659DOPG   D2A53766  21.900  11.160  12.210
 2659DOPG   C3A53767  21.710  11.390  12.570
 2659DOPG   C4A53768  21.620  11.350  13.040
 2659DOPG   C1B53769  21.110  10.570  12.270
 2659DOPG   D2B53770  20.700  10.650  12.170
 2659DOPG   C3B53771  20.670  11.180  12.180
 2659DOPG   C4B53772  20.290  11.440  12.030
 2660DOPG   GL053773  20.370  33.060  18.260
 2660DOPG   PO453774  19.990  33.090  18.040
 2660DOPG   GL153775  20.090  32.620  17.900
 2660DOPG   GL253776  20.090  32.500  17.540
 2660DOPG   C1A53777  20.380  32.250  18.020
 2660DOPG   D2A53778  20.470  31.880  17.730
 2660DOPG   C3A53779  20.570  31.870  17.350
 2660DOPG   C4A53780  20.340  31.430  16.970
 2660DOPG   C1B53781  20.240  32.170  17.310
 2660DOPG   D2B53782  20.180  31.970  17.070
 2660DOPG   C3B53783  20.450  32.090  16.790
 2660DOPG   C4B53784  20.620  32.290  16.410
 2661DOPG   GL053785  21.070  23.580  15.180
 2661DOPG   PO453786  21.250  23.950  14.960
 2661DOPG   GL153787  21.550  24.240  15.130
 2661DOPG   GL253788  21.740  24.090  15.050
 2661DOPG   C1A53789  21.680  24.620  15.220
 2661DOPG   D2A53790  21.680  24.790  15.710
 2661DOPG   C3A53791  21.930  24.520  16.060
 2661DOPG   C4A53792  22.000  24.100  16.070
 2661DOPG   C1B53793  22.070  24.230  15.160
 2661DOPG   D2B53794  22.440  24.330  15.230
 2661DOPG   C3B53795  22.720  23.980  15.100
 2661DOPG   C4B53796  23.130  24.000  14.850
 2662DOPG   GL053797  18.580  25.710  13.210
 2662DOPG   PO453798  18.300  25.660  12.940
 2662DOPG   GL153799  18.200  26.090  13.000
 2662DOPG   GL253800  18.580  26.210  12.980
 2662DOPG   C1A53801  18.260  26.460  12.740
 2662DOPG   D2A53802  18.160  26.840  12.480
 2662DOPG   C3A53803  18.110  26.720  12.160
 2662DOPG   C4A53804  18.110  26.930  11.750
 2662DOPG   C1B53805  18.330  26.410  13.310
 2662DOPG   D2B53806  17.960  26.620  13.340
 2662DOPG   C3B53807  17.970  27.130  13.390
 2662DOPG   C4B53808  17.800  27.580  13.420
 2663DOPG   GL053809  25.860  31.190  17.330
 2663DOPG   PO453810  25.880  31.310  17.820
 2663DOPG   GL153811  25.710  30.880  17.810
 2663DOPG   GL253812  25.820  30.730  18.080
 2663DOPG   C1A53813  25.470  30.690  17.460
 2663DOPG   D2A53814  25.180  30.400  17.450
 2663DOPG   C3A53815  25.260  30.140  17.750
 2663DOPG   C4A53816  25.400  29.820  17.930
 2663DOPG   C1B53817  25.710  30.330  17.810
 2663DOPG   D2B53818  25.640  30.220  17.320
 2663DOPG   C3B53819  25.330  29.890  17.310
 2663DOPG   C4B53820  25.040  29.600  17.140
 2664DOPG   GL053821  18.170  13.370  12.760
 2664DOPG   PO453822  18.010  13.810  12.730
 2664DOPG   GL153823  18.080  14.250  12.880
 2664DOPG   GL253824  17.950  14.480  12.630
 2664DOPG   C1A53825  18.300  14.640  12.940
 2664DOPG   D2A53826  18.760  14.870  12.940
 2664DOPG   C3A53827  18.870  15.300  12.690
 2664DOPG   C4A53828  18.740  15.720  12.660
 2664DOPG   C1B53829  18.020  14.880  12.530
 2664DOPG   D2B53830  17.810  15.340  12.500
 2664DOPG   C3B53831  17.710  15.700  12.580
 2664DOPG   C4B53832  17.850  16.050  12.780
 2665DOPG   GL053833  25.740  30.310   7.040
 2665DOPG   PO453834  25.620  29.850   7.230
 2665DOPG   GL153835  25.450  29.580   7.570
 2665DOPG   GL253836  25.640  29.440   7.630
 2665DOPG   C1A53837  24.950  29.550   7.660
 2665DOPG   D2A53838  24.600  29.570   7.410
 2665DOPG   C3A53839  24.370  29.230   7.230
 2665DOPG   C4A53840  24.050  29.310   7.010
 2665DOPG   C1B53841  26.000  29.290   8.000
 2665DOPG   D2B53842  26.040  29.110   8.360
 2665DOPG   C3B53843  25.650  29.040   8.590
 2665DOPG   C4B53844  25.350  28.840   8.990
 2666DOPG   GL053845   8.140  22.340  19.920
 2666DOPG   PO453846   8.390  22.610  20.340
 2666DOPG   GL153847   8.870  22.840  20.210
 2666DOPG   GL253848   9.090  22.530  20.080
 2666DOPG   C1A53849   9.190  23.000  19.950
 2666DOPG   D2A53850   9.560  22.790  19.720
 2666DOPG   C3A53851  10.000  22.790  19.640
 2666DOPG   C4A53852  10.450  22.990  19.690
 2666DOPG   C1B53853   9.130  22.590  19.650
 2666DOPG   D2B53854   9.400  22.610  19.300
 2666DOPG   C3B53855   9.490  22.320  18.970
 2666DOPG   C4B53856   9.730  22.000  18.750
 2667DOPG   GL053857  11.420   9.620  11.870
 2667DOPG   PO453858  11.130   9.720  11.450
 2667DOPG   GL153859  11.260  10.120  11.520
 2667DOPG   GL253860  11.070  10.350  11.540
 2667DOPG   C1A53861  11.680  10.230  11.690
 2667DOPG   D2A53862  12.050  10.550  11.900
 2667DOPG   C3A53863  12.240  10.830  11.630
 2667DOPG   C4A53864  12.230  11.300  11.350
 2667DOPG   C1B53865  11.310  10.700  11.410
 2667DOPG   D2B53866  11.790  10.690  11.470
 2667DOPG   C3B53867  11.990  10.890  11.190
 2667DOPG   C4B53868  12.370  10.890  11.080
 2668DOPG   GL053869   5.360  23.750  10.330
 2668DOPG   PO453870   5.470  24.120  10.390
 2668DOPG   GL153871   5.620  24.350  10.810
 2668DOPG   GL253872   5.630  24.660  10.810
 2668DOPG   C1A53873   5.600  24.370  11.220
 2668DOPG   D2A53874   5.780  24.120  11.520
 2668DOPG   C3A53875   6.230  23.960  11.570
 2668DOPG   C4A53876   6.450  23.700  11.410
 2668DOPG   C1B53877   5.970  24.570  10.570
 2668DOPG   D2B53878   6.410  24.370  10.630
 2668DOPG   C3B53879   6.720  24.400  10.970
 2668DOPG   C4B53880   7.180  24.420  11.210
 2669DOPG   GL053881  15.640  18.290  14.630
 2669DOPG   PO453882  15.470  18.590  14.750
 2669DOPG   GL153883  15.110  18.660  14.960
 2669DOPG   GL253884  15.020  18.330  14.820
 2669DOPG   C1A53885  14.760  18.850  15.050
 2669DOPG   D2A53886  14.680  18.660  15.370
 2669DOPG   C3A53887  14.420  18.450  15.470
 2669DOPG   C4A53888  14.310  18.260  15.780
 2669DOPG   C1B53889  15.120  17.950  15.080
 2669DOPG   D2B53890  15.180  17.800  15.460
 2669DOPG   C3B53891  15.410  17.920  15.620
 2669DOPG   C4B53892  15.840  17.920  15.860
 2670DOPG   GL053893  14.190  18.070  12.310
 2670DOPG   PO453894  14.410  18.110  11.930
 2670DOPG   GL153895  14.330  17.840  11.590
 2670DOPG   GL253896  14.090  17.920  11.390
 2670DOPG   C1A53897  14.350  17.350  11.500
 2670DOPG   D2A53898  14.480  16.910  11.540
 2670DOPG   C3A53899  14.680  16.720  11.780
 2670DOPG   C4A53900  14.610  16.260  11.970
 2670DOPG   C1B53901  14.440  17.980  11.020
 2670DOPG   D2B53902  14.440  17.680  10.580
 2670DOPG   C3B53903  14.790  17.640  10.350
 2670DOPG   C4B53904  14.980  17.590   9.980
 2671DOPG   GL053905  19.550  23.920  15.590
 2671DOPG   PO453906  19.130  23.880  15.720
 2671DOPG   GL153907  19.230  23.990  16.160
 2671DOPG   GL253908  19.580  24.140  16.110
 2671DOPG   C1A53909  19.180  24.400  16.310
 2671DOPG   D2A53910  18.760  24.460  16.510
 2671DOPG   C3A53911  18.670  24.330  16.980
 2671DOPG   C4A53912  18.740  24.240  17.470
 2671DOPG   C1B53913  19.660  24.030  16.510
 2671DOPG   D2B53914  19.660  24.040  16.940
 2671DOPG   C3B53915  19.760  24.370  17.160
 2671DOPG   C4B53916  19.910  24.710  17.410
 2672DOPG   GL053917  13.820  27.560  15.090
 2672DOPG   PO453918  13.890  27.820  15.300
 2672DOPG   GL153919  13.600  27.980  15.410
 2672DOPG   GL253920  13.570  28.330  15.290
 2672DOPG   C1A53921  13.230  28.170  15.580
 2672DOPG   D2A53922  13.110  28.330  15.990
 2672DOPG   C3A53923  13.280  28.810  16.160
 2672DOPG   C4A53924  13.200  29.270  16.090
 2672DOPG   C1B53925  13.450  28.720  15.160
 2672DOPG   D2B53926  13.180  28.990  15.070
 2672DOPG   C3B53927  13.110  29.290  15.320
 2672DOPG   C4B53928  12.930  29.540  15.160
 2673DOPG   GL053929  11.900  29.680  19.850
 2673DOPG   PO453930  12.240  29.540  19.700
 2673DOPG   GL153931  12.320  29.410  19.270
 2673DOPG   GL253932  11.950  29.240  19.110
 2673DOPG   C1A53933  12.380  29.110  18.910
 2673DOPG   D2A53934  12.420  28.970  18.530
 2673DOPG   C3A53935  12.720  29.180  18.170
 2673DOPG   C4A53936  13.110  29.370  18.160
 2673DOPG   C1B53937  11.840  28.940  18.850
 2673DOPG   D2B53938  12.120  28.590  18.640
 2673DOPG   C3B53939  12.450  28.490  18.540
 2673DOPG   C4B53940  12.670  28.200  18.500
 2674DOPG   GL053941   7.550  17.330  11.740
 2674DOPG   PO453942   7.840  17.520  12.020
 2674DOPG   GL153943   7.880  17.740  12.370
 2674DOPG   GL253944   7.860  17.440  12.680
 2674DOPG   C1A53945   8.040  18.170  12.420
 2674DOPG   D2A53946   8.340  18.480  12.520
 2674DOPG   C3A53947   8.750  18.740  12.410
 2674DOPG   C4A53948   9.140  18.990  12.570
 2674DOPG   C1B53949   8.240  17.590  12.780
 2674DOPG   D2B53950   8.650  17.640  12.840
 2674DOPG   C3B53951   8.810  17.870  13.170
 2674DOPG   C4B53952   9.060  17.910  13.560
 2675DOPG   GL053953  26.290  30.010  18.700
 2675DOPG   PO453954  26.530  30.230  18.290
 2675DOPG   GL153955  26.320  29.870  18.180
 2675DOPG   GL253956  26.000  29.920  18.080
 2675DOPG   C1A53957  26.010  29.660  18.560
 2675DOPG   D2A53958  25.980  29.200  18.660
 2675DOPG   C3A53959  25.850  29.110  19.110
 2675DOPG   C4A53960  26.050  28.940  19.500
 2675DOPG   C1B53961  26.000  29.520  18.100
 2675DOPG   D2B53962  25.940  29.040  18.190
 2675DOPG   C3B53963  26.090  28.670  18.540
 2675DOPG   C4B53964  26.050  28.260  18.720
 2676DOPG   GL053965  13.550  32.450  10.690
 2676DOPG   PO453966  13.900  32.640  10.390
 2676DOPG   GL153967  13.930  32.130  10.410
 2676DOPG   GL253968  13.720  31.970  10.600
 2676DOPG   C1A53969  14.250  31.740  10.480
 2676DOPG   D2A53970  14.440  31.190  10.590
 2676DOPG   C3A53971  14.660  31.120  11.020
 2676DOPG   C4A53972  15.000  31.110  11.280
 2676DOPG   C1B53973  13.730  31.490  10.600
 2676DOPG   D2B53974  13.670  31.050  10.560
 2676DOPG   C3B53975  13.400  30.760  10.300
 2676DOPG   C4B53976  13.480  30.340  10.290
 2677DOPG   GL053977   9.010  17.090   5.130
 2677DOPG   PO453978   9.300  16.930   4.800
 2677DOPG   GL153979   9.630  16.930   4.960
 2677DOPG   GL253980   9.860  16.690   5.090
 2677DOPG   C1A53981   9.750  17.230   5.280
 2677DOPG   D2A53982  10.180  17.310   5.490
 2677DOPG   C3A53983  10.350  17.640   5.740
 2677DOPG   C4A53984  10.360  18.090   5.800
 2677DOPG   C1B53985  10.020  16.810   5.430
 2677DOPG   D2B53986  10.360  16.800   5.630
 2677DOPG   C3B53987  10.640  17.120   5.510
 2677DOPG   C4B53988  11.030  17.410   5.540
 2678DOPG   GL053989  20.300  20.490  14.630
 2678DOPG   PO453990  20.280  20.260  15.000
 2678DOPG   GL153991  20.680  20.090  15.030
 2678DOPG   GL253992  20.700  19.750  15.050
 2678DOPG   C1A53993  21.050  19.940  15.340
 2678DOPG   D2A53994  21.450  20.010  15.520
 2678DOPG   C3A53995  21.470  20.360  15.520
 2678DOPG   C4A53996  21.470  20.760  15.290
 2678DOPG   C1B53997  20.910  19.450  15.380
 2678DOPG   D2B53998  21.170  19.140  15.640
 2678DOPG   C3B53999  20.840  18.840  15.740
 2678DOPG   C4B54000  20.830  18.390  15.780
 2679DOPG   GL054001  21.220  22.630  14.300
 2679DOPG   PO454002  21.630  22.600  14.520
 2679DOPG   GL154003  21.950  22.480  14.690
 2679DOPG   GL254004  22.300  22.480  14.710
 2679DOPG   C1A54005  22.150  22.580  15.190
 2679DOPG   D2A54006  22.360  22.550  15.480
 2679DOPG   C3A54007  22.650  22.290  15.750
 2679DOPG   C4A54008  22.980  21.970  15.950
 2679DOPG   C1B54009  22.620  22.220  14.510
 2679DOPG   D2B54010  22.870  22.260  14.180
 2679DOPG   C3B54011  23.360  22.420  14.500
 2679DOPG   C4B54012  23.670  22.800  14.630
 2680DOPG   GL054013  22.900  19.670   8.930
 2680DOPG   PO454014  22.980  19.600   9.430
 2680DOPG   GL154015  22.630  19.680   9.680
 2680DOPG   GL254016  22.370  19.850   9.510
 2680DOPG   C1A54017  22.300  19.580   9.920
 2680DOPG   D2A54018  22.140  19.230   9.910
 2680DOPG   C3A54019  21.770  19.230  10.280
 2680DOPG   C4A54020  21.780  19.280  10.730
 2680DOPG   C1B54021  22.160  20.160   9.640
 2680DOPG   D2B54022  22.250  20.400   9.930
 2680DOPG   C3B54023  22.140  20.410  10.350
 2680DOPG   C4B54024  22.110  20.100  10.620
 2681DOPG   GL054025  23.750  18.760  12.170
 2681DOPG   PO454026  23.980  19.050  12.420
 2681DOPG   GL154027  23.920  19.530  12.480
 2681DOPG   GL254028  24.140  19.750  12.310
 2681DOPG   C1A54029  23.720  19.800  12.750
 2681DOPG   D2A54030  23.510  20.110  12.970
 2681DOPG   C3A54031  23.070  20.210  12.850
 2681DOPG   C4A54032  22.690  20.290  12.770
 2681DOPG   C1B54033  23.940  20.110  12.410
 2681DOPG   D2B54034  23.920  20.370  12.100
 2681DOPG   C3B54035  23.420  20.340  12.010
 2681DOPG   C4B54036  23.130  20.780  12.030
 2682DOPG   GL054037  16.050  20.780  16.160
 2682DOPG   PO454038  16.070  20.910  15.780
 2682DOPG   GL154039  16.150  21.390  15.910
 2682DOPG   GL254040  15.980  21.290  16.210
 2682DOPG   C1A54041  16.130  21.850  16.150
 2682DOPG   D2A54042  15.970  22.130  16.250
 2682DOPG   C3A54043  16.140  22.150  16.610
 2682DOPG   C4A54044  16.220  21.980  16.990
 2682DOPG   C1B54045  15.870  21.100  16.460
 2682DOPG   D2B54046  15.750  21.050  16.840
 2682DOPG   C3B54047  15.570  21.370  17.230
 2682DOPG   C4B54048  15.550  21.620  17.540
 2683DOPG   GL054049  10.240  17.060  16.990
 2683DOPG   PO454050  10.050  17.230  17.380
 2683DOPG   GL154051   9.690  17.230  17.540
 2683DOPG   GL254052   9.440  17.600  17.490
 2683DOPG   C1A54053   9.400  17.150  17.230
 2683DOPG   D2A54054   9.350  16.850  16.830
 2683DOPG   C3A54055   9.090  16.910  16.460
 2683DOPG   C4A54056   8.850  16.460  16.200
 2683DOPG   C1B54057   9.040  17.500  17.280
 2683DOPG   D2B54058   8.610  17.520  17.460
 2683DOPG   C3B54059   8.450  17.310  17.250
 2683DOPG   C4B54060   8.030  17.140  17.080
 2684DOPG   GL054061  19.500  23.430  15.760
 2684DOPG   PO454062  19.700  23.450  16.130
 2684DOPG   GL154063  19.960  23.480  16.430
 2684DOPG   GL254064  20.210  23.530  16.270
 2684DOPG   C1A54065  19.940  23.640  16.850
 2684DOPG   D2A54066  19.920  23.460  17.350
 2684DOPG   C3A54067  20.040  23.650  17.730
 2684DOPG   C4A54068  20.060  24.100  17.950
 2684DOPG   C1B54069  20.450  23.430  16.640
 2684DOPG   D2B54070  20.360  23.370  17.030
 2684DOPG   C3B54071  20.360  23.120  17.320
 2684DOPG   C4B54072  20.590  22.860  17.580
 2685DOPG   GL054073  12.430   8.660  17.240
 2685DOPG   PO454074  12.090   8.890  17.370
 2685DOPG   GL154075  12.250   9.220  17.210
 2685DOPG   GL254076  12.470   9.490  17.370
 2685DOPG   C1A54077  12.410   9.370  16.830
 2685DOPG   D2A54078  12.510   9.760  16.630
 2685DOPG   C3A54079  12.810   9.770  16.340
 2685DOPG   C4A54080  13.170   9.680  16.100
 2685DOPG   C1B54081  12.680   9.880  17.120
 2685DOPG   D2B54082  12.920  10.140  16.760
 2685DOPG   C3B54083  13.140  10.550  16.880
 2685DOPG   C4B54084  13.340  10.960  16.620
 2686DOPG   GL054085   4.930  19.430  13.150
 2686DOPG   PO454086   5.380  19.620  13.190
 2686DOPG   GL154087   5.650  19.980  13.230
 2686DOPG   GL254088   5.740  19.930  12.900
 2686DOPG   C1A54089   6.040  20.000  13.580
 2686DOPG   D2A54090   6.340  20.210  13.780
 2686DOPG   C3A54091   6.660  19.900  13.640
 2686DOPG   C4A54092   6.750  19.580  13.310
 2686DOPG   C1B54093   6.160  19.950  12.830
 2686DOPG   D2B54094   6.460  20.180  12.640
 2686DOPG   C3B54095   6.720  20.490  12.810
 2686DOPG   C4B54096   7.150  20.420  12.940
 2687DOPG   GL054097  16.440  18.280  11.880
 2687DOPG   PO454098  16.450  18.340  11.460
 2687DOPG   GL154099  16.460  17.990  11.370
 2687DOPG   GL254100  16.060  17.990  11.270
 2687DOPG   C1A54101  16.230  17.540  11.440
 2687DOPG   D2A54102  16.040  17.040  11.560
 2687DOPG   C3A54103  16.200  16.680  11.470
 2687DOPG   C4A54104  16.640  16.450  11.320
 2687DOPG   C1B54105  16.230  17.720  10.980
 2687DOPG   D2B54106  16.560  17.780  10.600
 2687DOPG   C3B54107  16.580  17.700  10.180
 2687DOPG   C4B54108  16.730  17.510   9.830
 2688DOPG   GL054109  21.280  23.700  12.460
 2688DOPG   PO454110  21.130  24.020  12.340
 2688DOPG   GL154111  21.630  24.050  12.410
 2688DOPG   GL254112  21.720  23.860  12.150
 2688DOPG   C1A54113  21.810  24.350  12.200
 2688DOPG   D2A54114  22.180  24.560  12.160
 2688DOPG   C3A54115  22.430  24.880  12.480
 2688DOPG   C4A54116  22.740  25.170  12.400
 2688DOPG   C1B54117  21.760  23.790  11.810
 2688DOPG   D2B54118  21.750  23.540  11.390
 2688DOPG   C3B54119  22.100  23.310  11.170
 2688DOPG   C4B54120  22.320  22.950  11.350
 2689DOPG   GL054121  14.480  11.320   4.400
 2689DOPG   PO454122  14.200  11.230   4.740
 2689DOPG   GL154123  14.400  11.530   4.960
 2689DOPG   GL254124  14.680  11.370   5.080
 2689DOPG   C1A54125  14.430  11.810   5.310
 2689DOPG   D2A54126  14.540  12.200   5.560
 2689DOPG   C3A54127  14.820  12.300   5.870
 2689DOPG   C4A54128  15.030  12.620   6.110
 2689DOPG   C1B54129  14.650  11.440   5.580
 2689DOPG   D2B54130  14.390  11.800   5.830
 2689DOPG   C3B54131  14.120  12.230   5.810
 2689DOPG   C4B54132  14.240  12.580   6.140
 2690DOPG   GL054133  20.740  21.650  12.160
 2690DOPG   PO454134  21.120  21.780  12.140
 2690DOPG   GL154135  21.590  21.850  11.950
 2690DOPG   GL254136  21.850  21.740  12.150
 2690DOPG   C1A54137  21.850  21.820  11.520
 2690DOPG   D2A54138  22.130  22.110  11.320
 2690DOPG   C3A54139  22.650  22.190  11.340
 2690DOPG   C4A54140  22.940  22.090  11.730
 2690DOPG   C1B54141  22.230  21.530  12.330
 2690DOPG   D2B54142  22.210  21.290  12.740
 2690DOPG   C3B54143  22.290  20.820  12.690
 2690DOPG   C4B54144  22.260  20.540  12.530
 2691DOPG   GL054145  12.310  18.240   8.240
 2691DOPG   PO454146  12.270  17.990   7.930
 2691DOPG   GL154147  11.980  17.830   8.300
 2691DOPG   GL254148  12.090  17.990   8.680
 2691DOPG   C1A54149  11.530  17.900   8.350
 2691DOPG   D2A54150  11.220  18.300   8.390
 2691DOPG   C3A54151  10.900  18.310   8.110
 2691DOPG   C4A54152  10.510  18.180   7.870
 2691DOPG   C1B54153  11.740  17.750   8.740
 2691DOPG   D2B54154  11.240  17.630   8.630
 2691DOPG   C3B54155  10.980  17.950   8.680
 2691DOPG   C4B54156  10.640  17.900   8.880
 2692DOPG   GL054157   7.750  14.610  20.820
 2692DOPG   PO454158   7.930  14.300  20.560
 2692DOPG   GL154159   8.260  14.510  20.610
 2692DOPG   GL254160   8.400  14.410  20.270
 2692DOPG   C1A54161   8.670  14.670  20.650
 2692DOPG   D2A54162   8.900  14.780  20.940
 2692DOPG   C3A54163   9.260  15.080  21.130
 2692DOPG   C4A54164   9.650  15.180  21.230
 2692DOPG   C1B54165   8.740  14.310  20.170
 2692DOPG   D2B54166   9.020  14.510  20.010
 2692DOPG   C3B54167   9.410  14.450  20.160
 2692DOPG   C4B54168   9.830  14.520  20.360
 2693DOPG   GL054169  13.770  20.400  23.650
 2693DOPG   PO454170  13.340  20.460  23.720
 2693DOPG   GL154171  13.240  20.450  23.280
 2693DOPG   GL254172  13.200  20.700  23.200
 2693DOPG   C1A54173  13.410  20.240  22.990
 2693DOPG   D2A54174  13.250  20.110  22.570
 2693DOPG   C3A54175  13.510  19.970  22.270
 2693DOPG   C4A54176  13.570  19.970  21.880
 2693DOPG   C1B54177  13.450  20.830  22.810
 2693DOPG   D2B54178  13.290  20.940  22.320
 2693DOPG   C3B54179  13.360  21.170  21.930
 2693DOPG   C4B54180  13.680  21.250  21.650
 2694DOPG   GL054181  17.560  28.700  16.450
 2694DOPG   PO454182  17.260  29.050  16.500
 2694DOPG   GL154183  16.930  29.260  16.780
 2694DOPG   GL254184  17.140  29.590  16.800
 2694DOPG   C1A54185  16.630  29.500  17.140
 2694DOPG   D2A54186  16.480  29.910  17.270
 2694DOPG   C3A54187  16.080  30.090  17.390
 2694DOPG   C4A54188  15.740  30.410  17.340
 2694DOPG   C1B54189  16.920  29.890  16.970
 2694DOPG   D2B54190  16.660  30.260  16.970
 2694DOPG   C3B54191  16.920  30.730  17.000
 2694DOPG   C4B54192  16.950  31.190  17.110
 2695DOPG   GL054193  15.950  21.210  11.060
 2695DOPG   PO454194  16.370  21.020  10.900
 2695DOPG   GL154195  16.050  20.900  10.530
 2695DOPG   GL254196  15.950  21.270  10.530
 2695DOPG   C1A54197  15.670  20.800  10.260
 2695DOPG   D2A54198  15.380  20.910   9.810
 2695DOPG   C3A54199  15.280  20.670   9.450
 2695DOPG   C4A54200  15.660  20.520   9.280
 2695DOPG   C1B54201  15.460  21.520  10.300
 2695DOPG   D2B54202  15.540  21.880   9.990
 2695DOPG   C3B54203  15.830  21.860   9.660
 2695DOPG   C4B54204  15.800  21.880   9.210
 2696DOPG   GL054205   9.950  11.480  11.530
 2696DOPG   PO454206  10.030  11.640  11.120
 2696DOPG   GL154207  10.320  11.780  11.420
 2696DOPG   GL254208  10.400  11.650  11.700
 2696DOPG   C1A54209  10.730  11.950  11.460
 2696DOPG   D2A54210  11.090  12.050  11.350
 2696DOPG   C3A54211  11.320  12.450  11.280
 2696DOPG   C4A54212  11.520  12.850  11.210
 2696DOPG   C1B54213  10.780  11.760  11.920
 2696DOPG   D2B54214  11.120  11.950  11.930
 2696DOPG   C3B54215  11.510  12.040  11.590
 2696DOPG   C4B54216  11.900  12.130  11.450
 2697DOPG   GL054217  13.100  31.740   8.800
 2697DOPG   PO454218  12.680  31.620   8.710
 2697DOPG   GL154219  12.920  31.270   8.820
 2697DOPG   GL254220  12.770  31.150   8.460
 2697DOPG   C1A54221  13.090  30.900   9.100
 2697DOPG   D2A54222  13.230  30.800   9.540
 2697DOPG   C3A54223  13.530  30.590   9.550
 2697DOPG   C4A54224  14.010  30.470   9.290
 2697DOPG   C1B54225  12.750  30.780   8.760
 2697DOPG   D2B54226  12.610  30.640   9.220
 2697DOPG   C3B54227  12.920  30.390   9.320
 2697DOPG   C4B54228  13.180  30.060   9.550
 2698DOPG   GL054229   8.820  12.960  13.600
 2698DOPG   PO454230   8.730  13.320  13.270
 2698DOPG   GL154231   9.160  13.170  13.310
 2698DOPG   GL254232   9.210  13.050  13.030
 2698DOPG   C1A54233   9.500  13.200  13.550
 2698DOPG   D2A54234   9.860  13.310  13.870
 2698DOPG   C3A54235  10.030  13.790  13.960
 2698DOPG   C4A54236  10.350  13.970  14.130
 2698DOPG   C1B54237   9.700  12.930  13.190
 2698DOPG   D2B54238   9.970  12.590  13.220
 2698DOPG   C3B54239  10.260  12.610  13.440
 2698DOPG   C4B54240  10.500  12.580  13.690
 2699DOPG   GL054241  19.620  19.180  12.570
 2699DOPG   PO454242  19.950  18.850  12.770
 2699DOPG   GL154243  20.350  18.760  12.940
 2699DOPG   GL254244  20.680  18.910  12.940
 2699DOPG   C1A54245  20.700  18.440  12.800
 2699DOPG   D2A54246  21.140  18.330  12.860
 2699DOPG   C3A54247  21.270  17.930  12.870
 2699DOPG   C4A54248  21.450  17.410  12.920
 2699DOPG   C1B54249  20.920  18.830  12.480
 2699DOPG   D2B54250  20.860  18.470  12.140
 2699DOPG   C3B54251  21.070  18.050  12.370
 2699DOPG   C4B54252  21.540  18.180  12.540
 2700DOPG   GL054253  27.340  19.000  20.720
 2700DOPG   PO454254  27.490  19.380  20.350
 2700DOPG   GL154255  27.240  19.290  19.960
 2700DOPG   GL254256  27.460  19.370  19.710
 2700DOPG   C1A54257  26.930  19.170  19.720
 2700DOPG   D2A54258  26.610  19.360  19.730
 2700DOPG   C3A54259  26.530  19.450  20.250
 2700DOPG   C4A54260  26.680  19.740  20.470
 2700DOPG   C1B54261  27.130  19.620  19.470
 2700DOPG   D2B54262  26.690  19.930  19.350
 2700DOPG   C3B54263  26.720  20.250  19.110
 2700DOPG   C4B54264  26.630  20.650  18.870
 2701DOPG   GL054265  18.130  23.710  24.990
 2701DOPG   PO454266  18.110  23.430  24.650
 2701DOPG   GL154267  18.280  23.680  24.280
 2701DOPG   GL254268  18.230  23.960  24.140
 2701DOPG   C1A54269  18.550  23.660  23.930
 2701DOPG   D2A54270  18.550  23.730  23.540
 2701DOPG   C3A54271  18.270  23.850  23.280
 2701DOPG   C4A54272  17.930  23.820  22.930
 2701DOPG   C1B54273  18.100  23.700  23.830
 2701DOPG   D2B54274  18.200  23.360  23.360
 2701DOPG   C3B54275  18.340  22.970  23.410
 2701DOPG   C4B54276  18.290  22.580  23.520
 2702DOPG   GL054277  11.300  27.580   4.910
 2702DOPG   PO454278  11.600  27.690   4.680
 2702DOPG   GL154279  11.890  27.490   4.940
 2702DOPG   GL254280  11.690  27.370   5.110
 2702DOPG   C1A54281  12.300  27.280   5.000
 2702DOPG   D2A54282  12.700  27.060   5.020
 2702DOPG   C3A54283  12.650  26.790   5.350
 2702DOPG   C4A54284  12.940  26.640   5.660
 2702DOPG   C1B54285  11.900  27.040   5.460
 2702DOPG   D2B54286  11.910  27.230   5.950
 2702DOPG   C3B54287  12.140  26.840   6.240
 2702DOPG   C4B54288  12.250  26.550   6.660
 2703DOPG   GL054289  22.070  30.380  21.210
 2703DOPG   PO454290  21.700  30.270  21.460
 2703DOPG   GL154291  21.520  29.960  21.280
 2703DOPG   GL254292  21.730  29.850  21.140
 2703DOPG   C1A54293  21.350  29.890  20.870
 2703DOPG   D2A54294  21.390  29.740  20.480
 2703DOPG   C3A54295  21.280  29.260  20.340
 2703DOPG   C4A54296  21.040  29.050  20.210
 2703DOPG   C1B54297  21.840  29.800  20.710
 2703DOPG   D2B54298  22.220  29.790  20.570
 2703DOPG   C3B54299  22.150  29.970  20.100
 2703DOPG   C4B54300  22.280  30.280  19.800
 2704DOPG   GL054301  26.300  25.030  22.520
 2704DOPG   PO454302  26.160  24.760  22.230
 2704DOPG   GL154303  25.740  24.860  21.950
 2704DOPG   GL254304  25.810  24.850  21.660
 2704DOPG   C1A54305  25.390  24.620  21.990
 2704DOPG   D2A54306  25.090  24.450  21.740
 2704DOPG   C3A54307  24.960  23.970  21.670
 2704DOPG   C4A54308  25.170  23.600  21.460
 2704DOPG   C1B54309  25.640  24.850  21.290
 2704DOPG   D2B54310  25.560  25.090  20.870
 2704DOPG   C3B54311  25.800  25.250  20.460
 2704DOPG   C4B54312  25.910  25.250  20.020
 2705DOPG   GL054313   6.230  26.590  14.980
 2705DOPG   PO454314   6.660  26.670  15.190
 2705DOPG   GL154315   7.130  26.590  15.060
 2705DOPG   GL254316   7.270  26.850  15.170
 2705DOPG   C1A54317   7.390  26.330  14.690
 2705DOPG   D2A54318   7.770  26.220  14.680
 2705DOPG   C3A54319   8.070  26.500  14.730
 2705DOPG   C4A54320   8.470  26.720  14.690
 2705DOPG   C1B54321   7.650  26.610  15.020
 2705DOPG   D2B54322   7.850  26.280  15.170
 2705DOPG   C3B54323   8.060  26.020  14.970
 2705DOPG   C4B54324   8.320  25.690  14.790
 2706DOPG   GL054325  12.900  26.830  16.580
 2706DOPG   PO454326  12.550  26.710  16.320
 2706DOPG   GL154327  12.400  26.990  16.570
 2706DOPG   GL254328  12.040  26.940  16.610
 2706DOPG   C1A54329  12.380  27.360  16.890
 2706DOPG   D2A54330  12.110  27.670  16.810
 2706DOPG   C3A54331  11.940  28.050  17.010
 2706DOPG   C4A54332  12.160  28.460  17.030
 2706DOPG   C1B54333  12.020  26.760  16.900
 2706DOPG   D2B54334  12.110  26.600  17.340
 2706DOPG   C3B54335  12.000  26.600  17.610
 2706DOPG   C4B54336  11.660  26.870  17.800
 2707DOPG   GL054337  10.030  16.290  11.170
 2707DOPG   PO454338  10.290  16.370  10.800
 2707DOPG   GL154339  10.450  16.540  10.370
 2707DOPG   GL254340  10.760  16.600  10.170
 2707DOPG   C1A54341  10.390  16.930   9.960
 2707DOPG   D2A54342  10.560  17.280   9.690
 2707DOPG   C3A54343  10.600  17.270   9.230
 2707DOPG   C4A54344  10.920  17.490   8.970
 2707DOPG   C1B54345  11.200  16.620  10.160
 2707DOPG   D2B54346  11.480  16.940  10.340
 2707DOPG   C3B54347  11.940  16.920  10.350
 2707DOPG   C4B54348  12.210  17.190  10.220
 2708DOPG   GL054349  21.090  22.200  14.530
 2708DOPG   PO454350  21.140  21.800  14.810
 2708DOPG   GL154351  21.410  21.770  15.080
 2708DOPG   GL254352  21.320  21.960  15.380
 2708DOPG   C1A54353  21.830  21.530  15.050
 2708DOPG   D2A54354  22.190  21.540  15.010
 2708DOPG   C3A54355  22.470  21.610  15.320
 2708DOPG   C4A54356  22.490  21.780  15.700
 2708DOPG   C1B54357  21.710  21.720  15.480
 2708DOPG   D2B54358  22.010  21.600  15.540
 2708DOPG   C3B54359  22.190  21.180  15.480
 2708DOPG   C4B54360  22.340  20.860  15.710
 2709DOPG   GL054361  23.730  19.960  23.670
 2709DOPG   PO454362  23.910  19.560  23.320
 2709DOPG   GL154363  23.810  19.660  22.950
 2709DOPG   GL254364  23.840  19.980  23.000
 2709DOPG   C1A54365  23.470  19.520  22.760
 2709DOPG   D2A54366  23.050  19.350  22.490
 2709DOPG   C3A54367  23.130  19.230  22.060
 2709DOPG   C4A54368  23.070  19.450  21.630
 2709DOPG   C1B54369  23.620  19.970  22.630
 2709DOPG   D2B54370  23.370  19.920  22.280
 2709DOPG   C3B54371  23.400  20.180  21.920
 2709DOPG   C4B54372  23.280  20.370  21.570
 2710DOPG   GL054373  20.170  18.980  24.190
 2710DOPG   PO454374  20.430  18.740  23.860
 2710DOPG   GL154375  20.800  18.980  23.680
 2710DOPG   GL254376  20.900  18.750  23.410
 2710DOPG   C1A54377  20.960  19.300  23.420
 2710DOPG   D2A54378  21.130  19.780  23.330
 2710DOPG   C3A54379  20.990  20.030  23.160
 2710DOPG   C4A54380  20.780  20.020  22.850
 2710DOPG   C1B54381  20.850  18.970  23.040
 2710DOPG   D2B54382  20.940  19.010  22.590
 2710DOPG   C3B54383  20.660  19.200  22.390
 2710DOPG   C4B54384  20.400  19.500  22.420
 2711DOPG   GL054385  13.310  17.690  12.070
 2711DOPG   PO454386  13.650  17.540  11.750
 2711DOPG   GL154387  13.590  17.390  11.320
 2711DOPG   GL254388  13.690  17.650  11.140
 2711DOPG   C1A54389  13.740  17.090  11.040
 2711DOPG   D2A54390  13.590  16.880  10.620
 2711DOPG   C3A54391  13.690  16.550  10.810
 2711DOPG   C4A54392  13.990  16.260  11.010
 2711DOPG   C1B54393  14.130  17.500  11.100
 2711DOPG   D2B54394  14.360  17.230  11.000
 2711DOPG   C3B54395  14.330  17.210  10.550
 2711DOPG   C4B54396  14.380  17.220  10.070
 2712DOPG   GL054397  18.210  21.520   9.970
 2712DOPG   PO454398  18.580  21.380   9.750
 2712DOPG   GL154399  18.560  20.920   9.590
 2712DOPG   GL254400  18.310  20.760   9.410
 2712DOPG   C1A54401  18.770  20.830   9.160
 2712DOPG   D2A54402  18.640  20.730   8.730
 2712DOPG   C3A54403  18.920  20.740   8.260
 2712DOPG   C4A54404  19.190  20.530   7.890
 2712DOPG   C1B54405  18.250  20.900   9.060
 2712DOPG   D2B54406  18.200  21.030   8.690
 2712DOPG   C3B54407  18.090  20.810   8.330
 2712DOPG   C4B54408  17.960  21.000   7.950
 2713DOPG   GL054409  29.770  22.340  17.680
 2713DOPG   PO454410  30.010  22.640  17.490
 2713DOPG   GL154411  29.820  22.510  17.120
 2713DOPG   GL254412  29.680  22.240  17.200
 2713DOPG   C1A54413  29.430  22.560  16.880
 2713DOPG   D2A54414  29.050  22.570  16.950
 2713DOPG   C3A54415  28.610  22.580  16.740
 2713DOPG   C4A54416  28.160  22.840  16.600
 2713DOPG   C1B54417  29.370  22.490  17.390
 2713DOPG   D2B54418  29.140  22.560  17.630
 2713DOPG   C3B54419  28.830  22.360  17.420
 2713DOPG   C4B54420  28.640  22.220  17.150
 2714DOPG   GL054421  16.550  23.520  11.600
 2714DOPG   PO454422  16.460  23.880  11.490
 2714DOPG   GL154423  16.170  24.160  11.390
 2714DOPG   GL254424  15.830  23.940  11.270
 2714DOPG   C1A54425  15.850  24.470  11.280
 2714DOPG   D2A54426  15.540  24.750  11.380
 2714DOPG   C3A54427  15.510  25.190  11.460
 2714DOPG   C4A54428  15.230  25.480  11.540
 2714DOPG   C1B54429  15.600  24.210  11.620
 2714DOPG   D2B54430  15.550  24.610  11.840
 2714DOPG   C3B54431  15.880  25.000  11.720
 2714DOPG   C4B54432  16.060  25.240  12.100
 2715DOPG   GL054433  16.100  14.630  11.000
 2715DOPG   PO454434  15.750  14.550  10.940
 2715DOPG   GL154435  15.370  14.670  11.120
 2715DOPG   GL254436  15.570  14.790  11.390
 2715DOPG   C1A54437  15.090  15.110  11.180
 2715DOPG   D2A54438  15.010  15.420  11.480
 2715DOPG   C3A54439  15.010  15.790  11.690
 2715DOPG   C4A54440  14.710  15.750  12.060
 2715DOPG   C1B54441  15.620  14.810  11.740
 2715DOPG   D2B54442  15.620  15.240  12.010
 2715DOPG   C3B54443  15.870  15.500  11.770
 2715DOPG   C4B54444  16.170  15.730  11.920
 2716DOPG   GL054445  22.230  16.590  22.460
 2716DOPG   PO454446  22.260  16.240  22.810
 2716DOPG   GL154447  22.040  16.170  22.440
 2716DOPG   GL254448  21.710  16.400  22.590
 2716DOPG   C1A54449  21.900  16.060  22.060
 2716DOPG   D2A54450  21.990  15.810  21.720
 2716DOPG   C3A54451  21.690  15.640  21.330
 2716DOPG   C4A54452  21.390  15.800  21.130
 2716DOPG   C1B54453  21.680  16.520  22.180
 2716DOPG   D2B54454  21.590  16.450  21.760
 2716DOPG   C3B54455  21.200  16.720  21.540
 2716DOPG   C4B54456  20.870  16.820  21.550
 2717DOPG   GL054457  22.590  33.890  11.040
 2717DOPG   PO454458  22.880  33.530  11.140
 2717DOPG   GL154459  22.770  33.240  11.270
 2717DOPG   GL254460  23.010  33.200  11.490
 2717DOPG   C1A54461  22.820  32.760  11.340
 2717DOPG   D2A54462  22.580  32.330  11.180
 2717DOPG   C3A54463  22.410  32.040  11.460
 2717DOPG   C4A54464  22.370  31.800  11.810
 2717DOPG   C1B54465  22.960  32.920  11.810
 2717DOPG   D2B54466  23.020  32.510  12.120
 2717DOPG   C3B54467  22.900  32.510  12.510
 2717DOPG   C4B54468  22.780  32.810  12.770
 2718DOPG   GL054469  13.930  32.050  16.130
 2718DOPG   PO454470  14.020  32.420  16.230
 2718DOPG   GL154471  14.290  32.230  16.540
 2718DOPG   GL254472  14.380  31.970  16.290
 2718DOPG   C1A54473  14.420  31.800  16.760
 2718DOPG   D2A54474  14.230  31.390  16.620
 2718DOPG   C3A54475  13.820  31.540  16.610
 2718DOPG   C4A54476  13.350  31.340  16.400
 2718DOPG   C1B54477  14.390  31.690  16.160
 2718DOPG   D2B54478  14.000  31.590  16.150
 2718DOPG   C3B54479  13.850  31.220  16.130
 2718DOPG   C4B54480  13.720  30.970  16.480
 2719DOPG   GL054481  13.990  15.940   7.180
 2719DOPG   PO454482  13.770  15.690   7.290
 2719DOPG   GL154483  13.390  15.560   7.350
 2719DOPG   GL254484  13.290  15.380   7.390
 2719DOPG   C1A54485  13.080  15.480   7.010
 2719DOPG   D2A54486  12.880  15.610   6.630
 2719DOPG   C3A54487  12.550  15.910   6.740
 2719DOPG   C4A54488  12.330  15.930   7.160
 2719DOPG   C1B54489  12.930  15.180   7.450
 2719DOPG   D2B54490  12.480  15.090   7.550
 2719DOPG   C3B54491  12.300  15.180   7.940
 2719DOPG   C4B54492  11.910  15.170   8.030
 2720DOPG   GL054493   5.290  25.070  12.610
 2720DOPG   PO454494   5.080  25.310  12.180
 2720DOPG   GL154495   5.580  25.250  12.170
 2720DOPG   GL254496   5.750  25.470  12.420
 2720DOPG   C1A54497   5.750  24.880  12.380
 2720DOPG   D2A54498   6.190  24.760  12.210
 2720DOPG   C3A54499   6.380  24.370  12.380
 2720DOPG   C4A54500   6.220  24.130  12.780
 2720DOPG   C1B54501   6.050  25.260  12.460
 2720DOPG   D2B54502   6.280  25.040  12.770
 2720DOPG   C3B54503   6.190  24.860  13.150
 2720DOPG   C4B54504   5.830  25.090  13.410
 2721DOPG   GL054505  18.130  19.450  10.180
 2721DOPG   PO454506  17.950  19.390  10.520
 2721DOPG   GL154507  17.660  19.360  10.260
 2721DOPG   GL254508  17.500  19.540  10.110
 2721DOPG   C1A54509  17.600  19.110   9.880
 2721DOPG   D2A54510  17.420  18.970   9.550
 2721DOPG   C3A54511  17.310  19.190   9.280
 2721DOPG   C4A54512  17.060  19.610   9.210
 2721DOPG   C1B54513  17.360  19.490   9.670
 2721DOPG   D2B54514  17.580  19.600   9.120
 2721DOPG   C3B54515  18.000  19.670   9.110
 2721DOPG   C4B54516  18.170  20.010   8.830
 2722DOPG   GL054517  22.630  17.280  22.470
 2722DOPG   PO454518  22.440  17.200  22.870
 2722DOPG   GL154519  22.220  17.050  22.670
 2722DOPG   GL254520  21.940  17.220  22.740
 2722DOPG   C1A54521  22.270  16.980  22.210
 2722DOPG   D2A54522  22.320  17.220  21.900
 2722DOPG   C3A54523  21.980  17.240  21.620
 2722DOPG   C4A54524  21.820  17.520  21.240
 2722DOPG   C1B54525  21.840  17.680  22.830
 2722DOPG   D2B54526  21.680  18.170  22.810
 2722DOPG   C3B54527  21.650  18.360  22.430
 2722DOPG   C4B54528  21.810  18.500  22.110
 2723DOPG   GL054529  10.340  19.110  16.210
 2723DOPG   PO454530  10.510  19.250  15.860
 2723DOPG   GL154531  10.730  19.040  15.540
 2723DOPG   GL254532  10.960  18.830  15.500
 2723DOPG   C1A54533  10.580  19.030  15.120
 2723DOPG   D2A54534  10.300  18.790  14.910
 2723DOPG   C3A54535  10.190  18.960  14.500
 2723DOPG   C4A54536  10.090  18.810  14.150
 2723DOPG   C1B54537  11.070  19.080  15.090
 2723DOPG   D2B54538  11.240  19.110  14.690
 2723DOPG   C3B54539  11.400  19.250  14.300
 2723DOPG   C4B54540  11.440  19.400  13.850
 2724DOPG   GL054541  14.460  21.680  12.720
 2724DOPG   PO454542  14.610  21.870  12.490
 2724DOPG   GL154543  14.330  22.040  12.230
 2724DOPG   GL254544  14.320  21.880  11.950
 2724DOPG   C1A54545  13.900  22.050  12.210
 2724DOPG   D2A54546  13.530  22.090  12.280
 2724DOPG   C3A54547  13.200  21.860  12.270
 2724DOPG   C4A54548  13.300  21.370  12.170
 2724DOPG   C1B54549  14.040  21.740  11.730
 2724DOPG   D2B54550  13.710  21.750  11.390
 2724DOPG   C3B54551  13.720  21.850  11.050
 2724DOPG   C4B54552  13.540  21.640  10.700
 2725DOPG   GL054553  18.930  22.270  15.420
 2725DOPG   PO454554  18.760  21.950  15.650
 2725DOPG   GL154555  18.930  21.820  16.110
 2725DOPG   GL254556  18.680  21.670  16.350
 2725DOPG   C1A54557  19.100  21.940  16.600
 2725DOPG   D2A54558  19.300  21.700  16.900
 2725DOPG   C3A54559  19.490  21.450  16.830
 2725DOPG   C4A54560  19.970  21.480  16.920
 2725DOPG   C1B54561  18.790  21.650  16.810
 2725DOPG   D2B54562  18.870  21.720  17.240
 2725DOPG   C3B54563  19.230  21.830  17.370
 2725DOPG   C4B54564  19.580  21.890  17.660
 2726DOPG   GL054565   9.250  29.960  13.100
 2726DOPG   PO454566   9.740  30.180  13.170
 2726DOPG   GL154567  10.070  29.860  13.090
 2726DOPG   GL254568  10.080  29.560  12.810
 2726DOPG   C1A54569  10.430  29.820  13.240
 2726DOPG   D2A54570  10.860  29.630  13.300
 2726DOPG   C3A54571  11.180  29.830  13.150
 2726DOPG   C4A54572  11.470  30.130  13.100
 2726DOPG   C1B54573  10.560  29.510  12.800
 2726DOPG   D2B54574  10.970  29.440  12.840
 2726DOPG   C3B54575  11.260  29.140  12.790
 2726DOPG   C4B54576  11.650  29.080  12.600
 2727DOPG   GL054577  18.000  17.830  12.870
 2727DOPG   PO454578  18.400  18.020  12.950
 2727DOPG   GL154579  18.480  17.590  12.870
 2727DOPG   GL254580  18.280  17.440  13.080
 2727DOPG   C1A54581  18.870  17.350  12.730
 2727DOPG   D2A54582  19.000  16.980  12.680
 2727DOPG   C3A54583  19.060  16.700  12.380
 2727DOPG   C4A54584  19.440  16.820  12.220
 2727DOPG   C1B54585  18.450  17.020  12.870
 2727DOPG   D2B54586  18.610  16.600  12.930
 2727DOPG   C3B54587  18.850  16.320  12.640
 2727DOPG   C4B54588  19.130  16.020  12.680
 2728DOPG   GL054589  25.460  24.420  13.980
 2728DOPG   PO454590  25.270  24.760  13.850
 2728DOPG   GL154591  25.020  25.050  13.940
 2728DOPG   GL254592  24.920  25.350  13.670
 2728DOPG   C1A54593  24.640  25.010  14.240
 2728DOPG   D2A54594  24.170  25.160  14.330
 2728DOPG   C3A54595  23.880  24.980  14.340
 2728DOPG   C4A54596  23.650  24.880  14.710
 2728DOPG   C1B54597  24.460  25.160  13.690
 2728DOPG   D2B54598  24.100  24.970  13.860
 2728DOPG   C3B54599  23.630  24.920  13.970
 2728DOPG   C4B54600  23.310  25.150  13.900
 2729DOPG   GL054601  13.090  18.500   6.730
 2729DOPG   PO454602  12.750  18.270   6.690
 2729DOPG   GL154603  12.360  18.010   6.480
 2729DOPG   GL254604  12.120  17.920   6.640
 2729DOPG   C1A54605  12.300  17.640   6.230
 2729DOPG   D2A54606  12.230  17.640   5.770
 2729DOPG   C3A54607  11.860  17.750   5.540
 2729DOPG   C4A54608  11.410  17.810   5.740
 2729DOPG   C1B54609  11.800  17.670   6.630
 2729DOPG   D2B54610  11.330  17.680   6.750
 2729DOPG   C3B54611  11.310  17.370   7.150
 2729DOPG   C4B54612  11.060  16.930   7.240
 2730DOPG   GL054613  17.900  33.910  15.710
 2730DOPG   PO454614  18.410  33.950  15.620
 2730DOPG   GL154615  18.310  33.520  15.520
 2730DOPG   GL254616  18.420  33.430  15.810
 2730DOPG   C1A54617  18.250  33.060  15.420
 2730DOPG   D2A54618  18.010  32.750  15.360
 2730DOPG   C3A54619  17.770  32.620  15.080
 2730DOPG   C4A54620  17.380  32.780  15.000
 2730DOPG   C1B54621  18.230  33.020  16.000
 2730DOPG   D2B54622  17.950  32.840  15.820
 2730DOPG   C3B54623  17.960  32.410  15.860
 2730DOPG   C4B54624  18.040  32.210  15.470
 2731DOPG   GL054625   6.050  18.180  15.340
 2731DOPG   PO454626   5.960  17.920  14.990
 2731DOPG   GL154627   6.350  17.790  15.170
 2731DOPG   GL254628   6.670  17.550  14.930
 2731DOPG   C1A54629   6.720  18.020  15.230
 2731DOPG   D2A54630   7.020  18.330  15.100
 2731DOPG   C3A54631   7.370  18.580  15.390
 2731DOPG   C4A54632   7.440  19.010  15.640
 2731DOPG   C1B54633   7.100  17.600  14.960
 2731DOPG   D2B54634   7.330  17.270  14.900
 2731DOPG   C3B54635   7.710  17.240  15.060
 2731DOPG   C4B54636   7.970  17.480  15.090
 2732DOPG   GL054637  25.120  31.170   8.390
 2732DOPG   PO454638  25.260  30.950   8.070
 2732DOPG   GL154639  24.880  30.720   8.330
 2732DOPG   GL254640  24.590  31.020   8.360
 2732DOPG   C1A54641  24.600  30.440   8.560
 2732DOPG   D2A54642  24.250  30.130   8.710
 2732DOPG   C3A54643  23.790  30.140   8.930
 2732DOPG   C4A54644  23.630  29.840   9.190
 2732DOPG   C1B54645  24.320  30.850   8.570
 2732DOPG   D2B54646  24.050  30.610   8.810
 2732DOPG   C3B54647  23.950  30.580   9.240
 2732DOPG   C4B54648  23.570  30.380   9.370
 2733DOPG   GL054649   9.110  13.620  12.400
 2733DOPG   PO454650   9.350  13.270  12.520
 2733DOPG   GL154651   9.610  13.280  12.830
 2733DOPG   GL254652   9.820  13.260  12.630
 2733DOPG   C1A54653   9.770  13.460  13.240
 2733DOPG   D2A54654   9.520  13.730  13.540
 2733DOPG   C3A54655   9.540  13.890  14.040
 2733DOPG   C4A54656   9.820  14.110  14.300
 2733DOPG   C1B54657  10.250  13.260  12.460
 2733DOPG   D2B54658  10.650  13.160  12.300
 2733DOPG   C3B54659  10.990  13.240  12.090
 2733DOPG   C4B54660  11.300  13.400  12.110
 2734DOPG   GL054661  15.610  18.330  12.460
 2734DOPG   PO454662  15.780  17.960  12.670
 2734DOPG   GL154663  15.710  17.530  12.690
 2734DOPG   GL254664  15.920  17.370  12.680
 2734DOPG   C1A54665  15.550  17.080  12.690
 2734DOPG   D2A54666  15.400  16.740  12.560
 2734DOPG   C3A54667  15.130  16.340  12.590
 2734DOPG   C4A54668  14.800  16.050  12.390
 2734DOPG   C1B54669  16.070  16.950  12.630
 2734DOPG   D2B54670  15.880  16.720  12.340
 2734DOPG   C3B54671  15.530  16.230  12.320
 2734DOPG   C4B54672  15.240  15.790  12.310
 2735DOPG   GL054673   9.710  14.390   9.190
 2735DOPG   PO454674   9.900  14.070   9.500
 2735DOPG   GL154675  10.390  14.170   9.600
 2735DOPG   GL254676  10.620  14.250   9.300
 2735DOPG   C1A54677  10.830  14.050   9.690
 2735DOPG   D2A54678  11.160  14.000   9.990
 2735DOPG   C3A54679  11.540  14.280  10.040
 2735DOPG   C4A54680  12.000  14.170  10.120
 2735DOPG   C1B54681  10.930  14.670   9.160
 2735DOPG   D2B54682  10.880  15.050   8.940
 2735DOPG   C3B54683  11.160  15.420   8.900
 2735DOPG   C4B54684  11.650  15.470   8.760
 2736DOPG   GL054685  14.410  18.700   1.020
 2736DOPG   PO454686  14.460  18.190   0.870
 2736DOPG   GL154687  14.290  18.300   1.260
 2736DOPG   GL254688  13.880  18.410   1.350
 2736DOPG   C1A54689  14.300  18.270   1.720
 2736DOPG   D2A54690  14.250  17.930   2.020
 2736DOPG   C3A54691  14.390  17.940   2.460
 2736DOPG   C4A54692  14.530  17.920   2.900
 2736DOPG   C1B54693  14.120  18.780   1.520
 2736DOPG   D2B54694  14.050  19.030   1.940
 2736DOPG   C3B54695  14.350  18.910   2.210
 2736DOPG   C4B54696  14.560  18.770   2.540
 2737DOPG   GL054697  10.820  16.530  11.750
 2737DOPG   PO454698  11.060  16.860  11.600
 2737DOPG   GL154699  11.180  17.200  11.250
 2737DOPG   GL254700  10.860  17.050  11.060
 2737DOPG   C1A54701  11.290  17.430  10.930
 2737DOPG   D2A54702  11.260  17.340  10.500
 2737DOPG   C3A54703  11.230  17.470  10.010
 2737DOPG   C4A54704  11.160  17.750   9.620
 2737DOPG   C1B54705  10.800  17.450  10.810
 2737DOPG   D2B54706  10.950  17.740  10.490
 2737DOPG   C3B54707  10.670  18.070  10.370
 2737DOPG   C4B54708  10.370  18.210  10.540
 2738DOPG   GL054709   6.900  22.670   7.430
 2738DOPG   PO454710   7.080  22.950   7.240
 2738DOPG   GL154711   7.330  22.840   7.680
 2738DOPG   GL254712   7.390  22.980   7.950
 2738DOPG   C1A54713   7.640  22.570   7.890
 2738DOPG   D2A54714   7.870  22.110   8.110
 2738DOPG   C3A54715   7.560  21.900   8.330
 2738DOPG   C4A54716   7.090  21.990   8.490
 2738DOPG   C1B54717   7.520  22.960   8.430
 2738DOPG   D2B54718   7.700  23.070   8.880
 2738DOPG   C3B54719   7.520  22.990   9.240
 2738DOPG   C4B54720   7.590  23.220   9.690
 2739DOPG   GL054721  10.760  22.200   8.890
 2739DOPG   PO454722  10.410  22.450   8.950
 2739DOPG   GL154723  10.050  22.400   8.730
 2739DOPG   GL254724   9.950  22.210   8.400
 2739DOPG   C1A54725   9.860  22.780   8.620
 2739DOPG   D2A54726   9.740  23.010   8.360
 2739DOPG   C3A54727   9.380  22.900   8.070
 2739DOPG   C4A54728   9.060  23.140   7.890
 2739DOPG   C1B54729   9.630  22.450   8.190
 2739DOPG   D2B54730   9.410  22.600   7.730
 2739DOPG   C3B54731   9.010  22.810   7.490
 2739DOPG   C4B54732   8.790  22.650   7.080
 2740DOPG   GL054733   9.920  15.530  12.520
 2740DOPG   PO454734   9.980  15.330  12.820
 2740DOPG   GL154735  10.320  15.040  12.850
 2740DOPG   GL254736  10.360  15.090  13.170
 2740DOPG   C1A54737  10.800  14.890  12.950
 2740DOPG   D2A54738  11.260  14.740  13.020
 2740DOPG   C3A54739  11.420  14.640  13.340
 2740DOPG   C4A54740  11.700  14.840  13.720
 2740DOPG   C1B54741  10.780  15.280  13.370
 2740DOPG   D2B54742  11.320  15.120  13.310
 2740DOPG   C3B54743  11.800  15.160  13.260
 2740DOPG   C4B54744  12.020  14.910  13.010
 2741DOPG   GL054745  28.920  18.800  16.940
 2741DOPG   PO454746  28.790  18.520  17.170
 2741DOPG   GL154747  28.450  18.760  17.090
 2741DOPG   GL254748  28.430  18.710  16.840
 2741DOPG   C1A54749  28.200  19.160  17.110
 2741DOPG   D2A54750  27.720  19.210  17.160
 2741DOPG   C3A54751  27.360  19.300  17.030
 2741DOPG   C4A54752  26.930  19.180  17.180
 2741DOPG   C1B54753  28.160  18.900  16.500
 2741DOPG   D2B54754  27.790  18.980  16.230
 2741DOPG   C3B54755  27.460  19.010  16.450
 2741DOPG   C4B54756  27.130  19.310  16.540
 2742DOPG   GL054757  18.420  19.280  15.670
 2742DOPG   PO454758  18.310  18.990  15.400
 2742DOPG   GL154759  18.320  18.630  15.450
 2742DOPG   GL254760  18.650  18.700  15.610
 2742DOPG   C1A54761  18.430  18.220  15.590
 2742DOPG   D2A54762  18.520  17.820  15.660
 2742DOPG   C3A54763  18.210  17.680  15.420
 2742DOPG   C4A54764  17.990  17.790  15.060
 2742DOPG   C1B54765  18.540  18.620  15.970
 2742DOPG   D2B54766  18.540  18.250  16.180
 2742DOPG   C3B54767  18.610  18.170  16.650
 2742DOPG   C4B54768  18.450  18.360  17.110
 2743DOPG   GL054769  14.200  29.520  20.680
 2743DOPG   PO454770  14.310  29.880  20.430
 2743DOPG   GL154771  14.560  29.570  20.340
 2743DOPG   GL254772  14.780  29.470  20.700
 2743DOPG   C1A54773  14.630  29.420  19.920
 2743DOPG   D2A54774  14.680  29.260  19.580
 2743DOPG   C3A54775  14.540  28.870  19.440
 2743DOPG   C4A54776  14.280  28.670  19.170
 2743DOPG   C1B54777  15.000  29.140  20.410
 2743DOPG   D2B54778  14.990  29.050  19.930
 2743DOPG   C3B54779  15.370  28.850  19.720
 2743DOPG   C4B54780  15.870  29.030  19.590
 2744DOPG   GL054781  18.390  25.000  12.970
 2744DOPG   PO454782  18.440  25.390  12.540
 2744DOPG   GL154783  18.410  25.850  12.440
 2744DOPG   GL254784  18.620  25.850  12.250
 2744DOPG   C1A54785  18.320  26.230  12.290
 2744DOPG   D2A54786  18.550  26.560  12.370
 2744DOPG   C3A54787  18.720  26.780  12.160
 2744DOPG   C4A54788  18.580  26.770  11.750
 2744DOPG   C1B54789  18.710  26.280  11.990
 2744DOPG   D2B54790  18.900  26.430  11.550
 2744DOPG   C3B54791  18.920  26.700  11.230
 2744DOPG   C4B54792  18.700  26.720  10.870
 2745DOPG   GL054793  11.870  16.500  23.280
 2745DOPG   PO454794  11.630  16.810  22.990
 2745DOPG   GL154795  11.520  17.110  22.770
 2745DOPG   GL254796  11.180  17.260  22.820
 2745DOPG   C1A54797  11.520  17.290  22.360
 2745DOPG   D2A54798  11.530  17.600  22.120
 2745DOPG   C3A54799  11.330  17.630  21.800
 2745DOPG   C4A54800  11.000  17.860  21.660
 2745DOPG   C1B54801  11.280  17.610  22.620
 2745DOPG   D2B54802  11.560  17.930  22.650
 2745DOPG   C3B54803  11.820  18.000  22.250
 2745DOPG   C4B54804  11.920  18.270  21.960
 2746DOPG   GL054805  19.220  24.060  11.110
 2746DOPG   PO454806  19.340  23.620  11.270
 2746DOPG   GL154807  19.520  23.790  10.810
 2746DOPG   GL254808  19.890  23.930  10.810
 2746DOPG   C1A54809  19.550  24.210  10.590
 2746DOPG   D2A54810  19.700  24.620  10.530
 2746DOPG   C3A54811  19.850  25.010  10.670
 2746DOPG   C4A54812  20.100  25.220  10.950
 2746DOPG   C1B54813  20.050  24.260  10.670
 2746DOPG   D2B54814  20.380  24.420  10.490
 2746DOPG   C3B54815  20.640  24.330  10.140
 2746DOPG   C4B54816  20.930  24.470  10.010
 2747DOPG   GL054817  15.950  22.960  11.200
 2747DOPG   PO454818  15.890  22.730  10.800
 2747DOPG   GL154819  15.600  22.970  10.560
 2747DOPG   GL254820  15.760  23.110  10.300
 2747DOPG   C1A54821  15.200  23.030  10.310
 2747DOPG   D2A54822  14.980  23.080   9.990
 2747DOPG   C3A54823  14.870  23.400  10.060
 2747DOPG   C4A54824  15.090  23.520  10.530
 2747DOPG   C1B54825  15.520  23.120   9.860
 2747DOPG   D2B54826  15.450  23.130   9.400
 2747DOPG   C3B54827  15.860  22.890   9.250
 2747DOPG   C4B54828  16.330  23.040   9.060
 2748DOPG   GL054829  19.800  21.220  11.410
 2748DOPG   PO454830  19.740  20.760  11.510
 2748DOPG   GL154831  20.140  20.500  11.240
 2748DOPG   GL254832  20.230  20.580  11.640
 2748DOPG   C1A54833  20.410  20.210  11.140
 2748DOPG   D2A54834  20.910  20.100  11.230
 2748DOPG   C3A54835  21.280  20.070  10.950
 2748DOPG   C4A54836  21.620  20.240  10.720
 2748DOPG   C1B54837  20.680  20.470  11.460
 2748DOPG   D2B54838  21.120  20.570  11.410
 2748DOPG   C3B54839  21.540  20.420  11.230
 2748DOPG   C4B54840  21.870  20.090  11.290
 2749DOPG   GL054841  12.930  15.240  18.370
 2749DOPG   PO454842  12.500  15.120  18.440
 2749DOPG   GL154843  12.500  14.870  18.760
 2749DOPG   GL254844  12.290  14.690  18.820
 2749DOPG   C1A54845  12.760  14.480  18.970
 2749DOPG   D2A54846  12.780  14.050  19.010
 2749DOPG   C3A54847  12.910  13.890  19.460
 2749DOPG   C4A54848  12.990  13.570  19.570
 2749DOPG   C1B54849  12.290  14.570  19.240
 2749DOPG   D2B54850  12.130  14.390  19.550
 2749DOPG   C3B54851  11.950  14.140  19.390
 2749DOPG   C4B54852  11.630  13.850  19.290
 2750DOPG   GL054853  12.470  10.880  20.110
 2750DOPG   PO454854  12.800  10.940  20.420
 2750DOPG   GL154855  12.930  11.120  20.100
 2750DOPG   GL254856  13.060  11.430  20.260
 2750DOPG   C1A54857  13.050  11.050  19.710
 2750DOPG   D2A54858  13.060  11.150  19.330
 2750DOPG   C3A54859  12.850  11.540  19.230
 2750DOPG   C4A54860  12.480  11.540  19.560
 2750DOPG   C1B54861  12.910  11.590  19.880
 2750DOPG   D2B54862  13.040  11.860  19.520
 2750DOPG   C3B54863  13.240  12.280  19.420
 2750DOPG   C4B54864  13.520  12.660  19.560
 2751DOPG   GL054865   5.960  27.100  12.690
 2751DOPG   PO454866   6.030  26.930  12.310
 2751DOPG   GL154867   6.180  26.660  12.590
 2751DOPG   GL254868   6.550  26.650  12.560
 2751DOPG   C1A54869   6.340  26.290  12.810
 2751DOPG   D2A54870   6.610  25.900  12.930
 2751DOPG   C3A54871   6.470  25.720  13.370
 2751DOPG   C4A54872   6.440  25.770  13.720
 2751DOPG   C1B54873   6.800  26.400  12.970
 2751DOPG   D2B54874   7.080  26.040  13.250
 2751DOPG   C3B54875   7.370  25.910  12.950
 2751DOPG   C4B54876   7.790  26.200  12.840
 2752DOPG   GL054877  20.550  28.360  22.760
 2752DOPG   PO454878  20.730  27.950  22.750
 2752DOPG   GL154879  20.590  28.040  22.350
 2752DOPG   GL254880  20.920  27.860  22.190
 2752DOPG   C1A54881  20.390  27.990  22.040
 2752DOPG   D2A54882  20.400  27.600  21.700
 2752DOPG   C3A54883  20.780  27.340  21.830
 2752DOPG   C4A54884  20.920  26.890  21.760
 2752DOPG   C1B54885  20.790  28.080  21.760
 2752DOPG   D2B54886  20.440  28.180  21.570
 2752DOPG   C3B54887  20.460  27.890  21.310
 2752DOPG   C4B54888  20.430  27.460  21.230
 2753DOPG   GL054889  22.270  21.750   1.830
 2753DOPG   PO454890  22.660  21.840   1.760
 2753DOPG   GL154891  22.540  21.900   2.190
 2753DOPG   GL254892  22.440  21.770   2.310
 2753DOPG   C1A54893  22.590  22.260   2.510
 2753DOPG   D2A54894  22.930  22.530   2.730
 2753DOPG   C3A54895  22.790  22.820   2.940
 2753DOPG   C4A54896  22.530  22.860   3.330
 2753DOPG   C1B54897  22.200  21.720   2.640
 2753DOPG   D2B54898  22.090  21.990   3.010
 2753DOPG   C3B54899  21.840  21.910   3.360
 2753DOPG   C4B54900  21.780  22.200   3.820
 2754DOPG   GL054901  18.820  19.620  15.400
 2754DOPG   PO454902  18.690  19.650  15.810
 2754DOPG   GL154903  18.910  19.430  16.050
 2754DOPG   GL254904  18.810  19.050  15.950
 2754DOPG   C1A54905  19.060  19.220  16.440
 2754DOPG   D2A54906  19.200  18.820  16.670
 2754DOPG   C3A54907  19.620  18.720  16.510
 2754DOPG   C4A54908  19.950  18.800  16.270
 2754DOPG   C1B54909  18.450  19.070  16.230
 2754DOPG   D2B54910  18.290  19.030  16.670
 2754DOPG   C3B54911  17.850  19.000  16.800
 2754DOPG   C4B54912  17.790  19.120  17.170
 2755DOPG   GL054913   7.390  18.240  11.720
 2755DOPG   PO454914   7.410  17.940  11.990
 2755DOPG   GL154915   7.440  18.250  12.240
 2755DOPG   GL254916   7.130  18.320  12.460
 2755DOPG   C1A54917   7.340  18.650  12.190
 2755DOPG   D2A54918   7.610  19.120  11.970
 2755DOPG   C3A54919   8.060  19.310  11.830
 2755DOPG   C4A54920   8.060  19.670  11.500
 2755DOPG   C1B54921   7.510  18.520  12.660
 2755DOPG   D2B54922   7.890  18.690  12.400
 2755DOPG   C3B54923   7.940  18.760  11.930
 2755DOPG   C4B54924   7.640  18.730  11.490
 2756DOPG   GL054925  14.970  29.390  22.060
 2756DOPG   PO454926  14.850  29.000  21.850
 2756DOPG   GL154927  15.000  28.950  21.430
 2756DOPG   GL254928  14.870  29.180  21.200
 2756DOPG   C1A54929  15.420  28.920  21.110
 2756DOPG   D2A54930  15.790  28.900  21.290
 2756DOPG   C3A54931  16.100  28.730  21.070
 2756DOPG   C4A54932  16.310  28.750  20.620
 2756DOPG   C1B54933  14.920  28.930  20.870
 2756DOPG   D2B54934  14.840  28.650  20.450
 2756DOPG   C3B54935  14.390  28.500  20.340
 2756DOPG   C4B54936  13.940  28.580  20.400
 2757DOPG   GL054937  19.470  20.010  11.490
 2757DOPG   PO454938  19.880  20.230  11.560
 2757DOPG   GL154939  19.930  20.000  11.250
 2757DOPG   GL254940  19.970  20.110  10.980
 2757DOPG   C1A54941  20.330  19.700  10.980
 2757DOPG   D2A54942  20.320  19.520  10.670
 2757DOPG   C3A54943  20.710  19.410  10.340
 2757DOPG   C4A54944  21.020  19.150  10.440
 2757DOPG   C1B54945  20.250  20.080  10.660
 2757DOPG   D2B54946  20.380  19.840  10.310
 2757DOPG   C3B54947  20.800  20.000  10.180
 2757DOPG   C4B54948  21.230  20.000  10.390
 2758DOPG   GL054949  22.670  19.900   8.550
 2758DOPG   PO454950  22.490  19.910   8.960
 2758DOPG   GL154951  22.180  20.210   9.150
 2758DOPG   GL254952  22.430  20.370   9.310
 2758DOPG   C1A54953  21.740  20.390   9.220
 2758DOPG   D2A54954  21.440  20.660   9.430
 2758DOPG   C3A54955  21.140  20.980   9.410
 2758DOPG   C4A54956  20.750  21.180   9.330
 2758DOPG   C1B54957  22.590  20.750   9.360
 2758DOPG   D2B54958  22.840  21.110   9.510
 2758DOPG   C3B54959  22.610  21.530   9.460
 2758DOPG   C4B54960  22.350  21.870   9.120
 2759DOPG   GL054961  16.620  18.340  14.610
 2759DOPG   PO454962  16.690  17.980  14.720
 2759DOPG   GL154963  16.530  18.050  15.090
 2759DOPG   GL254964  16.450  17.700  15.080
 2759DOPG   C1A54965  16.550  17.940  15.580
 2759DOPG   D2A54966  16.370  17.720  15.930
 2759DOPG   C3A54967  16.550  17.310  15.890
 2759DOPG   C4A54968  16.640  16.960  15.610
 2759DOPG   C1B54969  16.030  17.510  15.030
 2759DOPG   D2B54970  15.790  17.150  15.000
 2759DOPG   C3B54971  15.870  16.850  15.260
 2759DOPG   C4B54972  15.950  16.440  15.360
 2760DOPG   GL054973   9.070  16.570  10.010
 2760DOPG   PO454974   8.740  16.860   9.930
 2760DOPG   GL154975   8.990  17.120   9.710
 2760DOPG   GL254976   9.180  17.260   9.850
 2760DOPG   C1A54977   9.100  17.310   9.270
 2760DOPG   D2A54978   9.420  17.590   9.070
 2760DOPG   C3A54979   9.820  17.470   9.120
 2760DOPG   C4A54980  10.050  17.090   9.030
 2760DOPG   C1B54981   9.540  17.360   9.990
 2760DOPG   D2B54982   9.900  17.110   9.890
 2760DOPG   C3B54983  10.060  16.870   9.540
 2760DOPG   C4B54984  10.250  16.410   9.670
 2761DOPG   GL054985  13.360  26.350  12.240
 2761DOPG   PO454986  13.700  26.540  12.320
 2761DOPG   GL154987  13.830  26.080  12.420
 2761DOPG   GL254988  13.670  25.830  12.220
 2761DOPG   C1A54989  14.000  25.780  12.610
 2761DOPG   D2A54990  14.250  25.420  12.920
 2761DOPG   C3A54991  14.200  25.030  12.940
 2761DOPG   C4A54992  14.550  24.690  12.820
 2761DOPG   C1B54993  13.630  25.370  12.010
 2761DOPG   D2B54994  13.730  24.980  12.040
 2761DOPG   C3B54995  13.820  24.760  11.700
 2761DOPG   C4B54996  13.810  24.330  11.640
 2762DOPG   GL054997  27.100  13.480  15.220
 2762DOPG   PO454998  26.770  13.760  15.430
 2762DOPG   GL154999  26.280  13.810  15.350
 2762DOPG   GL255000  25.950  13.680  15.590
 2762DOPG   C1A55001  25.960  14.180  15.400
 2762DOPG   D2A55002  25.980  14.570  15.540
 2762DOPG   C3A55003  25.570  14.740  15.590
 2762DOPG   C4A55004  25.100  14.790  15.590
 2762DOPG   C1B55005  25.560  13.870  15.780
 2762DOPG   D2B55006  25.250  13.960  16.060
 2762DOPG   C3B55007  24.800  14.060  15.870
 2762DOPG   C4B55008  24.440  14.110  15.790
 2763DOPG   GL055009  21.780  26.860  17.160
 2763DOPG   PO455010  21.610  26.640  17.530
 2763DOPG   GL155011  21.170  26.380  17.430
 2763DOPG   GL255012  21.180  26.160  17.650
 2763DOPG   C1A55013  20.920  26.250  17.100
 2763DOPG   D2A55014  20.610  26.250  16.820
 2763DOPG   C3A55015  20.220  25.990  16.980
 2763DOPG   C4A55016  20.380  25.680  16.830
 2763DOPG   C1B55017  21.130  25.790  17.450
 2763DOPG   D2B55018  21.000  25.380  17.170
 2763DOPG   C3B55019  20.750  25.330  16.810
 2763DOPG   C4B55020  20.400  25.350  16.510
 2764DOPG   GL055021  16.960  20.440  19.400
 2764DOPG   PO455022  16.850  20.630  19.080
 2764DOPG   GL155023  16.950  20.500  18.780
 2764DOPG   GL255024  16.980  20.180  18.790
 2764DOPG   C1A55025  17.070  20.490  18.320
 2764DOPG   D2A55026  17.170  20.360  17.990
 2764DOPG   C3A55027  17.370  20.310  17.570
 2764DOPG   C4A55028  17.450  20.390  17.130
 2764DOPG   C1B55029  17.370  20.130  18.550
 2764DOPG   D2B55030  17.600  20.130  18.140
 2764DOPG   C3B55031  18.110  20.170  18.120
 2764DOPG   C4B55032  18.360  20.440  18.250
 2765DOPG   GL055033  18.340  15.370  16.500
 2765DOPG   PO455034  18.680  15.010  16.640
 2765DOPG   GL155035  18.800  15.390  16.400
 2765DOPG   GL255036  18.940  15.720  16.440
 2765DOPG   C1A55037  18.720  15.640  15.930
 2765DOPG   D2A55038  18.480  15.890  15.670
 2765DOPG   C3A55039  18.810  16.290  15.540
 2765DOPG   C4A55040  18.880  16.670  15.650
 2765DOPG   C1B55041  19.280  15.960  16.220
 2765DOPG   D2B55042  19.690  16.080  15.930
 2765DOPG   C3B55043  19.690  16.010  15.510
 2765DOPG   C4B55044  19.530  16.230  15.180
 2766DOPG   GL055045  30.000  26.570  16.290
 2766DOPG   PO455046  30.070  26.370  15.880
 2766DOPG   GL155047  29.610  26.480  15.740
 2766DOPG   GL255048  29.430  26.770  15.740
 2766DOPG   C1A55049  29.220  26.500  15.400
 2766DOPG   D2A55050  29.000  26.400  15.000
 2766DOPG   C3A55051  29.000  26.150  14.690
 2766DOPG   C4A55052  28.640  26.030  14.350
 2766DOPG   C1B55053  29.030  26.960  16.020
 2766DOPG   D2B55054  28.810  27.360  16.220
 2766DOPG   C3B55055  28.580  27.670  16.150
 2766DOPG   C4B55056  28.490  28.080  15.820
 2767DOPG   GL055057  21.700  23.080  19.240
 2767DOPG   PO455058  21.810  23.290  18.880
 2767DOPG   GL155059  21.480  23.200  18.570
 2767DOPG   GL255060  21.690  22.880  18.490
 2767DOPG   C1A55061  21.230  22.900  18.530
 2767DOPG   D2A55062  21.080  22.580  18.190
 2767DOPG   C3A55063  20.700  22.500  17.900
 2767DOPG   C4A55064  20.400  22.300  17.630
 2767DOPG   C1B55065  21.560  22.980  17.990
 2767DOPG   D2B55066  21.110  23.150  17.810
 2767DOPG   C3B55067  20.880  23.390  17.490
 2767DOPG   C4B55068  20.440  23.640  17.440
 2768DOPG   GL055069  25.530  32.880  10.210
 2768DOPG   PO455070  25.120  32.620  10.160
 2768DOPG   GL155071  24.960  32.210  10.020
 2768DOPG   GL255072  24.620  32.170   9.990
 2768DOPG   C1A55073  24.940  31.900   9.720
 2768DOPG   D2A55074  25.010  31.530   9.500
 2768DOPG   C3A55075  25.260  31.230   9.740
 2768DOPG   C4A55076  25.160  30.910  10.010
 2768DOPG   C1B55077  24.610  31.840  10.340
 2768DOPG   D2B55078  24.470  31.390  10.520
 2768DOPG   C3B55079  24.610  31.180  10.710
 2768DOPG   C4B55080  24.880  31.350  11.110
 2769DOPG   GL055081  22.780  18.210   2.730
 2769DOPG   PO455082  23.270  18.140   2.720
 2769DOPG   GL155083  23.120  18.300   3.120
 2769DOPG   GL255084  23.360  18.110   3.210
 2769DOPG   C1A55085  22.760  18.360   3.370
 2769DOPG   D2A55086  22.560  18.400   3.770
 2769DOPG   C3A55087  22.760  18.650   4.080
 2769DOPG   C4A55088  22.860  18.810   4.550
 2769DOPG   C1B55089  23.420  18.210   3.660
 2769DOPG   D2B55090  23.500  18.110   4.040
 2769DOPG   C3B55091  23.810  18.210   4.290
 2769DOPG   C4B55092  24.140  17.990   4.250
 2770DOPG   GL055093  23.740  24.860   8.240
 2770DOPG   PO455094  23.350  24.700   8.430
 2770DOPG   GL155095  23.430  24.610   8.800
 2770DOPG   GL255096  23.500  24.640   9.110
 2770DOPG   C1A55097  22.980  24.580   9.090
 2770DOPG   D2A55098  22.530  24.440   9.110
 2770DOPG   C3A55099  22.130  24.690   9.190
 2770DOPG   C4A55100  21.840  24.930   9.440
 2770DOPG   C1B55101  23.180  24.670   9.540
 2770DOPG   D2B55102  23.090  24.460   9.970
 2770DOPG   C3B55103  22.670  24.310  10.050
 2770DOPG   C4B55104  22.310  24.010  10.110
 2771DOPG   GL055105  14.350  15.790  19.180
 2771DOPG   PO455106  14.660  15.580  18.910
 2771DOPG   GL155107  14.770  15.390  19.220
 2771DOPG   GL255108  14.670  15.560  19.490
 2771DOPG   C1A55109  14.980  14.880  19.360
 2771DOPG   D2A55110  14.860  14.510  19.750
 2771DOPG   C3A55111  14.980  14.550  20.180
 2771DOPG   C4A55112  15.160  14.440  20.560
 2771DOPG   C1B55113  14.870  15.570  19.900
 2771DOPG   D2B55114  14.810  15.250  20.240
 2771DOPG   C3B55115  14.960  15.220  20.630
 2771DOPG   C4B55116  15.250  15.310  20.830
 2772DOPG   GL055117  20.420  30.510  21.650
 2772DOPG   PO455118  20.270  30.200  21.960
 2772DOPG   GL155119  20.280  29.910  21.670
 2772DOPG   GL255120  20.070  29.840  21.520
 2772DOPG   C1A55121  20.380  29.470  21.670
 2772DOPG   D2A55122  20.610  29.160  21.500
 2772DOPG   C3A55123  20.940  29.210  21.160
 2772DOPG   C4A55124  21.020  29.360  20.860
 2772DOPG   C1B55125  19.710  29.960  21.320
 2772DOPG   D2B55126  19.390  29.670  21.110
 2772DOPG   C3B55127  19.520  29.350  20.820
 2772DOPG   C4B55128  19.230  29.260  20.550
 2773DOPG   GL055129  22.190  18.320  18.170
 2773DOPG   PO455130  22.490  18.250  18.360
 2773DOPG   GL155131  22.740  17.860  18.350
 2773DOPG   GL255132  22.950  17.750  18.180
 2773DOPG   C1A55133  22.950  17.610  18.620
 2773DOPG   D2A55134  23.160  17.220  18.730
 2773DOPG   C3A55135  23.540  17.200  18.680
 2773DOPG   C4A55136  23.820  16.980  18.830
 2773DOPG   C1B55137  23.290  17.440  18.270
 2773DOPG   D2B55138  23.730  17.470  18.310
 2773DOPG   C3B55139  23.800  17.070  18.300
 2773DOPG   C4B55140  23.810  16.660  18.310
 2774DOPG   GL055141  29.060  19.650  17.340
 2774DOPG   PO455142  29.220  19.970  17.620
 2774DOPG   GL155143  28.910  20.100  17.400
 2774DOPG   GL255144  28.720  20.300  17.450
 2774DOPG   C1A55145  28.570  19.840  17.130
 2774DOPG   D2A55146  28.250  20.020  16.770
 2774DOPG   C3A55147  28.380  20.310  16.470
 2774DOPG   C4A55148  28.200  20.340  16.150
 2774DOPG   C1B55149  28.460  20.470  17.110
 2774DOPG   D2B55150  28.410  20.930  16.980
 2774DOPG   C3B55151  28.140  20.950  16.670
 2774DOPG   C4B55152  27.680  20.890  16.750
 2775DOPG   GL055153  29.080  25.030  19.650
 2775DOPG   PO455154  28.800  25.040  19.330
 2775DOPG   GL155155  28.400  25.180  19.090
 2775DOPG   GL255156  28.230  25.230  18.820
 2775DOPG   C1A55157  28.040  24.840  19.040
 2775DOPG   D2A55158  27.860  24.570  18.780
 2775DOPG   C3A55159  27.430  24.560  18.830
 2775DOPG   C4A55160  26.950  24.430  18.960
 2775DOPG   C1B55161  27.910  25.170  18.490
 2775DOPG   D2B55162  27.720  25.160  18.250
 2775DOPG   C3B55163  27.360  25.040  18.340
 2775DOPG   C4B55164  27.030  25.340  18.330
 2776DOPG   GL055165  24.720  14.070  19.200
 2776DOPG   PO455166  24.600  13.730  19.370
 2776DOPG   GL155167  24.280  13.850  19.100
 2776DOPG   GL255168  24.190  13.490  18.920
 2776DOPG   C1A55169  24.270  13.990  18.670
 2776DOPG   D2A55170  24.270  14.100  18.320
 2776DOPG   C3A55171  24.200  13.920  17.950
 2776DOPG   C4A55172  24.280  13.910  17.460
 2776DOPG   C1B55173  23.820  13.800  18.920
 2776DOPG   D2B55174  23.930  14.210  18.970
 2776DOPG   C3B55175  23.950  14.510  19.410
 2776DOPG   C4B55176  24.220  14.720  19.580
 2777DOPG   GL055177  16.330  15.830  17.700
 2777DOPG   PO455178  16.770  16.050  17.770
 2777DOPG   GL155179  16.730  16.270  17.360
 2777DOPG   GL255180  16.720  16.710  17.390
 2777DOPG   C1A55181  16.540  16.200  16.950
 2777DOPG   D2A55182  16.470  15.960  16.550
 2777DOPG   C3A55183  16.470  16.170  16.100
 2777DOPG   C4A55184  16.320  16.340  15.740
 2777DOPG   C1B55185  16.910  17.090  17.210
 2777DOPG   D2B55186  17.170  17.420  17.190
 2777DOPG   C3B55187  17.290  17.370  17.570
 2777DOPG   C4B55188  16.900  17.500  17.900
 2778DOPG   GL055189  28.670  21.830   7.400
 2778DOPG   PO455190  28.400  21.760   7.050
 2778DOPG   GL155191  27.900  21.760   7.210
 2778DOPG   GL255192  27.970  22.070   7.210
 2778DOPG   C1A55193  27.570  21.550   7.400
 2778DOPG   D2A55194  27.470  21.580   7.750
 2778DOPG   C3A55195  27.110  21.560   7.570
 2778DOPG   C4A55196  26.660  21.700   7.780
 2778DOPG   C1B55197  27.630  22.060   7.520
 2778DOPG   D2B55198  27.310  22.130   7.750
 2778DOPG   C3B55199  27.070  21.880   8.020
 2778DOPG   C4B55200  26.870  21.530   8.210
 2779DOPG   GL055201  15.210  33.870  10.030
 2779DOPG   PO455202  15.570  33.710   9.680
 2779DOPG   GL155203  15.710  33.270   9.770
 2779DOPG   GL255204  15.450  33.060   9.590
 2779DOPG   C1A55205  15.940  32.870   9.890
 2779DOPG   D2A55206  16.340  32.660   9.990
 2779DOPG   C3A55207  16.450  32.310  10.020
 2779DOPG   C4A55208  16.660  31.790   9.910
 2779DOPG   C1B55209  15.670  32.740   9.430
 2779DOPG   D2B55210  15.530  32.290   9.290
 2779DOPG   C3B55211  15.190  32.030   9.520
 2779DOPG   C4B55212  14.770  31.950   9.630
 2780DOPG   GL055213  14.780  21.470  13.830
 2780DOPG   PO455214  15.070  21.660  14.140
 2780DOPG   GL155215  14.870  22.090  14.130
 2780DOPG   GL255216  14.560  22.210  14.070
 2780DOPG   C1A55217  14.590  22.080  14.550
 2780DOPG   D2A55218  14.250  22.070  14.820
 2780DOPG   C3A55219  14.210  22.330  15.250
 2780DOPG   C4A55220  14.260  22.220  15.690
 2780DOPG   C1B55221  14.140  22.190  14.320
 2780DOPG   D2B55222  13.660  22.160  14.510
 2780DOPG   C3B55223  13.390  22.010  14.310
 2780DOPG   C4B55224  13.370  21.490  14.200
 2781DOPG   GL055225  15.750  18.960  11.590
 2781DOPG   PO455226  16.030  18.860  11.820
 2781DOPG   GL155227  16.200  18.720  11.300
 2781DOPG   GL255228  15.920  18.710  11.150
 2781DOPG   C1A55229  16.370  18.680  10.900
 2781DOPG   D2A55230  16.800  18.600  10.600
 2781DOPG   C3A55231  17.020  18.480  10.240
 2781DOPG   C4A55232  16.720  18.430   9.860
 2781DOPG   C1B55233  15.930  18.560  10.620
 2781DOPG   D2B55234  15.840  18.300  10.250
 2781DOPG   C3B55235  15.760  18.340   9.880
 2781DOPG   C4B55236  15.270  18.360   9.700
 2782DOPG   GL055237  20.440  19.690  12.870
 2782DOPG   PO455238  20.680  19.990  12.750
 2782DOPG   GL155239  21.090  20.210  12.920
 2782DOPG   GL255240  21.130  20.530  12.890
 2782DOPG   C1A55241  21.470  20.030  12.870
 2782DOPG   D2A55242  21.950  20.050  13.150
 2782DOPG   C3A55243  22.200  20.250  13.560
 2782DOPG   C4A55244  22.660  20.000  13.680
 2782DOPG   C1B55245  21.430  20.460  12.550
 2782DOPG   D2B55246  21.730  20.560  12.220
 2782DOPG   C3B55247  22.060  20.400  12.050
 2782DOPG   C4B55248  22.210  20.040  11.780
 2783DOPG   GL055249  16.360  24.140  13.170
 2783DOPG   PO455250  16.420  24.320  13.450
 2783DOPG   GL155251  16.160  24.370  13.860
 2783DOPG   GL255252  16.110  24.400  14.210
 2783DOPG   C1A55253  15.720  24.400  13.920
 2783DOPG   D2A55254  15.440  24.620  13.640
 2783DOPG   C3A55255  15.010  24.680  13.350
 2783DOPG   C4A55256  14.630  24.800  13.350
 2783DOPG   C1B55257  15.980  24.360  14.630
 2783DOPG   D2B55258  15.770  24.670  14.880
 2783DOPG   C3B55259  15.690  25.040  14.670
 2783DOPG   C4B55260  15.800  25.250  14.340
 2784DOPG   GL055261  16.950   7.410  13.780
 2784DOPG   PO455262  16.700   7.780  13.480
 2784DOPG   GL155263  16.770   8.240  13.500
 2784DOPG   GL255264  16.860   8.390  13.810
 2784DOPG   C1A55265  16.690   8.560  13.400
 2784DOPG   D2A55266  16.280   8.770  13.320
 2784DOPG   C3A55267  16.170   9.130  13.510
 2784DOPG   C4A55268  16.200   9.510  13.630
 2784DOPG   C1B55269  16.590   8.770  13.800
 2784DOPG   D2B55270  16.590   9.220  13.830
 2784DOPG   C3B55271  16.910   9.580  13.800
 2784DOPG   C4B55272  17.190   9.820  13.570
 2785DOPG   GL055273  17.520  18.930  15.030
 2785DOPG   PO455274  17.530  18.720  15.300
 2785DOPG   GL155275  17.850  18.430  15.510
 2785DOPG   GL255276  17.930  18.110  15.450
 2785DOPG   C1A55277  18.040  18.300  15.910
 2785DOPG   D2A55278  17.960  18.190  16.340
 2785DOPG   C3A55279  18.200  17.910  16.560
 2785DOPG   C4A55280  18.310  17.430  16.580
 2785DOPG   C1B55281  17.720  17.680  15.490
 2785DOPG   D2B55282  17.700  17.220  15.400
 2785DOPG   C3B55283  17.990  17.300  15.090
 2785DOPG   C4B55284  18.060  17.260  14.660
 2786DOPG   GL055285  13.210  25.940  15.290
 2786DOPG   PO455286  13.360  25.470  15.240
 2786DOPG   GL155287  13.580  25.130  15.050
 2786DOPG   GL255288  13.450  24.910  14.880
 2786DOPG   C1A55289  14.030  25.060  15.200
 2786DOPG   D2A55290  14.400  25.160  15.220
 2786DOPG   C3A55291  14.740  24.990  14.920
 2786DOPG   C4A55292  14.770  25.180  14.530
 2786DOPG   C1B55293  13.760  24.700  14.650
 2786DOPG   D2B55294  13.940  24.610  14.160
 2786DOPG   C3B55295  14.180  24.320  14.230
 2786DOPG   C4B55296  14.420  24.220  14.490
 2787DOPG   GL055297  14.490  18.640  14.000
 2787DOPG   PO455298  14.830  18.430  14.080
 2787DOPG   GL155299  14.580  18.180  14.200
 2787DOPG   GL255300  14.650  18.150  14.470
 2787DOPG   C1A55301  14.460  17.800  14.220
 2787DOPG   D2A55302  14.790  17.440  14.280
 2787DOPG   C3A55303  14.720  17.310  14.700
 2787DOPG   C4A55304  14.540  17.140  15.010
 2787DOPG   C1B55305  14.720  17.850  14.780
 2787DOPG   D2B55306  14.680  17.600  15.110
 2787DOPG   C3B55307  15.010  17.370  15.250
 2787DOPG   C4B55308  15.350  17.040  15.290
 2788DOPG   GL055309  17.770  25.120  11.780
 2788DOPG   PO455310  18.260  25.030  11.750
 2788DOPG   GL155311  18.200  25.460  11.620
 2788DOPG   GL255312  17.800  25.560  11.620
 2788DOPG   C1A55313  18.070  25.540  11.190
 2788DOPG   D2A55314  17.740  25.280  10.950
 2788DOPG   C3A55315  17.600  25.030  10.600
 2788DOPG   C4A55316  17.320  24.970  10.280
 2788DOPG   C1B55317  17.800  25.980  11.430
 2788DOPG   D2B55318  17.810  26.350  11.190
 2788DOPG   C3B55319  17.770  26.230  10.900
 2788DOPG   C4B55320  17.530  26.080  10.530
 2789DOPG   GL055321  19.930  25.220  12.780
 2789DOPG   PO455322  19.610  25.580  12.640
 2789DOPG   GL155323  19.340  25.980  12.760
 2789DOPG   GL255324  19.040  26.160  12.530
 2789DOPG   C1A55325  19.340  26.410  12.830
 2789DOPG   D2A55326  19.600  26.610  13.110
 2789DOPG   C3A55327  19.500  26.680  13.540
 2789DOPG   C4A55328  19.640  27.020  13.790
 2789DOPG   C1B55329  19.280  26.540  12.360
 2789DOPG   D2B55330  19.590  26.810  12.300
 2789DOPG   C3B55331  19.520  27.310  12.490
 2789DOPG   C4B55332  19.440  27.600  12.170
 2790DOPG   GL055333  17.400  25.430  23.870
 2790DOPG   PO455334  17.740  25.770  24.090
 2790DOPG   GL155335  17.940  25.650  23.660
 2790DOPG   GL255336  17.970  25.270  23.500
 2790DOPG   C1A55337  17.820  25.830  23.230
 2790DOPG   D2A55338  18.090  25.880  22.810
 2790DOPG   C3A55339  18.270  25.410  22.790
 2790DOPG   C4A55340  18.330  25.100  22.530
 2790DOPG   C1B55341  17.800  25.340  23.070
 2790DOPG   D2B55342  17.820  25.380  22.570
 2790DOPG   C3B55343  17.480  25.470  22.210
 2790DOPG   C4B55344  17.270  25.150  22.120
 2791DOPG   GL055345  16.950  20.960  15.620
 2791DOPG   PO455346  17.270  20.970  15.890
 2791DOPG   GL155347  17.260  20.960  16.370
 2791DOPG   GL255348  17.460  20.750  16.640
 2791DOPG   C1A55349  16.900  20.930  16.640
 2791DOPG   D2A55350  16.680  20.890  17.000
 2791DOPG   C3A55351  16.690  20.540  17.220
 2791DOPG   C4A55352  17.010  20.310  17.090
 2791DOPG   C1B55353  17.670  20.840  16.960
 2791DOPG   D2B55354  17.900  20.860  17.240
 2791DOPG   C3B55355  18.040  21.050  17.550
 2791DOPG   C4B55356  18.290  21.370  17.840
 2792DOPG   GL055357  22.090  22.940  14.820
 2792DOPG   PO455358  21.960  23.380  14.880
 2792DOPG   GL155359  22.130  23.310  15.240
 2792DOPG   GL255360  22.380  23.020  15.190
 2792DOPG   C1A55361  22.110  22.950  15.580
 2792DOPG   D2A55362  21.820  22.640  15.630
 2792DOPG   C3A55363  22.190  22.420  15.940
 2792DOPG   C4A55364  22.600  22.360  16.210
 2792DOPG   C1B55365  22.560  23.300  14.860
 2792DOPG   D2B55366  22.940  23.570  14.770
 2792DOPG   C3B55367  23.380  23.280  14.760
 2792DOPG   C4B55368  23.820  23.420  14.840
 2793DOPG   GL055369  17.100  21.720  10.770
 2793DOPG   PO455370  16.780  21.830  10.510
 2793DOPG   GL155371  16.690  21.520  10.160
 2793DOPG   GL255372  16.580  21.690   9.930
 2793DOPG   C1A55373  16.340  21.250  10.000
 2793DOPG   D2A55374  16.200  20.900   9.920
 2793DOPG   C3A55375  15.900  20.860   9.630
 2793DOPG   C4A55376  15.990  20.910   9.200
 2793DOPG   C1B55377  16.320  21.760   9.590
 2793DOPG   D2B55378  16.270  21.730   9.180
 2793DOPG   C3B55379  16.400  21.450   8.860
 2793DOPG   C4B55380  16.250  21.040   8.840
 2794DOPG   GL055381  19.730  18.580  14.890
 2794DOPG   PO455382  19.450  18.930  14.750
 2794DOPG   GL155383  19.800  18.990  15.130
 2794DOPG   GL255384  19.770  19.290  15.270
 2794DOPG   C1A55385  20.000  18.710  15.350
 2794DOPG   D2A55386  20.130  18.290  15.660
 2794DOPG   C3A55387  20.510  18.060  15.550
 2794DOPG   C4A55388  20.980  18.070  15.380
 2794DOPG   C1B55389  20.190  19.160  15.370
 2794DOPG   D2B55390  20.400  18.950  15.710
 2794DOPG   C3B55391  20.390  18.630  15.990
 2794DOPG   C4B55392  20.030  18.370  16.400
 2795DOPG   GL055393  20.370  19.180  12.630
 2795DOPG   PO455394  20.030  19.110  12.250
 2795DOPG   GL155395  20.220  18.720  12.140
 2795DOPG   GL255396  20.430  18.610  12.430
 2795DOPG   C1A55397  20.390  18.420  11.880
 2795DOPG   D2A55398  20.310  18.090  11.470
 2795DOPG   C3A55399  20.290  17.700  11.570
 2795DOPG   C4A55400  20.650  17.580  11.780
 2795DOPG   C1B55401  20.160  18.250  12.360
 2795DOPG   D2B55402  19.920  18.110  12.150
 2795DOPG   C3B55403  20.010  18.080  11.840
 2795DOPG   C4B55404  19.790  18.040  11.450
 2796DOPG   GL055405  21.700  22.570  13.650
 2796DOPG   PO455406  22.100  22.690  13.720
 2796DOPG   GL155407  22.380  22.880  13.500
 2796DOPG   GL255408  22.310  22.910  13.190
 2796DOPG   C1A55409  22.830  22.800  13.380
 2796DOPG   D2A55410  23.270  22.760  13.450
 2796DOPG   C3A55411  23.320  22.590  13.810
 2796DOPG   C4A55412  22.900  22.760  13.980
 2796DOPG   C1B55413  22.620  23.010  12.980
 2796DOPG   D2B55414  22.920  22.940  12.830
 2796DOPG   C3B55415  23.140  22.680  13.010
 2796DOPG   C4B55416  23.470  22.440  13.020
 2797DOPG   GL055417  17.390  21.210   9.710
 2797DOPG   PO455418  17.070  21.620   9.700
 2797DOPG   GL155419  17.010  21.630   9.260
 2797DOPG   GL255420  16.710  21.520   9.250
 2797DOPG   C1A55421  17.250  21.420   8.920
 2797DOPG   D2A55422  17.290  21.130   8.590
 2797DOPG   C3A55423  17.130  20.750   8.310
 2797DOPG   C4A55424  17.210  20.430   7.990
 2797DOPG   C1B55425  16.760  21.760   8.900
 2797DOPG   D2B55426  16.950  21.840   8.520
 2797DOPG   C3B55427  17.280  22.050   8.210
 2797DOPG   C4B55428  17.760  22.030   8.320
 2798DOPG   GL055429  16.780  30.260   3.970
 2798DOPG   PO455430  16.980  29.990   4.230
 2798DOPG   GL155431  17.170  29.680   4.540
 2798DOPG   GL255432  16.940  29.500   4.590
 2798DOPG   C1A55433  17.420  29.460   4.770
 2798DOPG   D2A55434  17.660  29.090   4.930
 2798DOPG   C3A55435  17.850  29.230   5.340
 2798DOPG   C4A55436  17.800  29.130   5.740
 2798DOPG   C1B55437  17.030  29.480   5.060
 2798DOPG   D2B55438  16.790  29.680   5.370
 2798DOPG   C3B55439  16.980  29.630   5.750
 2798DOPG   C4B55440  16.870  29.640   6.180
 2799DOPG   GL055441  17.140  19.470   6.800
 2799DOPG   PO455442  17.340  19.810   6.660
 2799DOPG   GL155443  17.500  20.130   6.950
 2799DOPG   GL255444  17.830  20.010   7.070
 2799DOPG   C1A55445  17.260  20.350   7.220
 2799DOPG   D2A55446  17.050  20.520   7.580
 2799DOPG   C3A55447  16.650  20.650   7.360
 2799DOPG   C4A55448  16.340  20.790   7.560
 2799DOPG   C1B55449  18.050  20.110   7.530
 2799DOPG   D2B55450  18.030  20.460   7.830
 2799DOPG   C3B55451  17.740  20.440   8.150
 2799DOPG   C4B55452  17.600  20.770   8.460
 2800DOPG   GL055453  15.230  10.570   5.870
 2800DOPG   PO455454  15.390  10.650   5.380
 2800DOPG   GL155455  15.370  11.020   5.440
 2800DOPG   GL255456  15.140  11.040   5.640
 2800DOPG   C1A55457  15.200  11.440   5.420
 2800DOPG   D2A55458  14.960  11.810   5.310
 2800DOPG   C3A55459  15.180  12.070   5.470
 2800DOPG   C4A55460  15.300  12.230   5.920
 2800DOPG   C1B55461  14.930  11.250   5.990
 2800DOPG   D2B55462  15.190  11.520   6.320
 2800DOPG   C3B55463  15.530  11.850   6.320
 2800DOPG   C4B55464  15.800  12.090   6.150
 2801DOPG   GL055465  21.310  19.340  18.240
 2801DOPG   PO455466  21.320  19.750  18.380
 2801DOPG   GL155467  21.360  19.880  17.920
 2801DOPG   GL255468  21.600  19.830  17.770
 2801DOPG   C1A55469  21.140  19.920  17.550
 2801DOPG   D2A55470  20.840  20.040  17.200
 2801DOPG   C3A55471  20.600  20.210  17.460
 2801DOPG   C4A55472  20.400  20.260  17.750
 2801DOPG   C1B55473  21.580  19.720  17.340
 2801DOPG   D2B55474  21.440  19.560  16.860
 2801DOPG   C3B55475  21.630  19.650  16.500
 2801DOPG   C4B55476  21.670  19.720  16.010
 2802DOPG   GL055477  13.590  31.490   7.860
 2802DOPG   PO455478  13.920  31.480   8.180
 2802DOPG   GL155479  14.240  31.350   8.430
 2802DOPG   GL255480  14.620  31.360   8.310
 2802DOPG   C1A55481  14.240  31.130   8.800
 2802DOPG   D2A55482  14.060  30.790   8.870
 2802DOPG   C3A55483  13.650  30.770   8.930
 2802DOPG   C4A55484  13.270  30.860   8.640
 2802DOPG   C1B55485  14.700  31.020   8.400
 2802DOPG   D2B55486  14.540  30.690   8.590
 2802DOPG   C3B55487  14.800  30.450   8.930
 2802DOPG   C4B55488  14.950  30.450   9.240
 2803DOPG   GL055489   8.230  25.150  17.990
 2803DOPG   PO455490   8.130  25.530  17.770
 2803DOPG   GL155491   8.250  25.240  17.480
 2803DOPG   GL255492   8.430  25.270  17.220
 2803DOPG   C1A55493   8.080  24.860  17.240
 2803DOPG   D2A55494   8.300  24.500  16.920
 2803DOPG   C3A55495   8.760  24.500  16.850
 2803DOPG   C4A55496   9.170  24.290  16.550
 2803DOPG   C1B55497   8.580  24.830  17.240
 2803DOPG   D2B55498   8.530  24.360  17.400
 2803DOPG   C3B55499   8.200  24.190  17.400
 2803DOPG   C4B55500   8.020  24.130  17.750
 2804DOPG   GL055501  21.750  24.350  18.920
 2804DOPG   PO455502  21.450  24.400  19.050
 2804DOPG   GL155503  21.400  24.190  18.660
 2804DOPG   GL255504  21.620  24.140  18.410
 2804DOPG   C1A55505  21.050  24.000  18.510
 2804DOPG   D2A55506  20.600  24.160  18.460
 2804DOPG   C3A55507  20.150  24.040  18.470
 2804DOPG   C4A55508  19.950  24.400  18.390
 2804DOPG   C1B55509  21.410  24.410  18.080
 2804DOPG   D2B55510  21.130  24.510  17.720
 2804DOPG   C3B55511  20.900  24.180  17.670
 2804DOPG   C4B55512  20.530  23.980  17.800
 2805DOPG   GL055513  14.410  13.770  11.750
 2805DOPG   PO455514  14.650  13.770  12.070
 2805DOPG   GL155515  14.630  14.210  12.150
 2805DOPG   GL255516  14.460  14.440  12.340
 2805DOPG   C1A55517  14.310  14.450  11.910
 2805DOPG   D2A55518  13.870  14.720  11.860
 2805DOPG   C3A55519  13.810  15.070  12.160
 2805DOPG   C4A55520  14.020  15.520  12.110
 2805DOPG   C1B55521  14.160  14.700  12.490
 2805DOPG   D2B55522  13.740  14.800  12.590
 2805DOPG   C3B55523  13.550  15.120  12.750
 2805DOPG   C4B55524  13.320  15.440  12.710
 2806DOPG   GL055525  27.940  14.820  12.340
 2806DOPG   PO455526  28.020  14.950  12.030
 2806DOPG   GL155527  27.490  15.110  12.100
 2806DOPG   GL255528  27.240  15.070  11.750
 2806DOPG   C1A55529  27.340  15.540  12.210
 2806DOPG   D2A55530  26.960  15.770  12.190
 2806DOPG   C3A55531  26.560  15.710  12.060
 2806DOPG   C4A55532  26.130  15.770  12.190
 2806DOPG   C1B55533  26.960  15.330  11.920
 2806DOPG   D2B55534  26.920  15.620  11.640
 2806DOPG   C3B55535  26.530  15.520  11.510
 2806DOPG   C4B55536  26.200  15.690  11.200
 2807DOPG   GL055537  24.130  30.530  19.440
 2807DOPG   PO455538  24.490  30.410  19.540
 2807DOPG   GL155539  24.400  30.040  19.480
 2807DOPG   GL255540  24.820  29.980  19.300
 2807DOPG   C1A55541  24.150  29.840  19.290
 2807DOPG   D2A55542  24.060  29.740  18.980
 2807DOPG   C3A55543  23.730  29.560  18.780
 2807DOPG   C4A55544  23.530  29.210  18.550
 2807DOPG   C1B55545  24.560  29.580  19.140
 2807DOPG   D2B55546  24.280  29.330  18.900
 2807DOPG   C3B55547  24.050  29.350  18.480
 2807DOPG   C4B55548  23.800  29.320  18.100
 2808DOPG   GL055549   8.950  11.220  15.600
 2808DOPG   PO455550   9.310  11.380  15.840
 2808DOPG   GL155551   9.640  11.670  16.050
 2808DOPG   GL255552   9.560  12.030  16.010
 2808DOPG   C1A55553  10.020  11.760  16.130
 2808DOPG   D2A55554  10.390  11.920  16.100
 2808DOPG   C3A55555  10.800  11.850  16.270
 2808DOPG   C4A55556  10.820  12.100  16.650
 2808DOPG   C1B55557   9.890  12.280  16.120
 2808DOPG   D2B55558  10.190  12.550  15.930
 2808DOPG   C3B55559  10.400  12.950  15.830
 2808DOPG   C4B55560  10.300  13.370  15.900
 2809DOPG   GL055561  18.850  20.730   5.850
 2809DOPG   PO455562  18.890  21.090   6.050
 2809DOPG   GL155563  19.210  21.160   6.310
 2809DOPG   GL255564  19.340  20.930   6.510
 2809DOPG   C1A55565  19.360  21.570   6.570
 2809DOPG   D2A55566  19.380  21.840   7.010
 2809DOPG   C3A55567  19.470  21.490   7.350
 2809DOPG   C4A55568  19.280  21.630   7.770
 2809DOPG   C1B55569  18.980  21.120   6.880
 2809DOPG   D2B55570  19.020  21.430   7.180
 2809DOPG   C3B55571  18.800  21.350   7.590
 2809DOPG   C4B55572  18.580  21.070   7.940
 2810DOPG   GL055573  24.310  26.660  14.390
 2810DOPG   PO455574  24.620  26.480  14.090
 2810DOPG   GL155575  24.600  26.010  14.020
 2810DOPG   GL255576  24.520  25.710  13.730
 2810DOPG   C1A55577  24.170  25.690  14.090
 2810DOPG   D2A55578  23.820  25.410  14.010
 2810DOPG   C3A55579  23.560  25.700  13.690
 2810DOPG   C4A55580  23.670  25.680  13.220
 2810DOPG   C1B55581  24.080  26.010  13.780
 2810DOPG   D2B55582  24.130  26.220  14.190
 2810DOPG   C3B55583  24.110  25.960  14.570
 2810DOPG   C4B55584  24.260  25.560  14.690
 2811DOPG   GL055585  18.730  17.970  18.770
 2811DOPG   PO455586  18.340  17.850  18.780
 2811DOPG   GL155587  18.370  17.970  18.370
 2811DOPG   GL255588  18.650  17.740  18.270
 2811DOPG   C1A55589  18.370  18.070  17.940
 2811DOPG   D2A55590  18.100  17.910  17.610
 2811DOPG   C3A55591  17.620  18.020  17.770
 2811DOPG   C4A55592  17.350  18.410  17.650
 2811DOPG   C1B55593  18.660  17.750  17.750
 2811DOPG   D2B55594  18.520  17.910  17.390
 2811DOPG   C3B55595  18.860  18.010  16.980
 2811DOPG   C4B55596  19.010  18.340  16.850
 2812DOPG   GL055597  16.560  15.900   4.780
 2812DOPG   PO455598  16.890  15.930   4.720
 2812DOPG   GL155599  16.960  15.640   4.520
 2812DOPG   GL255600  17.000  15.660   4.250
 2812DOPG   C1A55601  17.170  15.190   4.420
 2812DOPG   D2A55602  17.460  14.930   4.450
 2812DOPG   C3A55603  17.550  14.640   4.100
 2812DOPG   C4A55604  17.820  14.260   4.020
 2812DOPG   C1B55605  16.960  15.310   3.940
 2812DOPG   D2B55606  16.830  15.080   3.480
 2812DOPG   C3B55607  16.420  15.110   3.420
 2812DOPG   C4B55608  16.240  15.260   3.160
 2813DOPG   GL055609  15.710  12.590  11.780
 2813DOPG   PO455610  15.630  12.430  11.440
 2813DOPG   GL155611  15.730  11.980  11.420
 2813DOPG   GL255612  15.530  11.970  11.200
 2813DOPG   C1A55613  15.760  11.540  11.200
 2813DOPG   D2A55614  15.470  11.240  11.020
 2813DOPG   C3A55615  15.820  10.870  11.040
 2813DOPG   C4A55616  15.920  10.520  11.010
 2813DOPG   C1B55617  15.360  11.710  10.860
 2813DOPG   D2B55618  15.230  11.330  10.580
 2813DOPG   C3B55619  15.360  10.860  10.700
 2813DOPG   C4B55620  15.410  10.500  10.910
 2814DOPG   GL055621   7.660  13.410  17.060
 2814DOPG   PO455622   7.550  13.380  16.680
 2814DOPG   GL155623   8.090  13.410  16.800
 2814DOPG   GL255624   8.100  13.780  17.020
 2814DOPG   C1A55625   8.360  13.150  16.960
 2814DOPG   D2A55626   8.670  13.420  17.020
 2814DOPG   C3A55627   8.810  13.480  17.430
 2814DOPG   C4A55628   9.090  13.580  17.680
 2814DOPG   C1B55629   8.450  13.980  17.200
 2814DOPG   D2B55630   8.700  14.020  17.560
 2814DOPG   C3B55631   9.050  13.950  17.280
 2814DOPG   C4B55632   9.390  13.760  17.160
 2815DOPG   GL055633  15.850  20.590   7.170
 2815DOPG   PO455634  15.490  20.650   7.230
 2815DOPG   GL155635  15.510  20.350   7.540
 2815DOPG   GL255636  15.530  19.970   7.650
 2815DOPG   C1A55637  15.650  20.400   8.030
 2815DOPG   D2A55638  15.930  20.380   8.390
 2815DOPG   C3A55639  15.850  20.750   8.610
 2815DOPG   C4A55640  15.560  20.780   8.860
 2815DOPG   C1B55641  15.770  19.890   7.900
 2815DOPG   D2B55642  16.080  19.990   8.190
 2815DOPG   C3B55643  16.490  20.150   8.370
 2815DOPG   C4B55644  16.910  20.130   8.250
 2816DOPG   GL055645  10.750  21.650  15.200
 2816DOPG   PO455646  10.740  21.600  14.700
 2816DOPG   GL155647  11.030  21.720  14.410
 2816DOPG   GL255648  11.220  21.950  14.630
 2816DOPG   C1A55649  11.240  21.560  14.070
 2816DOPG   D2A55650  11.560  21.470  14.000
 2816DOPG   C3A55651  11.640  21.100  13.730
 2816DOPG   C4A55652  11.540  20.970  13.360
 2816DOPG   C1B55653  11.460  21.960  14.290
 2816DOPG   D2B55654  11.840  22.050  14.090
 2816DOPG   C3B55655  11.950  21.690  13.780
 2816DOPG   C4B55656  11.890  21.400  13.420
 2817DOPG   GL055657  27.730  16.040  18.780
 2817DOPG   PO455658  27.310  16.210  18.560
 2817DOPG   GL155659  26.930  16.430  18.400
 2817DOPG   GL255660  26.600  16.300  18.420
 2817DOPG   C1A55661  26.620  16.860  18.340
 2817DOPG   D2A55662  26.290  17.160  18.230
 2817DOPG   C3A55663  25.770  17.140  18.280
 2817DOPG   C4A55664  25.330  17.060  18.180
 2817DOPG   C1B55665  26.200  16.360  18.390
 2817DOPG   D2B55666  25.790  16.500  18.110
 2817DOPG   C3B55667  25.380  16.570  18.000
 2817DOPG   C4B55668  24.920  16.680  17.780
 2818DOPG   GL055669  22.760  30.020   6.140
 2818DOPG   PO455670  23.140  30.220   6.350
 2818DOPG   GL155671  23.070  30.230   6.790
 2818DOPG   GL255672  22.820  30.200   7.030
 2818DOPG   C1A55673  23.400  30.060   7.230
 2818DOPG   D2A55674  23.650  29.930   7.560
 2818DOPG   C3A55675  23.650  29.450   7.770
 2818DOPG   C4A55676  23.870  29.220   8.110
 2818DOPG   C1B55677  22.680  29.940   7.270
 2818DOPG   D2B55678  22.730  29.690   7.560
 2818DOPG   C3B55679  22.730  29.300   7.330
 2818DOPG   C4B55680  23.110  28.920   7.300
 2819DOPG   GL055681   9.770  10.820  12.750
 2819DOPG   PO455682  10.040  11.150  12.840
 2819DOPG   GL155683  10.470  11.350  13.000
 2819DOPG   GL255684  10.710  11.300  12.790
 2819DOPG   C1A55685  10.580  11.750  13.200
 2819DOPG   D2A55686  10.960  11.800  13.390
 2819DOPG   C3A55687  11.300  11.690  13.220
 2819DOPG   C4A55688  11.600  11.740  13.000
 2819DOPG   C1B55689  10.860  11.710  12.720
 2819DOPG   D2B55690  10.920  11.920  12.400
 2819DOPG   C3B55691  11.180  12.350  12.400
 2819DOPG   C4B55692  11.590  12.500  12.270
 2820DOPG   GL055693  11.000  15.840  16.030
 2820DOPG   PO455694  11.190  15.510  16.310
 2820DOPG   GL155695  10.890  15.390  16.220
 2820DOPG   GL255696  10.960  15.380  15.870
 2820DOPG   C1A55697  10.490  15.340  16.210
 2820DOPG   D2A55698  10.150  15.330  15.970
 2820DOPG   C3A55699   9.600  15.250  16.020
 2820DOPG   C4A55700   9.380  15.110  16.410
 2820DOPG   C1B55701  11.220  15.570  15.580
 2820DOPG   D2B55702  11.100  15.890  15.170
 2820DOPG   C3B55703  10.890  16.240  15.130
 2820DOPG   C4B55704  10.440  16.300  15.010
 2821DOPG   GL055705  17.640  24.440   0.990
 2821DOPG   PO455706  17.260  24.280   1.140
 2821DOPG   GL155707  17.110  24.100   1.580
 2821DOPG   GL255708  17.190  23.710   1.470
 2821DOPG   C1A55709  17.440  23.880   1.840
 2821DOPG   D2A55710  17.780  23.540   1.730
 2821DOPG   C3A55711  17.450  23.240   1.630
 2821DOPG   C4A55712  17.060  23.080   1.610
 2821DOPG   C1B55713  17.030  23.510   1.840
 2821DOPG   D2B55714  17.290  23.120   2.100
 2821DOPG   C3B55715  17.320  23.140   2.620
 2821DOPG   C4B55716  17.440  23.320   2.990
 2822DOPG   GL055717  15.500   8.420  16.930
 2822DOPG   PO455718  15.090   8.440  16.730
 2822DOPG   GL155719  15.120   8.840  16.490
 2822DOPG   GL255720  14.840   8.980  16.190
 2822DOPG   C1A55721  15.270   9.230  16.300
 2822DOPG   D2A55722  15.290   9.560  16.030
 2822DOPG   C3A55723  14.920   9.680  16.090
 2822DOPG   C4A55724  14.500   9.630  16.040
 2822DOPG   C1B55725  15.150   9.160  15.830
 2822DOPG   D2B55726  15.160   9.420  15.540
 2822DOPG   C3B55727  15.040   9.860  15.590
 2822DOPG   C4B55728  15.180  10.110  15.860
 2823DOPG   GL055729  30.360  24.140  10.870
 2823DOPG   PO455730  30.300  24.440  11.150
 2823DOPG   GL155731  29.990  24.330  11.400
 2823DOPG   GL255732  29.990  24.060  11.620
 2823DOPG   C1A55733  29.580  24.180  11.400
 2823DOPG   D2A55734  29.310  24.230  11.800
 2823DOPG   C3A55735  28.830  24.160  11.710
 2823DOPG   C4A55736  28.680  23.730  11.930
 2823DOPG   C1B55737  29.770  24.050  11.860
 2823DOPG   D2B55738  29.710  23.890  12.270
 2823DOPG   C3B55739  29.410  24.050  12.570
 2823DOPG   C4B55740  29.150  24.380  12.670
 2824DOPG   GL055741  23.440  10.270  11.150
 2824DOPG   PO455742  23.060  10.560  11.240
 2824DOPG   GL155743  22.920  10.850  11.550
 2824DOPG   GL255744  23.040  10.760  11.910
 2824DOPG   C1A55745  23.190  11.110  11.630
 2824DOPG   D2A55746  23.140  11.540  11.530
 2824DOPG   C3A55747  22.880  11.960  11.700
 2824DOPG   C4A55748  22.460  12.260  11.560
 2824DOPG   C1B55749  22.780  10.850  12.280
 2824DOPG   D2B55750  22.790  10.680  12.650
 2824DOPG   C3B55751  22.310  10.670  12.800
 2824DOPG   C4B55752  21.900  10.980  12.870
 2825DOPG   GL055753  21.490  19.610  18.860
 2825DOPG   PO455754  21.720  19.980  18.700
 2825DOPG   GL155755  21.550  20.250  18.390
 2825DOPG   GL255756  21.830  20.400  18.120
 2825DOPG   C1A55757  21.250  20.480  18.150
 2825DOPG   D2A55758  20.930  20.350  17.790
 2825DOPG   C3A55759  20.950  20.580  17.330
 2825DOPG   C4A55760  21.240  20.690  17.000
 2825DOPG   C1B55761  21.610  20.370  17.820
 2825DOPG   D2B55762  21.350  20.570  17.560
 2825DOPG   C3B55763  21.440  20.920  17.330
 2825DOPG   C4B55764  21.510  21.150  16.940
 2826DOPG   GL055765  12.900   8.520  12.170
 2826DOPG   PO455766  12.840   8.450  11.670
 2826DOPG   GL155767  12.820   8.920  11.830
 2826DOPG   GL255768  13.170   8.880  11.780
 2826DOPG   C1A55769  13.080   9.230  12.110
 2826DOPG   D2A55770  13.450   9.440  12.320
 2826DOPG   C3A55771  13.800   9.630  12.420
 2826DOPG   C4A55772  14.230   9.360  12.530
 2826DOPG   C1B55773  13.460   9.260  11.760
 2826DOPG   D2B55774  13.850   9.430  11.630
 2826DOPG   C3B55775  14.110   9.030  11.640
 2826DOPG   C4B55776  14.150   8.600  11.830
 2827DOPG   GL055777  21.600   9.440  14.410
 2827DOPG   PO455778  21.440   9.260  14.060
 2827DOPG   GL155779  21.280   9.760  14.070
 2827DOPG   GL255780  21.100   9.880  13.700
 2827DOPG   C1A55781  21.120  10.110  14.260
 2827DOPG   D2A55782  20.760  10.320  14.390
 2827DOPG   C3A55783  20.490  10.240  14.800
 2827DOPG   C4A55784  20.520  10.500  15.240
 2827DOPG   C1B55785  21.020  10.380  13.850
 2827DOPG   D2B55786  21.130  10.640  14.250
 2827DOPG   C3B55787  20.970  10.900  14.360
 2827DOPG   C4B55788  20.740  11.250  14.370
 2828DOPG   GL055789  18.790  14.260   2.480
 2828DOPG   PO455790  18.420  14.130   2.400
 2828DOPG   GL155791  18.380  14.440   2.760
 2828DOPG   GL255792  18.540  14.240   2.930
 2828DOPG   C1A55793  18.140  14.460   3.270
 2828DOPG   D2A55794  18.220  14.350   3.670
 2828DOPG   C3A55795  18.600  14.270   3.940
 2828DOPG   C4A55796  19.000  14.110   4.110
 2828DOPG   C1B55797  18.440  14.060   3.300
 2828DOPG   D2B55798  18.530  13.820   3.740
 2828DOPG   C3B55799  18.220  13.890   4.120
 2828DOPG   C4B55800  17.850  13.900   4.410
 2829DOPG   GL055801  11.280  25.910  12.300
 2829DOPG   PO455802  10.840  25.920  12.430
 2829DOPG   GL155803  10.960  26.390  12.410
 2829DOPG   GL255804  10.780  26.520  12.630
 2829DOPG   C1A55805  10.710  26.720  12.190
 2829DOPG   D2A55806  10.560  26.830  11.800
 2829DOPG   C3A55807  10.260  27.190  11.570
 2829DOPG   C4A55808  10.080  27.480  11.610
 2829DOPG   C1B55809  10.460  26.830  12.590
 2829DOPG   D2B55810  10.200  27.090  12.830
 2829DOPG   C3B55811   9.990  27.400  12.570
 2829DOPG   C4B55812   9.700  27.250  12.170
 2830DOPG   GL055813  24.420  20.270   2.640
 2830DOPG   PO455814  24.620  20.560   2.810
 2830DOPG   GL155815  24.310  20.460   3.110
 2830DOPG   GL255816  23.950  20.410   3.020
 2830DOPG   C1A55817  24.090  20.540   3.440
 2830DOPG   D2A55818  24.050  20.590   3.850
 2830DOPG   C3A55819  24.070  20.610   4.230
 2830DOPG   C4A55820  24.040  20.510   4.560
 2830DOPG   C1B55821  23.630  20.550   3.420
 2830DOPG   D2B55822  23.510  20.920   3.670
 2830DOPG   C3B55823  23.510  20.730   4.080
 2830DOPG   C4B55824  23.260  20.890   4.410
 2831DOPG   GL055825  16.010  32.580  17.900
 2831DOPG   PO455826  16.390  32.860  17.940
 2831DOPG   GL155827  16.770  32.620  17.760
 2831DOPG   GL255828  16.620  32.330  18.010
 2831DOPG   C1A55829  17.080  32.300  17.600
 2831DOPG   D2A55830  17.140  32.040  17.280
 2831DOPG   C3A55831  17.220  32.250  16.940
 2831DOPG   C4A55832  17.210  32.220  16.510
 2831DOPG   C1B55833  16.690  31.950  17.930
 2831DOPG   D2B55834  16.620  31.570  17.950
 2831DOPG   C3B55835  16.700  31.490  17.570
 2831DOPG   C4B55836  16.790  31.700  17.140
 2832DOPG   GL055837  27.210  24.210   5.010
 2832DOPG   PO455838  26.790  24.410   4.950
 2832DOPG   GL155839  26.510  24.750   5.190
 2832DOPG   GL255840  26.480  25.150   5.270
 2832DOPG   C1A55841  26.110  24.620   5.480
 2832DOPG   D2A55842  26.000  24.670   5.910
 2832DOPG   C3A55843  26.170  24.890   6.210
 2832DOPG   C4A55844  26.550  25.030   6.390
 2832DOPG   C1B55845  26.120  25.040   5.270
 2832DOPG   D2B55846  25.670  24.910   5.400
 2832DOPG   C3B55847  25.530  24.870   5.860
 2832DOPG   C4B55848  25.680  24.860   6.280
 2833DOPG   GL055849  20.590  17.800   1.610
 2833DOPG   PO455850  20.300  18.140   1.900
 2833DOPG   GL155851  20.200  17.950   2.190
 2833DOPG   GL255852  20.520  18.010   2.400
 2833DOPG   C1A55853  20.040  17.810   2.580
 2833DOPG   D2A55854  19.880  18.000   3.020
 2833DOPG   C3A55855  20.080  18.160   3.360
 2833DOPG   C4A55856  20.300  18.430   3.700
 2833DOPG   C1B55857  20.410  17.950   2.870
 2833DOPG   D2B55858  20.470  17.830   3.270
 2833DOPG   C3B55859  20.620  17.390   3.260
 2833DOPG   C4B55860  20.680  16.890   3.230
 2834DOPG   GL055861  23.440  18.590  16.450
 2834DOPG   PO455862  23.590  18.490  16.010
 2834DOPG   GL155863  23.090  18.500  16.140
 2834DOPG   GL255864  22.850  18.480  16.290
 2834DOPG   C1A55865  22.720  18.970  16.210
 2834DOPG   D2A55866  22.440  19.360  16.090
 2834DOPG   C3A55867  22.090  19.370  16.160
 2834DOPG   C4A55868  21.690  19.210  16.000
 2834DOPG   C1B55869  22.590  18.550  15.920
 2834DOPG   D2B55870  22.440  19.010  15.750
 2834DOPG   C3B55871  22.100  19.220  15.680
 2834DOPG   C4B55872  21.860  19.470  15.530
 2835DOPG   GL055873  15.120   8.150  10.160
 2835DOPG   PO455874  15.020   8.630   9.930
 2835DOPG   GL155875  15.300   8.790  10.400
 2835DOPG   GL255876  15.570   8.600  10.490
 2835DOPG   C1A55877  15.520   9.100  10.490
 2835DOPG   D2A55878  15.620   9.400  10.410
 2835DOPG   C3A55879  15.880   9.750  10.630
 2835DOPG   C4A55880  15.760  10.140  10.710
 2835DOPG   C1B55881  15.960   8.800  10.620
 2835DOPG   D2B55882  15.880   9.250  10.770
 2835DOPG   C3B55883  15.780   9.490  11.090
 2835DOPG   C4B55884  15.920   9.900  11.220
 2836DOPG   GL055885   5.500  21.210  13.510
 2836DOPG   PO455886   5.270  21.480  13.840
 2836DOPG   GL155887   5.700  21.560  13.980
 2836DOPG   GL255888   5.650  21.600  14.200
 2836DOPG   C1A55889   6.140  21.660  13.930
 2836DOPG   D2A55890   6.460  21.820  13.730
 2836DOPG   C3A55891   6.860  21.900  14.050
 2836DOPG   C4A55892   7.110  21.520  14.200
 2836DOPG   C1B55893   6.010  21.730  14.450
 2836DOPG   D2B55894   6.510  21.740  14.360
 2836DOPG   C3B55895   6.860  21.740  14.650
 2836DOPG   C4B55896   6.970  21.780  15.030
 2837DOPG   GL055897  13.670  19.380   8.430
 2837DOPG   PO455898  13.690  19.830   8.350
 2837DOPG   GL155899  13.920  19.870   8.630
 2837DOPG   GL255900  14.290  19.910   8.600
 2837DOPG   C1A55901  14.110  19.510   8.790
 2837DOPG   D2A55902  14.390  19.130   8.800
 2837DOPG   C3A55903  14.700  19.060   9.050
 2837DOPG   C4A55904  15.120  18.900   9.200
 2837DOPG   C1B55905  14.590  19.560   8.660
 2837DOPG   D2B55906  14.950  19.450   8.730
 2837DOPG   C3B55907  14.970  19.490   9.210
 2837DOPG   C4B55908  14.940  19.280   9.510
 2838DOPG   GL055909  18.040  22.700  10.320
 2838DOPG   PO455910  17.590  22.810  10.040
 2838DOPG   GL155911  17.370  23.110   9.800
 2838DOPG   GL255912  17.690  23.180   9.540
 2838DOPG   C1A55913  16.940  23.150   9.600
 2838DOPG   D2A55914  16.740  23.270   9.220
 2838DOPG   C3A55915  16.750  23.260   8.820
 2838DOPG   C4A55916  17.140  23.370   8.610
 2838DOPG   C1B55917  17.910  23.340   9.150
 2838DOPG   D2B55918  18.080  23.330   8.680
 2838DOPG   C3B55919  18.550  23.250   8.540
 2838DOPG   C4B55920  18.940  23.130   8.410
 2839DOPG   GL055921  16.180  26.560  17.650
 2839DOPG   PO455922  16.510  26.740  17.450
 2839DOPG   GL155923  16.800  26.450  17.220
 2839DOPG   GL255924  16.960  26.120  17.400
 2839DOPG   C1A55925  17.000  26.530  16.820
 2839DOPG   D2A55926  17.150  26.440  16.330
 2839DOPG   C3A55927  17.480  26.280  16.140
 2839DOPG   C4A55928  17.900  26.160  16.070
 2839DOPG   C1B55929  17.130  26.050  16.960
 2839DOPG   D2B55930  17.130  26.040  16.630
 2839DOPG   C3B55931  17.390  25.760  16.370
 2839DOPG   C4B55932  17.650  25.590  15.970
 2840DOPG   GL055933  12.410  25.050  14.340
 2840DOPG   PO455934  12.850  25.140  14.440
 2840DOPG   GL155935  13.240  25.000  14.440
 2840DOPG   GL255936  13.310  24.620  14.430
 2840DOPG   C1A55937  13.570  24.950  14.110
 2840DOPG   D2A55938  13.820  25.010  13.810
 2840DOPG   C3A55939  14.010  25.320  13.990
 2840DOPG   C4A55940  14.160  25.510  14.240
 2840DOPG   C1B55941  13.490  24.290  14.250
 2840DOPG   D2B55942  13.750  24.080  14.450
 2840DOPG   C3B55943  14.050  23.870  14.270
 2840DOPG   C4B55944  14.310  23.910  13.890
 2841DOPG   GL055945   8.610  22.150  12.760
 2841DOPG   PO455946   8.260  22.420  12.680
 2841DOPG   GL155947   7.960  22.340  12.260
 2841DOPG   GL255948   8.220  22.260  11.990
 2841DOPG   C1A55949   7.670  22.150  12.020
 2841DOPG   D2A55950   7.360  21.830  12.050
 2841DOPG   C3A55951   7.540  21.510  12.310
 2841DOPG   C4A55952   7.530  21.120  12.500
 2841DOPG   C1B55953   7.820  22.680  11.940
 2841DOPG   D2B55954   7.450  22.970  11.890
 2841DOPG   C3B55955   7.470  23.190  12.310
 2841DOPG   C4B55956   7.390  23.350  12.670
 2842DOPG   GL055957  15.570  27.550  10.490
 2842DOPG   PO455958  15.790  27.830  10.690
 2842DOPG   GL155959  16.040  27.590  10.840
 2842DOPG   GL255960  16.420  27.590  10.930
 2842DOPG   C1A55961  16.150  27.080  10.870
 2842DOPG   D2A55962  16.320  26.760  10.560
 2842DOPG   C3A55963  16.580  26.450  10.570
 2842DOPG   C4A55964  16.720  26.070  10.350
 2842DOPG   C1B55965  16.810  27.500  10.970
 2842DOPG   D2B55966  17.240  27.390  10.990
 2842DOPG   C3B55967  17.250  26.920  11.030
 2842DOPG   C4B55968  17.190  26.510  10.790
 2843DOPG   GL055969  21.110  15.800  10.800
 2843DOPG   PO455970  20.950  15.700  11.140
 2843DOPG   GL155971  20.630  16.030  10.990
 2843DOPG   GL255972  20.740  16.320  11.120
 2843DOPG   C1A55973  20.330  16.270  10.850
 2843DOPG   D2A55974  19.920  16.380  11.020
 2843DOPG   C3A55975  19.560  16.240  10.870
 2843DOPG   C4A55976  19.150  16.120  10.890
 2843DOPG   C1B55977  20.620  16.760  10.850
 2843DOPG   D2B55978  20.680  17.230  10.900
 2843DOPG   C3B55979  20.350  17.350  10.900
 2843DOPG   C4B55980  20.000  17.610  10.710
 2844DOPG   GL055981  16.360  16.730   8.770
 2844DOPG   PO455982  15.960  16.790   8.760
 2844DOPG   GL155983  16.070  17.060   9.110
 2844DOPG   GL255984  15.870  17.050   9.270
 2844DOPG   C1A55985  16.570  17.000   9.150
 2844DOPG   D2A55986  16.980  16.600   9.210
 2844DOPG   C3A55987  17.080  16.320   9.530
 2844DOPG   C4A55988  17.160  16.130   9.810
 2844DOPG   C1B55989  15.600  17.130   9.490
 2844DOPG   D2B55990  15.370  17.100   9.930
 2844DOPG   C3B55991  15.440  17.460  10.120
 2844DOPG   C4B55992  15.450  17.890   9.880
 2845DOPG   GL055993  14.590  27.210  11.940
 2845DOPG   PO455994  14.250  27.140  11.670
 2845DOPG   GL155995  14.540  26.760  11.780
 2845DOPG   GL255996  14.860  26.840  11.860
 2845DOPG   C1A55997  14.750  26.260  11.680
 2845DOPG   D2A55998  15.020  26.130  11.910
 2845DOPG   C3A55999  15.310  25.780  11.910
 2845DOPG   C4A56000  15.670  25.440  11.930
 2845DOPG   C1B56001  15.130  27.060  11.840
 2845DOPG   D2B56002  15.560  27.370  11.750
 2845DOPG   C3B56003  15.880  27.590  11.990
 2845DOPG   C4B56004  16.160  27.340  11.870
 2846DOPG   GL056005  20.360  29.080  15.680
 2846DOPG   PO456006  20.380  28.680  15.510
 2846DOPG   GL156007  20.030  28.350  15.550
 2846DOPG   GL256008  20.110  28.160  15.790
 2846DOPG   C1A56009  19.900  27.940  15.400
 2846DOPG   D2A56010  19.530  27.600  15.340
 2846DOPG   C3A56011  19.280  27.520  15.680
 2846DOPG   C4A56012  19.180  27.530  16.070
 2846DOPG   C1B56013  20.390  28.020  15.360
 2846DOPG   D2B56014  20.790  27.860  15.250
 2846DOPG   C3B56015  20.900  27.690  14.880
 2846DOPG   C4B56016  20.560  27.570  14.550
 2847DOPG   GL056017  13.610  17.400  18.100
 2847DOPG   PO456018  13.980  17.260  17.800
 2847DOPG   GL156019  14.070  17.490  17.370
 2847DOPG   GL256020  13.930  17.630  17.100
 2847DOPG   C1A56021  14.480  17.780  17.110
 2847DOPG   D2A56022  14.650  18.050  16.900
 2847DOPG   C3A56023  14.760  18.420  16.740
 2847DOPG   C4A56024  14.540  18.800  16.580
 2847DOPG   C1B56025  14.310  17.370  16.930
 2847DOPG   D2B56026  14.510  17.560  16.630
 2847DOPG   C3B56027  14.830  17.580  16.810
 2847DOPG   C4B56028  15.060  17.430  17.050
 2848DOPG   GL056029   5.480  20.250   8.650
 2848DOPG   PO456030   5.600  20.670   8.660
 2848DOPG   GL156031   6.030  20.590   8.860
 2848DOPG   GL256032   6.070  20.930   8.890
 2848DOPG   C1A56033   6.440  20.250   8.950
 2848DOPG   D2A56034   6.820  20.210   8.810
 2848DOPG   C3A56035   7.150  20.550   8.910
 2848DOPG   C4A56036   7.500  20.800   9.080
 2848DOPG   C1B56037   6.520  20.760   8.780
 2848DOPG   D2B56038   6.630  20.640   8.390
 2848DOPG   C3B56039   6.940  20.430   8.440
 2848DOPG   C4B56040   7.340  20.270   8.220
 2849DOPG   GL056041  23.970  23.940   8.720
 2849DOPG   PO456042  23.860  23.640   8.980
 2849DOPG   GL156043  23.640  24.030   9.260
 2849DOPG   GL256044  23.410  24.180   9.170
 2849DOPG   C1A56045  23.750  24.350   9.500
 2849DOPG   D2A56046  23.600  24.560   9.850
 2849DOPG   C3A56047  23.520  24.270  10.180
 2849DOPG   C4A56048  23.190  24.120  10.370
 2849DOPG   C1B56049  23.350  24.140   9.670
 2849DOPG   D2B56050  23.240  23.820   9.850
 2849DOPG   C3B56051  23.540  23.610  10.050
 2849DOPG   C4B56052  23.740  23.890  10.300
 2850DOPG   GL056053   8.700  18.530  15.780
 2850DOPG   PO456054   9.130  18.570  15.740
 2850DOPG   GL156055   8.830  18.600  15.300
 2850DOPG   GL256056   9.160  18.750  15.130
 2850DOPG   C1A56057   8.540  18.480  14.910
 2850DOPG   D2A56058   8.300  18.460  14.510
 2850DOPG   C3A56059   8.380  18.750  14.180
 2850DOPG   C4A56060   8.380  18.760  13.700
 2850DOPG   C1B56061   9.030  18.560  14.800
 2850DOPG   D2B56062   9.200  18.300  14.510
 2850DOPG   C3B56063   9.380  17.890  14.430
 2850DOPG   C4B56064   9.160  17.540  14.120
 2851DOPG   GL056065  21.400  29.220  12.460
 2851DOPG   PO456066  21.290  28.960  12.790
 2851DOPG   GL156067  21.330  28.500  12.830
 2851DOPG   GL256068  21.520  28.350  13.020
 2851DOPG   C1A56069  21.090  28.150  12.770
 2851DOPG   D2A56070  21.080  27.790  12.450
 2851DOPG   C3A56071  21.010  27.410  12.720
 2851DOPG   C4A56072  21.130  27.250  13.090
 2851DOPG   C1B56073  21.840  28.040  12.980
 2851DOPG   D2B56074  21.900  27.670  12.970
 2851DOPG   C3B56075  21.690  27.360  13.240
 2851DOPG   C4B56076  21.790  27.170  13.570
 2852DOPG   GL056077  21.340  18.230   8.380
 2852DOPG   PO456078  21.250  18.570   8.080
 2852DOPG   GL156079  21.080  18.920   8.280
 2852DOPG   GL256080  20.880  18.870   8.630
 2852DOPG   C1A56081  20.850  19.300   8.370
 2852DOPG   D2A56082  20.840  19.720   8.460
 2852DOPG   C3A56083  21.140  20.160   8.520
 2852DOPG   C4A56084  21.250  20.680   8.390
 2852DOPG   C1B56085  20.490  19.080   8.620
 2852DOPG   D2B56086  20.110  19.040   8.930
 2852DOPG   C3B56087  19.970  19.320   9.220
 2852DOPG   C4B56088  19.930  19.170   9.610
 2853DOPG   GL056089  19.720  20.430  19.740
 2853DOPG   PO456090  19.590  20.450  19.340
 2853DOPG   GL156091  19.690  20.470  18.930
 2853DOPG   GL256092  19.420  20.610  18.830
 2853DOPG   C1A56093  19.860  20.430  18.500
 2853DOPG   D2A56094  19.780  20.660  18.160
 2853DOPG   C3A56095  20.130  20.690  17.890
 2853DOPG   C4A56096  20.560  20.830  17.650
 2853DOPG   C1B56097  19.340  20.680  18.340
 2853DOPG   D2B56098  19.390  20.800  17.890
 2853DOPG   C3B56099  19.680  20.540  17.700
 2853DOPG   C4B56100  20.010  20.420  17.470
 2854DOPG   GL056101   9.420  22.210  21.130
 2854DOPG   PO456102   9.420  22.570  21.320
 2854DOPG   GL156103   9.700  22.570  21.030
 2854DOPG   GL256104   9.950  22.750  20.850
 2854DOPG   C1A56105   9.820  22.320  20.660
 2854DOPG   D2A56106  10.100  22.130  20.390
 2854DOPG   C3A56107  10.460  22.190  20.290
 2854DOPG   C4A56108  10.850  22.070  20.460
 2854DOPG   C1B56109  10.350  22.630  20.650
 2854DOPG   D2B56110  10.660  22.610  20.350
 2854DOPG   C3B56111  10.740  22.550  19.970
 2854DOPG   C4B56112  10.980  22.690  19.630
 2855DOPG   GL056113  29.300  20.190   9.450
 2855DOPG   PO456114  29.420  20.580   9.570
 2855DOPG   GL156115  29.080  20.490   9.810
 2855DOPG   GL256116  29.050  20.750   9.840
 2855DOPG   C1A56117  28.630  20.280   9.800
 2855DOPG   D2A56118  28.170  20.420   9.880
 2855DOPG   C3A56119  27.990  20.580  10.290
 2855DOPG   C4A56120  27.720  20.560  10.630
 2855DOPG   C1B56121  28.660  20.860   9.650
 2855DOPG   D2B56122  28.470  21.220   9.350
 2855DOPG   C3B56123  28.700  21.380   9.080
 2855DOPG   C4B56124  28.770  21.740   9.160
 2856DOPG   GL056125  16.820  25.290   7.370
 2856DOPG   PO456126  17.170  25.350   7.700
 2856DOPG   GL156127  17.000  24.960   7.740
 2856DOPG   GL256128  17.110  24.710   7.650
 2856DOPG   C1A56129  16.910  24.880   8.110
 2856DOPG   D2A56130  16.730  24.890   8.470
 2856DOPG   C3A56131  16.670  24.520   8.750
 2856DOPG   C4A56132  16.520  24.080   8.780
 2856DOPG   C1B56133  17.240  24.530   8.100
 2856DOPG   D2B56134  17.250  24.170   8.400
 2856DOPG   C3B56135  16.980  24.070   8.660
 2856DOPG   C4B56136  16.930  23.740   8.930
 2857DOPG   GL056137   9.330  19.540  16.840
 2857DOPG   PO456138   9.520  19.450  17.230
 2857DOPG   GL156139   9.090  19.550  17.400
 2857DOPG   GL256140   9.060  19.810  17.150
 2857DOPG   C1A56141   8.680  19.590  17.660
 2857DOPG   D2A56142   8.250  19.680  17.890
 2857DOPG   C3A56143   7.830  19.540  17.670
 2857DOPG   C4A56144   7.580  19.340  17.380
 2857DOPG   C1B56145   8.780  19.600  16.830
 2857DOPG   D2B56146   8.490  19.390  16.560
 2857DOPG   C3B56147   8.080  19.390  16.480
 2857DOPG   C4B56148   7.690  19.160  16.580
 2858DOPG   GL056149  14.970  33.450  15.230
 2858DOPG   PO456150  15.070  33.040  15.150
 2858DOPG   GL156151  15.070  32.720  14.900
 2858DOPG   GL256152  15.400  32.680  14.830
 2858DOPG   C1A56153  15.060  32.280  15.030
 2858DOPG   D2A56154  14.950  32.060  15.390
 2858DOPG   C3A56155  14.950  31.660  15.390
 2858DOPG   C4A56156  15.060  31.250  15.640
 2858DOPG   C1B56157  15.520  32.180  14.910
 2858DOPG   D2B56158  15.670  31.720  14.910
 2858DOPG   C3B56159  16.090  31.620  14.960
 2858DOPG   C4B56160  16.230  31.200  15.130
 2859DOPG   GL056161  21.740  10.090  16.760
 2859DOPG   PO456162  21.910  10.420  17.020
 2859DOPG   GL156163  21.660  10.660  16.800
 2859DOPG   GL256164  21.600  10.490  16.580
 2859DOPG   C1A56165  21.350  11.050  16.800
 2859DOPG   D2A56166  21.470  11.520  17.040
 2859DOPG   C3A56167  21.320  11.800  16.840
 2859DOPG   C4A56168  21.100  12.030  16.560
 2859DOPG   C1B56169  21.170  10.620  16.680
 2859DOPG   D2B56170  20.970  10.950  16.450
 2859DOPG   C3B56171  21.010  11.390  16.610
 2859DOPG   C4B56172  20.630  11.660  16.690
 2860DOPG   GL056173  11.140  19.000  16.940
 2860DOPG   PO456174  11.580  18.920  16.720
 2860DOPG   GL156175  11.630  18.820  16.400
 2860DOPG   GL256176  11.490  18.970  16.210
 2860DOPG   C1A56177  12.080  18.910  16.200
 2860DOPG   D2A56178  12.370  19.000  15.890
 2860DOPG   C3A56179  12.890  19.090  15.800
 2860DOPG   C4A56180  13.330  19.050  15.670
 2860DOPG   C1B56181  11.750  19.250  16.010
 2860DOPG   D2B56182  12.070  19.440  15.810
 2860DOPG   C3B56183  12.320  19.430  15.510
 2860DOPG   C4B56184  12.770  19.500  15.500
 2861DOPG   GL056185  17.440  14.680   6.490
 2861DOPG   PO456186  17.360  14.230   6.600
 2861DOPG   GL156187  17.270  13.890   6.390
 2861DOPG   GL256188  17.440  13.900   6.060
 2861DOPG   C1A56189  17.160  13.420   6.440
 2861DOPG   D2A56190  17.210  13.040   6.770
 2861DOPG   C3A56191  17.250  12.750   6.610
 2861DOPG   C4A56192  17.140  12.510   6.260
 2861DOPG   C1B56193  17.160  13.800   5.710
 2861DOPG   D2B56194  17.310  13.410   5.880
 2861DOPG   C3B56195  17.200  12.930   5.790
 2861DOPG   C4B56196  16.760  12.900   5.720
 2862DOPG   GL056197  11.830  15.490   2.560
 2862DOPG   PO456198  11.860  15.950   2.340
 2862DOPG   GL156199  12.270  15.890   2.650
 2862DOPG   GL256200  12.470  15.750   2.340
 2862DOPG   C1A56201  12.430  16.130   2.980
 2862DOPG   D2A56202  12.770  16.230   3.090
 2862DOPG   C3A56203  12.720  16.490   3.460
 2862DOPG   C4A56204  12.910  16.720   3.660
 2862DOPG   C1B56205  12.870  15.930   2.600
 2862DOPG   D2B56206  13.010  16.370   2.500
 2862DOPG   C3B56207  13.430  16.440   2.570
 2862DOPG   C4B56208  13.660  16.590   2.920
 2863DOPG   GL056209  10.070  14.610  11.150
 2863DOPG   PO456210  10.090  14.910  11.400
 2863DOPG   GL156211  10.450  14.790  11.410
 2863DOPG   GL256212  10.630  15.020  11.330
 2863DOPG   C1A56213  10.880  14.690  11.570
 2863DOPG   D2A56214  11.260  14.790  11.440
 2863DOPG   C3A56215  11.670  14.610  11.460
 2863DOPG   C4A56216  11.920  14.200  11.400
 2863DOPG   C1B56217  11.030  15.270  11.450
 2863DOPG   D2B56218  11.010  15.640  11.570
 2863DOPG   C3B56219  11.260  15.530  11.940
 2863DOPG   C4B56220  11.510  15.450  12.260
 2864DOPG   GL056221  18.480  16.110   6.660
 2864DOPG   PO456222  18.330  16.040   6.200
 2864DOPG   GL156223  18.640  15.820   5.980
 2864DOPG   GL256224  18.850  16.110   5.790
 2864DOPG   C1A56225  18.720  15.590   5.630
 2864DOPG   D2A56226  18.970  15.370   5.220
 2864DOPG   C3A56227  18.720  15.110   4.880
 2864DOPG   C4A56228  18.840  14.980   4.430
 2864DOPG   C1B56229  19.130  15.810   5.450
 2864DOPG   D2B56230  19.500  15.550   5.200
 2864DOPG   C3B56231  19.600  15.430   4.740
 2864DOPG   C4B56232  19.550  15.250   4.270
 2865DOPG   GL056233   5.410  21.620  18.300
 2865DOPG   PO456234   5.570  21.650  18.050
 2865DOPG   GL156235   6.010  21.490  18.110
 2865DOPG   GL256236   6.080  21.510  17.840
 2865DOPG   C1A56237   6.180  21.060  18.120
 2865DOPG   D2A56238   6.560  20.810  18.160
 2865DOPG   C3A56239   6.820  20.940  18.530
 2865DOPG   C4A56240   6.820  21.380  18.720
 2865DOPG   C1B56241   6.430  21.440  17.680
 2865DOPG   D2B56242   6.730  21.300  17.450
 2865DOPG   C3B56243   6.860  20.860  17.360
 2865DOPG   C4B56244   7.030  20.520  17.550
 2866DOPG   GL056245  16.740  24.110  19.200
 2866DOPG   PO456246  16.700  23.750  18.870
 2866DOPG   GL156247  16.700  23.610  18.480
 2866DOPG   GL256248  16.410  23.440  18.430
 2866DOPG   C1A56249  16.840  23.500  18.030
 2866DOPG   D2A56250  17.070  23.530  17.720
 2866DOPG   C3A56251  17.330  23.450  17.400
 2866DOPG   C4A56252  17.560  23.110  17.160
 2866DOPG   C1B56253  16.540  23.100  17.950
 2866DOPG   D2B56254  16.620  22.820  17.610
 2866DOPG   C3B56255  16.600  22.880  17.160
 2866DOPG   C4B56256  16.620  23.120  16.840
 2867DOPG   GL056257  16.450   7.450  12.160
 2867DOPG   PO456258  15.990   7.500  12.180
 2867DOPG   GL156259  15.860   7.960  12.190
 2867DOPG   GL256260  15.830   8.150  11.930
 2867DOPG   C1A56261  15.950   8.380  12.470
 2867DOPG   D2A56262  15.710   8.780  12.600
 2867DOPG   C3A56263  15.770   9.190  12.580
 2867DOPG   C4A56264  15.800   9.430  12.200
 2867DOPG   C1B56265  15.560   8.540  11.660
 2867DOPG   D2B56266  15.280   8.730  11.350
 2867DOPG   C3B56267  14.840   8.620  11.430
 2867DOPG   C4B56268  14.570   8.840  11.740
 2868DOPG   GL056269  18.720  15.100  10.380
 2868DOPG   PO456270  18.640  14.960  10.820
 2868DOPG   GL156271  18.520  15.380  10.770
 2868DOPG   GL256272  18.240  15.440  10.570
 2868DOPG   C1A56273  18.490  15.810  10.850
 2868DOPG   D2A56274  18.580  16.200  10.910
 2868DOPG   C3A56275  18.350  16.620  10.780
 2868DOPG   C4A56276  17.980  16.750  10.680
 2868DOPG   C1B56277  18.000  15.830  10.610
 2868DOPG   D2B56278  18.050  16.220  10.790
 2868DOPG   C3B56279  17.960  16.490  11.150
 2868DOPG   C4B56280  17.920  16.530  11.570
 2869DOPG   GL056281  16.690  15.040  18.240
 2869DOPG   PO456282  16.370  14.730  18.210
 2869DOPG   GL156283  16.170  14.330  18.460
 2869DOPG   GL256284  15.950  14.430  18.720
 2869DOPG   C1A56285  16.290  14.030  18.760
 2869DOPG   D2A56286  16.440  13.920  19.210
 2869DOPG   C3A56287  16.690  13.580  19.410
 2869DOPG   C4A56288  17.200  13.410  19.460
 2869DOPG   C1B56289  15.930  14.050  19.100
 2869DOPG   D2B56290  15.910  13.620  19.190
 2869DOPG   C3B56291  15.720  13.370  19.550
 2869DOPG   C4B56292  15.500  13.140  19.830
 2870DOPG   GL056293  12.070  22.530   8.810
 2870DOPG   PO456294  12.050  22.660   9.280
 2870DOPG   GL156295  12.410  22.580   9.530
 2870DOPG   GL256296  12.530  22.310   9.660
 2870DOPG   C1A56297  12.790  22.680   9.830
 2870DOPG   D2A56298  12.890  23.130   9.870
 2870DOPG   C3A56299  13.240  23.240  10.010
 2870DOPG   C4A56300  13.550  23.000  10.270
 2870DOPG   C1B56301  12.740  22.190  10.000
 2870DOPG   D2B56302  13.040  22.410  10.150
 2870DOPG   C3B56303  13.240  22.710   9.900
 2870DOPG   C4B56304  13.440  22.860   9.590
 2871DOPG   GL056305  21.690  24.500   7.280
 2871DOPG   PO456306  21.670  24.530   7.720
 2871DOPG   GL156307  21.300  24.800   7.920
 2871DOPG   GL256308  21.320  25.160   7.800
 2871DOPG   C1A56309  21.400  24.830   8.350
 2871DOPG   D2A56310  21.310  24.450   8.700
 2871DOPG   C3A56311  21.040  24.250   8.880
 2871DOPG   C4A56312  21.030  24.080   9.270
 2871DOPG   C1B56313  21.030  25.160   8.190
 2871DOPG   D2B56314  20.790  25.080   8.550
 2871DOPG   C3B56315  20.740  25.290   8.940
 2871DOPG   C4B56316  20.870  25.040   9.270
 2872DOPG   GL056317  15.700  18.890  19.110
 2872DOPG   PO456318  15.730  19.280  18.990
 2872DOPG   GL156319  15.750  19.370  18.560
 2872DOPG   GL256320  15.870  19.090  18.350
 2872DOPG   C1A56321  15.510  19.330  18.140
 2872DOPG   D2A56322  15.170  19.270  17.830
 2872DOPG   C3A56323  14.950  19.530  17.670
 2872DOPG   C4A56324  15.020  19.940  17.650
 2872DOPG   C1B56325  16.100  18.920  18.000
 2872DOPG   D2B56326  16.160  18.880  17.520
 2872DOPG   C3B56327  16.280  19.070  17.230
 2872DOPG   C4B56328  16.590  19.410  17.260
 2873DOPG   GL056329   9.880  20.580  10.700
 2873DOPG   PO456330   9.460  20.770  10.700
 2873DOPG   GL156331   9.160  20.590  10.920
 2873DOPG   GL256332   9.280  20.310  10.800
 2873DOPG   C1A56333   8.910  20.190  11.070
 2873DOPG   D2A56334   8.590  19.970  11.270
 2873DOPG   C3A56335   8.290  20.120  11.520
 2873DOPG   C4A56336   7.990  19.880  11.910
 2873DOPG   C1B56337   9.160  19.960  10.590
 2873DOPG   D2B56338   9.390  19.600  10.360
 2873DOPG   C3B56339   9.500  19.530   9.920
 2873DOPG   C4B56340   9.700  19.250   9.660
 2874DOPG   GL056341  15.780  29.830   4.390
 2874DOPG   PO456342  16.210  29.710   4.500
 2874DOPG   GL156343  16.330  29.420   4.670
 2874DOPG   GL256344  16.220  29.110   4.710
 2874DOPG   C1A56345  16.640  29.230   4.920
 2874DOPG   D2A56346  16.730  29.070   5.140
 2874DOPG   C3A56347  16.960  29.160   5.460
 2874DOPG   C4A56348  17.340  29.350   5.530
 2874DOPG   C1B56349  16.200  29.040   5.120
 2874DOPG   D2B56350  16.360  28.820   5.460
 2874DOPG   C3B56351  16.790  28.730   5.570
 2874DOPG   C4B56352  17.100  28.310   5.470
 2875DOPG   GL056353  10.890  22.980  12.170
 2875DOPG   PO456354  11.190  22.790  11.960
 2875DOPG   GL156355  11.570  22.540  11.870
 2875DOPG   GL256356  11.500  22.530  11.560
 2875DOPG   C1A56357  11.860  22.220  11.940
 2875DOPG   D2A56358  12.190  22.070  12.090
 2875DOPG   C3A56359  12.230  21.680  12.290
 2875DOPG   C4A56360  12.050  21.610  12.740
 2875DOPG   C1B56361  11.540  22.080  11.500
 2875DOPG   D2B56362  11.800  21.870  11.600
 2875DOPG   C3B56363  11.610  21.720  11.990
 2875DOPG   C4B56364  11.370  21.640  12.390
 2876DOPG   GL056365  21.160  25.360  19.060
 2876DOPG   PO456366  20.800  25.120  18.950
 2876DOPG   GL156367  20.810  24.690  18.950
 2876DOPG   GL256368  21.060  24.610  18.880
 2876DOPG   C1A56369  20.400  24.450  18.770
 2876DOPG   D2A56370  20.100  24.220  18.940
 2876DOPG   C3A56371  19.590  24.430  18.900
 2876DOPG   C4A56372  19.330  24.420  18.580
 2876DOPG   C1B56373  21.100  24.500  18.500
 2876DOPG   D2B56374  20.930  24.340  18.140
 2876DOPG   C3B56375  21.190  23.980  18.040
 2876DOPG   C4B56376  20.960  23.610  17.910
 2877DOPG   GL056377  14.590  14.220   2.160
 2877DOPG   PO456378  14.160  14.390   1.950
 2877DOPG   GL156379  14.190  14.670   2.300
 2877DOPG   GL256380  13.980  14.860   2.470
 2877DOPG   C1A56381  14.650  14.810   2.650
 2877DOPG   D2A56382  14.450  15.010   3.110
 2877DOPG   C3A56383  14.670  15.120   3.540
 2877DOPG   C4A56384  14.640  15.080   4.000
 2877DOPG   C1B56385  13.900  14.990   2.940
 2877DOPG   D2B56386  13.890  15.110   3.340
 2877DOPG   C3B56387  14.190  15.180   3.740
 2877DOPG   C4B56388  14.150  15.030   4.100
 2878DOPG   GL056389  22.460  27.920  11.290
 2878DOPG   PO456390  22.120  28.140  11.030
 2878DOPG   GL156391  21.910  27.790  11.070
 2878DOPG   GL256392  21.690  27.920  11.080
 2878DOPG   C1A56393  21.890  27.420  11.180
 2878DOPG   D2A56394  21.800  27.090  11.390
 2878DOPG   C3A56395  21.540  27.080  11.680
 2878DOPG   C4A56396  21.500  26.820  12.060
 2878DOPG   C1B56397  21.360  27.650  10.980
 2878DOPG   D2B56398  21.100  27.410  11.180
 2878DOPG   C3B56399  20.700  27.590  11.370
 2878DOPG   C4B56400  20.570  27.920  11.600
 2879DOPG   GL056401  13.670  12.110  13.850
 2879DOPG   PO456402  13.680  11.720  13.560
 2879DOPG   GL156403  13.610  11.350  13.450
 2879DOPG   GL256404  13.830  11.150  13.110
 2879DOPG   C1A56405  13.690  10.890  13.610
 2879DOPG   D2A56406  13.680  10.490  13.530
 2879DOPG   C3A56407  13.400  10.220  13.700
 2879DOPG   C4A56408  13.310   9.710  13.750
 2879DOPG   C1B56409  13.770  10.790  13.020
 2879DOPG   D2B56410  13.730  10.490  12.660
 2879DOPG   C3B56411  13.570  10.010  12.730
 2879DOPG   C4B56412  13.390   9.590  12.840
 2880DOPG   GL056413  18.540  16.750   8.360
 2880DOPG   PO456414  18.900  16.580   8.280
 2880DOPG   GL156415  18.950  16.920   8.600
 2880DOPG   GL256416  19.170  17.140   8.540
 2880DOPG   C1A56417  18.800  17.330   8.810
 2880DOPG   D2A56418  18.990  17.690   8.660
 2880DOPG   C3A56419  18.790  18.040   8.510
 2880DOPG   C4A56420  18.390  18.230   8.310
 2880DOPG   C1B56421  19.450  17.480   8.620
 2880DOPG   D2B56422  19.560  17.730   9.000
 2880DOPG   C3B56423  19.530  18.180   9.000
 2880DOPG   C4B56424  19.430  18.480   9.260
 2881DOPG   GL056425  18.320  19.170  19.430
 2881DOPG   PO456426  17.830  19.140  19.260
 2881DOPG   GL156427  17.810  18.970  18.910
 2881DOPG   GL256428  17.560  18.890  18.820
 2881DOPG   C1A56429  17.920  19.340  18.610
 2881DOPG   D2A56430  18.090  19.520  18.250
 2881DOPG   C3A56431  17.820  19.680  17.910
 2881DOPG   C4A56432  17.820  20.040  17.700
 2881DOPG   C1B56433  17.390  18.540  18.550
 2881DOPG   D2B56434  17.050  18.240  18.390
 2881DOPG   C3B56435  16.930  18.420  18.020
 2881DOPG   C4B56436  16.710  18.720  17.680
 2882DOPG   GL056437  12.150  28.400  20.100
 2882DOPG   PO456438  12.080  28.570  20.410
 2882DOPG   GL156439  12.530  28.490  20.430
 2882DOPG   GL256440  12.580  28.100  20.160
 2882DOPG   C1A56441  12.950  28.760  20.280
 2882DOPG   D2A56442  13.330  28.880  19.950
 2882DOPG   C3A56443  13.720  28.810  20.030
 2882DOPG   C4A56444  13.950  29.120  20.360
 2882DOPG   C1B56445  12.430  27.940  19.860
 2882DOPG   D2B56446  12.300  27.620  19.810
 2882DOPG   C3B56447  12.470  27.290  19.570
 2882DOPG   C4B56448  12.660  27.300  19.240
 2883DOPG   GL056449  10.000  27.860   5.630
 2883DOPG   PO456450  10.300  27.470   5.610
 2883DOPG   GL156451  10.510  27.360   5.940
 2883DOPG   GL256452  10.410  27.370   6.280
 2883DOPG   C1A56453  10.830  27.180   6.110
 2883DOPG   D2A56454  11.060  26.770   6.150
 2883DOPG   C3A56455  11.280  26.500   6.360
 2883DOPG   C4A56456  11.460  26.100   6.540
 2883DOPG   C1B56457  10.780  27.600   6.300
 2883DOPG   D2B56458  11.110  27.800   6.550
 2883DOPG   C3B56459  11.380  27.620   6.870
 2883DOPG   C4B56460  11.540  27.140   7.110
 2884DOPG   GL056461  21.260  19.870   8.020
 2884DOPG   PO456462  21.150  20.170   7.710
 2884DOPG   GL156463  20.900  20.210   8.050
 2884DOPG   GL256464  20.960  20.530   8.060
 2884DOPG   C1A56465  20.690  20.150   8.380
 2884DOPG   D2A56466  20.640  20.040   8.810
 2884DOPG   C3A56467  20.530  19.600   8.750
 2884DOPG   C4A56468  20.000  19.460   8.670
 2884DOPG   C1B56469  20.420  20.430   8.110
 2884DOPG   D2B56470  20.180  20.580   8.340
 2884DOPG   C3B56471  20.210  21.000   8.660
 2884DOPG   C4B56472  20.240  21.170   9.110
 2885DOPG   GL056473  20.560  29.290  13.160
 2885DOPG   PO456474  20.140  29.080  13.210
 2885DOPG   GL156475  20.320  28.710  13.050
 2885DOPG   GL256476  20.360  28.590  12.770
 2885DOPG   C1A56477  20.610  28.450  13.170
 2885DOPG   D2A56478  20.850  28.300  13.470
 2885DOPG   C3A56479  21.200  28.080  13.310
 2885DOPG   C4A56480  21.310  27.750  13.170
 2885DOPG   C1B56481  20.620  28.230  12.680
 2885DOPG   D2B56482  20.570  27.960  12.200
 2885DOPG   C3B56483  20.180  27.970  11.960
 2885DOPG   C4B56484  19.690  28.150  11.770
 2886DOPG   GL056485  18.600  28.920  12.370
 2886DOPG   PO456486  18.870  29.160  12.230
 2886DOPG   GL156487  19.070  28.740  12.330
 2886DOPG   GL256488  18.840  28.480  12.360
 2886DOPG   C1A56489  19.330  28.450  12.390
 2886DOPG   D2A56490  19.330  28.060  12.380
 2886DOPG   C3A56491  19.220  27.980  11.920
 2886DOPG   C4A56492  19.200  27.520  11.710
 2886DOPG   C1B56493  19.020  28.260  12.790
 2886DOPG   D2B56494  19.220  27.890  12.960
 2886DOPG   C3B56495  19.300  27.430  12.920
 2886DOPG   C4B56496  19.290  26.990  12.770
 2887DOPG   GL056497  13.710  13.260  11.540
 2887DOPG   PO456498  13.350  13.110  11.340
 2887DOPG   GL156499  13.030  13.330  11.220
 2887DOPG   GL256500  13.230  13.560  10.960
 2887DOPG   C1A56501  12.670  13.490  11.390
 2887DOPG   D2A56502  12.420  13.590  10.830
 2887DOPG   C3A56503  12.280  14.010  10.770
 2887DOPG   C4A56504  12.700  14.320  10.670
 2887DOPG   C1B56505  12.870  13.480  10.650
 2887DOPG   D2B56506  12.720  13.800  10.410
 2887DOPG   C3B56507  12.550  13.670  10.090
 2887DOPG   C4B56508  12.220  13.570   9.870
 2888DOPG   GL056509  15.030  24.840   8.390
 2888DOPG   PO456510  14.710  25.100   8.640
 2888DOPG   GL156511  14.640  25.120   9.080
 2888DOPG   GL256512  15.010  25.130   9.130
 2888DOPG   C1A56513  14.750  24.850   9.480
 2888DOPG   D2A56514  15.160  24.750   9.680
 2888DOPG   C3A56515  15.430  25.090   9.540
 2888DOPG   C4A56516  15.360  25.520   9.530
 2888DOPG   C1B56517  15.180  24.820   9.170
 2888DOPG   D2B56518  15.490  24.600   9.360
 2888DOPG   C3B56519  15.910  24.340   9.420
 2888DOPG   C4B56520  16.190  24.060   9.660
 2889DOPG   GL056521  12.880  17.840   6.400
 2889DOPG   PO456522  12.980  17.650   6.030
 2889DOPG   GL156523  12.820  17.270   5.770
 2889DOPG   GL256524  12.960  17.080   5.850
 2889DOPG   C1A56525  12.470  17.120   5.580
 2889DOPG   D2A56526  12.420  16.740   5.510
 2889DOPG   C3A56527  12.080  16.510   5.530
 2889DOPG   C4A56528  11.750  16.290   5.660
 2889DOPG   C1B56529  12.740  16.710   5.960
 2889DOPG   D2B56530  12.650  16.270   5.830
 2889DOPG   C3B56531  12.490  16.000   5.470
 2889DOPG   C4B56532  12.420  15.580   5.230
 2890DOPG   GL056533  11.860  20.360   9.070
 2890DOPG   PO456534  12.110  20.660   9.430
 2890DOPG   GL156535  12.510  20.360   9.620
 2890DOPG   GL256536  12.740  20.260   9.400
 2890DOPG   C1A56537  12.690  20.220   9.880
 2890DOPG   D2A56538  12.530  20.030  10.260
 2890DOPG   C3A56539  12.090  19.980  10.470
 2890DOPG   C4A56540  12.080  19.780  10.900
 2890DOPG   C1B56541  12.980  20.550   9.680
 2890DOPG   D2B56542  13.350  20.590   9.900
 2890DOPG   C3B56543  13.720  20.340   9.800
 2890DOPG   C4B56544  14.150  20.260  10.070
 2891DOPG   GL056545  10.190  20.780  12.980
 2891DOPG   PO456546  10.040  21.050  12.700
 2891DOPG   GL156547   9.920  20.670  12.470
 2891DOPG   GL256548  10.250  20.570  12.430
 2891DOPG   C1A56549   9.890  20.270  12.360
 2891DOPG   D2A56550   9.550  20.070  12.180
 2891DOPG   C3A56551   9.350  19.690  11.960
 2891DOPG   C4A56552   9.540  19.530  11.540
 2891DOPG   C1B56553  10.550  20.440  12.730
 2891DOPG   D2B56554  10.840  20.150  12.840
 2891DOPG   C3B56555  10.700  19.950  13.130
 2891DOPG   C4B56556  10.420  19.610  13.260
 2892DOPG   GL056557  11.520  23.130  11.670
 2892DOPG   PO456558  11.480  23.110  11.160
 2892DOPG   GL156559  11.940  23.100  11.340
 2892DOPG   GL256560  11.930  22.810  11.560
 2892DOPG   C1A56561  12.390  22.950  11.730
 2892DOPG   D2A56562  12.860  22.900  11.820
 2892DOPG   C3A56563  13.290  22.710  11.870
 2892DOPG   C4A56564  13.740  22.790  11.750
 2892DOPG   C1B56565  12.220  22.520  11.740
 2892DOPG   D2B56566  12.570  22.190  11.750
 2892DOPG   C3B56567  12.690  22.050  12.300
 2892DOPG   C4B56568  12.560  21.800  12.730
 2893DOPG   GL056569  11.000  16.190  18.580
 2893DOPG   PO456570  10.830  16.440  18.780
 2893DOPG   GL156571  10.640  16.350  19.180
 2893DOPG   GL256572  10.760  16.030  19.250
 2893DOPG   C1A56573  10.290  16.100  19.210
 2893DOPG   D2A56574  10.080  15.850  19.450
 2893DOPG   C3A56575  10.220  15.410  19.470
 2893DOPG   C4A56576  10.370  15.080  19.510
 2893DOPG   C1B56577  10.660  15.690  19.520
 2893DOPG   D2B56578  10.380  15.700  19.890
 2893DOPG   C3B56579  10.320  15.190  20.020
 2893DOPG   C4B56580  10.090  14.840  19.850
 2894DOPG   GL056581  25.470  24.440  16.910
 2894DOPG   PO456582  25.650  24.390  16.590
 2894DOPG   GL156583  26.040  24.470  16.920
 2894DOPG   GL256584  26.140  24.200  17.060
 2894DOPG   C1A56585  26.280  24.740  17.190
 2894DOPG   D2A56586  26.640  24.910  17.400
 2894DOPG   C3A56587  27.090  24.700  17.350
 2894DOPG   C4A56588  27.080  24.250  17.320
 2894DOPG   C1B56589  26.120  24.280  17.480
 2894DOPG   D2B56590  26.250  24.210  17.960
 2894DOPG   C3B56591  26.640  24.400  18.130
 2894DOPG   C4B56592  26.810  24.630  18.470
 2895DOPG   GL056593   9.900  18.440  16.210
 2895DOPG   PO456594   9.770  17.990  16.270
 2895DOPG   GL156595   9.320  17.840  16.320
 2895DOPG   GL256596   9.270  17.850  16.000
 2895DOPG   C1A56597   8.970  17.610  16.380
 2895DOPG   D2A56598   8.690  17.300  16.430
 2895DOPG   C3A56599   8.520  16.850  16.270
 2895DOPG   C4A56600   8.390  16.570  15.840
 2895DOPG   C1B56601   8.870  17.720  15.800
 2895DOPG   D2B56602   8.520  17.920  15.550
 2895DOPG   C3B56603   8.420  18.320  15.330
 2895DOPG   C4B56604   8.320  18.720  15.300
 2896DOPG   GL056605  19.040  11.270   4.610
 2896DOPG   PO456606  19.000  11.460   5.070
 2896DOPG   GL156607  18.880  11.640   5.340
 2896DOPG   GL256608  19.160  11.800   5.430
 2896DOPG   C1A56609  18.520  11.700   5.680
 2896DOPG   D2A56610  18.460  12.060   5.900
 2896DOPG   C3A56611  18.300  11.990   6.240
 2896DOPG   C4A56612  18.250  11.580   6.490
 2896DOPG   C1B56613  19.030  12.120   5.420
 2896DOPG   D2B56614  18.890  12.290   5.810
 2896DOPG   C3B56615  19.190  12.520   5.950
 2896DOPG   C4B56616  19.510  12.480   6.270
 2897DOPG   GL056617  24.920  26.030  12.260
 2897DOPG   PO456618  24.500  26.180  12.200
 2897DOPG   GL156619  24.140  26.170  12.380
 2897DOPG   GL256620  24.130  25.980  12.500
 2897DOPG   C1A56621  23.720  26.140  12.440
 2897DOPG   D2A56622  23.410  26.070  12.770
 2897DOPG   C3A56623  23.500  26.390  12.990
 2897DOPG   C4A56624  23.780  26.640  13.100
 2897DOPG   C1B56625  23.890  25.590  12.280
 2897DOPG   D2B56626  23.630  25.250  12.310
 2897DOPG   C3B56627  23.300  25.010  12.330
 2897DOPG   C4B56628  23.120  25.120  11.920
 2898DOPG   GL056629  15.260  23.440   1.220
 2898DOPG   PO456630  14.940  23.210   1.320
 2898DOPG   GL156631  15.220  23.030   1.590
 2898DOPG   GL256632  15.260  22.710   1.570
 2898DOPG   C1A56633  15.410  23.020   1.950
 2898DOPG   D2A56634  15.700  23.140   2.210
 2898DOPG   C3A56635  15.940  22.770   2.160
 2898DOPG   C4A56636  16.040  22.730   1.780
 2898DOPG   C1B56637  15.210  22.290   1.770
 2898DOPG   D2B56638  14.960  22.110   2.000
 2898DOPG   C3B56639  14.840  22.260   2.410
 2898DOPG   C4B56640  15.190  22.410   2.740
 2899DOPG   GL056641  14.970  24.880   7.880
 2899DOPG   PO456642  15.290  24.740   7.630
 2899DOPG   GL156643  15.480  24.750   8.110
 2899DOPG   GL256644  15.720  24.980   8.170
 2899DOPG   C1A56645  15.480  24.440   8.360
 2899DOPG   D2A56646  15.520  24.070   8.600
 2899DOPG   C3A56647  15.910  23.810   8.780
 2899DOPG   C4A56648  16.080  23.950   9.170
 2899DOPG   C1B56649  16.010  24.590   8.390
 2899DOPG   D2B56650  16.140  24.270   8.580
 2899DOPG   C3B56651  16.240  24.400   9.060
 2899DOPG   C4B56652  16.320  24.690   9.310
 2900DOPG   GL056653  23.080  26.120   9.880
 2900DOPG   PO456654  23.110  26.230  10.270
 2900DOPG   GL156655  22.810  26.230  10.640
 2900DOPG   GL256656  22.920  26.350  10.880
 2900DOPG   C1A56657  22.580  25.990  10.960
 2900DOPG   D2A56658  22.270  25.760  11.150
 2900DOPG   C3A56659  22.040  25.480  11.010
 2900DOPG   C4A56660  22.040  25.130  10.700
 2900DOPG   C1B56661  23.060  25.990  11.120
 2900DOPG   D2B56662  23.020  25.960  11.610
 2900DOPG   C3B56663  22.860  25.580  11.780
 2900DOPG   C4B56664  22.690  25.350  11.920
 2901DOPG   GL056665   9.000  19.230  16.530
 2901DOPG   PO456666   9.310  18.840  16.540
 2901DOPG   GL156667   8.930  18.740  16.600
 2901DOPG   GL256668   8.900  18.500  16.840
 2901DOPG   C1A56669   8.490  18.690  16.660
 2901DOPG   D2A56670   8.240  18.480  16.410
 2901DOPG   C3A56671   7.820  18.360  16.220
 2901DOPG   C4A56672   7.510  18.420  15.840
 2901DOPG   C1B56673   8.730  18.280  17.180
 2901DOPG   D2B56674   8.340  18.130  17.350
 2901DOPG   C3B56675   8.010  17.900  17.170
 2901DOPG   C4B56676   7.550  17.920  16.900
 2902DOPG   GL056677  13.600  12.300  14.680
 2902DOPG   PO456678  13.510  12.070  15.010
 2902DOPG   GL156679  13.260  11.930  15.390
 2902DOPG   GL256680  13.190  11.640  15.210
 2902DOPG   C1A56681  12.930  11.750  15.560
 2902DOPG   D2A56682  12.890  11.580  15.980
 2902DOPG   C3A56683  12.700  11.210  15.960
 2902DOPG   C4A56684  12.200  11.140  15.870
 2902DOPG   C1B56685  12.990  11.210  15.290
 2902DOPG   D2B56686  12.950  10.820  15.430
 2902DOPG   C3B56687  13.070  10.530  15.290
 2902DOPG   C4B56688  13.320  10.290  15.340
 2903DOPG   GL056689  24.070  18.880  14.770
 2903DOPG   PO456690  23.740  18.730  14.760
 2903DOPG   GL156691  23.490  18.960  14.740
 2903DOPG   GL256692  23.390  18.940  14.360
 2903DOPG   C1A56693  23.050  19.160  14.700
 2903DOPG   D2A56694  22.820  19.540  14.710
 2903DOPG   C3A56695  22.950  19.850  14.880
 2903DOPG   C4A56696  23.020  20.170  15.050
 2903DOPG   C1B56697  22.980  18.910  14.190
 2903DOPG   D2B56698  22.620  18.800  14.340
 2903DOPG   C3B56699  22.530  18.970  14.850
 2903DOPG   C4B56700  22.640  19.310  15.180
 2904DOPG   GL056701  18.070  19.560   6.210
 2904DOPG   PO456702  18.370  19.470   6.570
 2904DOPG   GL156703  18.570  19.670   6.940
 2904DOPG   GL256704  18.840  19.800   6.820
 2904DOPG   C1A56705  18.630  19.660   7.460
 2904DOPG   D2A56706  18.600  19.470   7.810
 2904DOPG   C3A56707  18.610  19.700   8.200
 2904DOPG   C4A56708  18.480  19.780   8.520
 2904DOPG   C1B56709  19.240  19.890   7.010
 2904DOPG   D2B56710  19.600  19.780   7.330
 2904DOPG   C3B56711  19.750  19.990   7.700
 2904DOPG   C4B56712  19.960  20.200   8.110
 2905DOPG   GL056713  17.750  14.630  16.130
 2905DOPG   PO456714  18.060  14.830  16.000
 2905DOPG   GL156715  18.060  15.200  16.060
 2905DOPG   GL256716  17.640  15.220  15.940
 2905DOPG   C1A56717  18.130  15.650  15.900
 2905DOPG   D2A56718  18.190  16.090  15.980
 2905DOPG   C3A56719  17.890  16.390  15.800
 2905DOPG   C4A56720  17.450  16.510  15.980
 2905DOPG   C1B56721  17.780  15.470  15.610
 2905DOPG   D2B56722  17.510  15.780  15.460
 2905DOPG   C3B56723  17.150  15.700  15.360
 2905DOPG   C4B56724  16.900  15.310  15.270
 2906DOPG   GL056725  14.340  14.600  15.140
 2906DOPG   PO456726  14.000  14.700  15.530
 2906DOPG   GL156727  13.950  15.090  15.310
 2906DOPG   GL256728  13.540  15.050  15.210
 2906DOPG   C1A56729  14.080  15.400  15.070
 2906DOPG   D2A56730  14.160  15.640  15.290
 2906DOPG   C3A56731  14.380  15.940  15.000
 2906DOPG   C4A56732  14.180  16.340  14.760
 2906DOPG   C1B56733  13.680  15.190  14.740
 2906DOPG   D2B56734  13.670  15.550  14.470
 2906DOPG   C3B56735  13.950  15.920  14.760
 2906DOPG   C4B56736  13.980  16.130  15.250
 2907DOPG   GL056737  13.040  27.400   3.490
 2907DOPG   PO456738  13.310  27.430   3.940
 2907DOPG   GL156739  13.360  27.100   4.290
 2907DOPG   GL256740  13.330  26.860   4.200
 2907DOPG   C1A56741  13.490  27.150   4.690
 2907DOPG   D2A56742  13.800  26.940   4.880
 2907DOPG   C3A56743  13.800  26.620   5.230
 2907DOPG   C4A56744  13.740  26.440   5.550
 2907DOPG   C1B56745  13.480  26.580   4.560
 2907DOPG   D2B56746  13.900  26.360   4.610
 2907DOPG   C3B56747  14.220  26.180   4.930
 2907DOPG   C4B56748  14.250  25.880   5.210
 2908DOPG   GL056749   7.590  16.700   8.480
 2908DOPG   PO456750   8.070  16.660   8.440
 2908DOPG   GL156751   8.300  16.780   8.840
 2908DOPG   GL256752   8.240  17.080   8.740
 2908DOPG   C1A56753   8.670  17.110   8.960
 2908DOPG   D2A56754   8.630  17.590   9.130
 2908DOPG   C3A56755   8.420  17.760   9.500
 2908DOPG   C4A56756   8.180  17.890   9.770
 2908DOPG   C1B56757   8.340  17.570   8.770
 2908DOPG   D2B56758   8.260  17.960   9.040
 2908DOPG   C3B56759   8.260  18.290   8.810
 2908DOPG   C4B56760   8.240  18.510   8.480
 2909DOPG   GL056761  21.950  28.020  16.360
 2909DOPG   PO456762  22.060  27.480  16.460
 2909DOPG   GL156763  22.030  27.040  16.230
 2909DOPG   GL256764  22.240  26.890  16.390
 2909DOPG   C1A56765  21.800  26.660  16.110
 2909DOPG   D2A56766  21.400  26.300  16.130
 2909DOPG   C3A56767  21.380  25.820  16.210
 2909DOPG   C4A56768  21.070  25.560  16.400
 2909DOPG   C1B56769  22.460  26.770  15.960
 2909DOPG   D2B56770  22.610  26.830  15.590
 2909DOPG   C3B56771  22.660  26.480  15.350
 2909DOPG   C4B56772  22.360  26.210  15.100
 2910DOPG   GL056773  22.450  25.050  18.300
 2910DOPG   PO456774  22.720  25.390  18.190
 2910DOPG   GL156775  22.420  25.430  17.960
 2910DOPG   GL256776  22.120  25.330  18.070
 2910DOPG   C1A56777  22.360  25.320  17.490
 2910DOPG   D2A56778  22.450  24.880  17.290
 2910DOPG   C3A56779  22.410  24.870  16.800
 2910DOPG   C4A56780  22.310  24.970  16.380
 2910DOPG   C1B56781  21.810  25.190  17.760
 2910DOPG   D2B56782  21.570  24.900  17.490
 2910DOPG   C3B56783  21.250  24.940  17.250
 2910DOPG   C4B56784  20.970  24.850  16.960
 2911DOPG   GL056785  18.550  27.880   8.950
 2911DOPG   PO456786  18.420  27.810   9.380
 2911DOPG   GL156787  18.600  27.570   9.670
 2911DOPG   GL256788  18.840  27.280   9.670
 2911DOPG   C1A56789  18.480  27.640  10.080
 2911DOPG   D2A56790  18.670  27.560  10.490
 2911DOPG   C3A56791  18.540  27.340  10.960
 2911DOPG   C4A56792  18.490  26.950  11.260
 2911DOPG   C1B56793  18.600  27.120   9.880
 2911DOPG   D2B56794  18.240  26.800  10.000
 2911DOPG   C3B56795  18.130  26.430   9.840
 2911DOPG   C4B56796  18.190  25.950   9.880
 2912DOPG   GL056797  25.130  20.560  12.710
 2912DOPG   PO456798  24.850  20.500  13.030
 2912DOPG   GL156799  24.400  20.620  13.210
 2912DOPG   GL256800  24.190  20.530  13.540
 2912DOPG   C1A56801  24.030  20.910  13.190
 2912DOPG   D2A56802  23.700  21.140  13.010
 2912DOPG   C3A56803  23.510  20.960  12.730
 2912DOPG   C4A56804  23.300  21.190  12.420
 2912DOPG   C1B56805  23.800  20.530  13.640
 2912DOPG   D2B56806  23.500  20.910  13.480
 2912DOPG   C3B56807  23.170  21.250  13.670
 2912DOPG   C4B56808  22.920  21.470  13.970
 2913DOPG   GL056809  20.660  24.070   7.160
 2913DOPG   PO456810  20.230  23.820   7.030
 2913DOPG   GL156811  20.260  23.860   7.430
 2913DOPG   GL256812  20.610  23.610   7.560
 2913DOPG   C1A56813  20.430  23.990   7.810
 2913DOPG   D2A56814  20.460  24.230   8.100
 2913DOPG   C3A56815  20.630  24.000   8.370
 2913DOPG   C4A56816  20.880  23.780   8.600
 2913DOPG   C1B56817  20.280  23.440   7.930
 2913DOPG   D2B56818  20.130  23.490   8.370
 2913DOPG   C3B56819  20.220  23.860   8.680
 2913DOPG   C4B56820  20.120  24.000   9.100
 2914DOPG   GL056821  15.380  13.820  13.150
 2914DOPG   PO456822  15.240  13.810  12.780
 2914DOPG   GL156823  15.270  14.230  12.810
 2914DOPG   GL256824  15.460  14.360  12.970
 2914DOPG   C1A56825  14.950  14.620  12.530
 2914DOPG   D2A56826  14.640  14.870  12.640
 2914DOPG   C3A56827  14.440  14.770  13.050
 2914DOPG   C4A56828  14.150  14.650  13.420
 2914DOPG   C1B56829  15.820  14.650  13.190
 2914DOPG   D2B56830  16.210  14.820  13.180
 2914DOPG   C3B56831  16.580  14.680  13.010
 2914DOPG   C4B56832  17.040  14.710  13.310
 2915DOPG   GL056833   8.360  24.580   5.870
 2915DOPG   PO456834   8.180  24.140   5.760
 2915DOPG   GL156835   8.290  24.080   6.140
 2915DOPG   GL256836   8.030  24.070   6.390
 2915DOPG   C1A56837   8.680  23.760   6.240
 2915DOPG   D2A56838   8.990  23.440   6.490
 2915DOPG   C3A56839   9.450  23.390   6.440
 2915DOPG   C4A56840   9.830  23.190   6.510
 2915DOPG   C1B56841   8.310  23.830   6.680
 2915DOPG   D2B56842   8.480  23.530   6.840
 2915DOPG   C3B56843   8.330  23.420   7.180
 2915DOPG   C4B56844   7.960  23.510   7.340
 2916DOPG   GL056845  13.030  22.760  17.840
 2916DOPG   PO456846  13.110  22.670  17.470
 2916DOPG   GL156847  13.340  22.420  17.320
 2916DOPG   GL256848  13.180  22.290  17.030
 2916DOPG   C1A56849  13.690  22.300  17.160
 2916DOPG   D2A56850  14.140  22.180  17.030
 2916DOPG   C3A56851  14.200  21.950  16.690
 2916DOPG   C4A56852  14.190  21.600  16.430
 2916DOPG   C1B56853  13.360  22.520  16.800
 2916DOPG   D2B56854  13.360  22.720  16.410
 2916DOPG   C3B56855  13.610  22.610  16.060
 2916DOPG   C4B56856  13.990  22.420  16.130
 2917DOPG   GL056857  18.740  29.010  13.630
 2917DOPG   PO456858  18.900  28.670  13.800
 2917DOPG   GL156859  19.170  28.350  13.690
 2917DOPG   GL256860  19.020  28.100  13.580
 2917DOPG   C1A56861  19.470  27.950  13.730
 2917DOPG   D2A56862  19.620  27.610  13.950
 2917DOPG   C3A56863  19.700  27.240  14.330
 2917DOPG   C4A56864  19.830  27.120  14.730
 2917DOPG   C1B56865  19.140  27.680  13.410
 2917DOPG   D2B56866  19.370  27.400  13.570
 2917DOPG   C3B56867  19.670  27.160  13.290
 2917DOPG   C4B56868  19.950  26.880  13.240
 2918DOPG   GL056869  10.480  22.140  11.430
 2918DOPG   PO456870  10.700  21.890  11.240
 2918DOPG   GL156871  10.980  21.950  11.680
 2918DOPG   GL256872  11.180  21.760  11.630
 2918DOPG   C1A56873  11.230  22.150  12.010
 2918DOPG   D2A56874  11.510  22.150  12.300
 2918DOPG   C3A56875  11.820  21.910  12.410
 2918DOPG   C4A56876  11.830  21.380  12.310
 2918DOPG   C1B56877  11.380  21.450  11.710
 2918DOPG   D2B56878  11.810  21.280  11.750
 2918DOPG   C3B56879  12.140  21.590  11.790
 2918DOPG   C4B56880  12.540  21.670  11.780
 2919DOPG   GL056881   6.710  25.120   7.450
 2919DOPG   PO456882   7.000  24.770   7.660
 2919DOPG   GL156883   7.010  24.590   8.020
 2919DOPG   GL256884   6.860  24.730   8.240
 2919DOPG   C1A56885   7.460  24.390   8.160
 2919DOPG   D2A56886   7.750  24.080   8.070
 2919DOPG   C3A56887   8.160  23.950   8.200
 2919DOPG   C4A56888   8.290  23.940   8.620
 2919DOPG   C1B56889   7.170  24.710   8.580
 2919DOPG   D2B56890   7.360  24.240   8.740
 2919DOPG   C3B56891   7.740  24.020   8.600
 2919DOPG   C4B56892   7.740  23.660   8.320
 2920DOPG   GL056893  24.270  19.850  16.090
 2920DOPG   PO456894  24.000  19.460  16.400
 2920DOPG   GL156895  24.090  19.360  15.970
 2920DOPG   GL256896  23.800  19.360  15.820
 2920DOPG   C1A56897  24.100  19.780  15.650
 2920DOPG   D2A56898  23.890  20.140  15.390
 2920DOPG   C3A56899  23.590  20.400  15.590
 2920DOPG   C4A56900  23.330  20.640  15.960
 2920DOPG   C1B56901  23.560  19.830  15.810
 2920DOPG   D2B56902  23.370  19.960  15.420
 2920DOPG   C3B56903  23.430  19.710  14.980
 2920DOPG   C4B56904  23.410  19.500  14.580
 2921DOPG   GL056905   6.990  17.470  12.940
 2921DOPG   PO456906   6.860  17.220  13.290
 2921DOPG   GL156907   7.140  17.550  13.390
 2921DOPG   GL256908   7.060  17.840  13.270
 2921DOPG   C1A56909   7.520  17.900  13.480
 2921DOPG   D2A56910   7.910  18.070  13.370
 2921DOPG   C3A56911   8.120  18.380  13.310
 2921DOPG   C4A56912   8.510  18.600  13.190
 2921DOPG   C1B56913   7.130  18.350  13.460
 2921DOPG   D2B56914   7.160  18.630  13.560
 2921DOPG   C3B56915   7.560  19.030  13.460
 2921DOPG   C4B56916   7.950  19.050  13.350
 2922DOPG   GL056917  20.470  15.240   8.800
 2922DOPG   PO456918  20.260  15.360   8.460
 2922DOPG   GL156919  20.520  15.370   8.180
 2922DOPG   GL256920  20.310  15.160   7.870
 2922DOPG   C1A56921  20.950  15.100   8.010
 2922DOPG   D2A56922  21.320  15.000   7.990
 2922DOPG   C3A56923  21.370  14.500   8.020
 2922DOPG   C4A56924  21.810  14.290   8.070
 2922DOPG   C1B56925  20.590  14.900   7.650
 2922DOPG   D2B56926  20.630  14.570   7.360
 2922DOPG   C3B56927  20.910  14.300   7.340
 2922DOPG   C4B56928  20.860  13.920   7.190
 2923DOPG   GL056929  25.410  20.500  12.300
 2923DOPG   PO456930  25.530  20.630  11.910
 2923DOPG   GL156931  25.910  20.480  11.910
 2923DOPG   GL256932  26.260  20.670  11.910
 2923DOPG   C1A56933  26.140  20.180  11.710
 2923DOPG   D2A56934  26.400  19.900  11.590
 2923DOPG   C3A56935  26.590  19.830  11.290
 2923DOPG   C4A56936  26.980  19.690  11.160
 2923DOPG   C1B56937  26.560  20.770  11.640
 2923DOPG   D2B56938  26.640  20.920  11.220
 2923DOPG   C3B56939  27.020  20.940  11.040
 2923DOPG   C4B56940  27.410  21.020  10.750
 2924DOPG   GL056941  17.030  26.470   8.470
 2924DOPG   PO456942  16.880  26.190   8.080
 2924DOPG   GL156943  17.070  25.910   8.470
 2924DOPG   GL256944  17.060  26.110   8.820
 2924DOPG   C1A56945  17.120  25.640   8.880
 2924DOPG   D2A56946  16.900  25.810   9.250
 2924DOPG   C3A56947  17.070  25.490   9.570
 2924DOPG   C4A56948  17.110  25.360   9.970
 2924DOPG   C1B56949  17.500  26.030   8.810
 2924DOPG   D2B56950  17.710  26.070   9.190
 2924DOPG   C3B56951  17.600  26.130   9.670
 2924DOPG   C4B56952  17.710  26.130  10.050
 2925DOPG   GL056953  14.080  17.710   8.120
 2925DOPG   PO456954  14.300  17.230   8.270
 2925DOPG   GL156955  14.620  17.310   8.600
 2925DOPG   GL256956  14.620  16.920   8.840
 2925DOPG   C1A56957  14.650  17.480   9.060
 2925DOPG   D2A56958  14.800  17.610   9.430
 2925DOPG   C3A56959  14.560  17.630   9.770
 2925DOPG   C4A56960  14.450  17.900  10.060
 2925DOPG   C1B56961  14.720  16.920   9.290
 2925DOPG   D2B56962  15.010  16.740   9.580
 2925DOPG   C3B56963  14.700  16.680   9.990
 2925DOPG   C4B56964  14.580  16.700  10.370
 2926DOPG   GL056965   8.850  17.590  11.140
 2926DOPG   PO456966   8.700  17.530  11.510
 2926DOPG   GL156967   9.030  17.680  11.740
 2926DOPG   GL256968   9.030  18.050  11.530
 2926DOPG   C1A56969   9.160  17.980  12.070
 2926DOPG   D2A56970   9.370  18.020  12.370
 2926DOPG   C3A56971   9.480  18.420  12.570
 2926DOPG   C4A56972   9.530  18.620  12.990
 2926DOPG   C1B56973   9.450  18.140  11.650
 2926DOPG   D2B56974   9.820  18.330  11.730
 2926DOPG   C3B56975  10.190  18.370  11.430
 2926DOPG   C4B56976  10.220  18.280  11.160
 2927DOPG   GL056977  12.280  19.170   8.810
 2927DOPG   PO456978  12.070  19.070   8.980
 2927DOPG   GL156979  11.770  18.980   9.210
 2927DOPG   GL256980  11.530  19.270   9.310
 2927DOPG   C1A56981  11.570  18.640   9.460
 2927DOPG   D2A56982  11.320  18.280   9.590
 2927DOPG   C3A56983  10.850  18.180   9.690
 2927DOPG   C4A56984  10.500  18.360   9.990
 2927DOPG   C1B56985  11.090  19.190   9.450
 2927DOPG   D2B56986  10.650  19.130   9.570
 2927DOPG   C3B56987  10.730  18.910  10.070
 2927DOPG   C4B56988  10.820  18.600  10.350
 2928DOPG   GL056989   4.400  22.180  13.810
 2928DOPG   PO456990   4.680  22.320  13.520
 2928DOPG   GL156991   4.980  22.480  13.830
 2928DOPG   GL256992   5.150  22.740  13.570
 2928DOPG   C1A56993   5.510  22.560  13.770
 2928DOPG   D2A56994   5.920  22.620  13.560
 2928DOPG   C3A56995   6.030  23.020  13.510
 2928DOPG   C4A56996   6.130  23.370  13.220
 2928DOPG   C1B56997   5.540  22.890  13.250
 2928DOPG   D2B56998   5.750  23.080  13.010
 2928DOPG   C3B56999   5.620  23.120  12.560
 2928DOPG   C4B57000   5.200  23.270  12.380
 2929DOPG   GL057001  25.500  24.200  11.290
 2929DOPG   PO457002  25.930  24.320  11.110
 2929DOPG   GL157003  26.240  24.400  10.960
 2929DOPG   GL257004  26.250  24.350  10.670
 2929DOPG   C1A57005  26.610  24.670  10.750
 2929DOPG   D2A57006  26.870  24.720  10.390
 2929DOPG   C3A57007  27.260  24.980  10.290
 2929DOPG   C4A57008  27.480  25.200   9.910
 2929DOPG   C1B57009  26.640  24.220  10.520
 2929DOPG   D2B57010  27.130  24.290  10.420
 2929DOPG   C3B57011  27.440  23.940  10.470
 2929DOPG   C4B57012  27.670  23.520  10.490
 2930DOPG   GL057013  25.720  13.790   8.480
 2930DOPG   PO457014  25.660  13.890   8.870
 2930DOPG   GL157015  25.400  14.090   8.900
 2930DOPG   GL257016  25.280  14.330   8.710
 2930DOPG   C1A57017  25.060  14.190   9.200
 2930DOPG   D2A57018  24.830  13.930   9.320
 2930DOPG   C3A57019  24.380  13.970   9.310
 2930DOPG   C4A57020  24.020  13.990   9.530
 2930DOPG   C1B57021  24.930  14.390   8.760
 2930DOPG   D2B57022  24.620  14.450   9.190
 2930DOPG   C3B57023  24.720  14.340   9.600
 2930DOPG   C4B57024  24.600  13.990   9.910
 2931DOPG   GL057025   9.190  20.580  10.350
 2931DOPG   PO457026   9.110  21.000  10.400
 2931DOPG   GL157027   8.810  20.840  10.590
 2931DOPG   GL257028   8.600  21.070  10.540
 2931DOPG   C1A57029   8.780  20.370  10.630
 2931DOPG   D2A57030   8.770  20.060  10.330
 2931DOPG   C3A57031   8.630  20.180   9.910
 2931DOPG   C4A57032   8.800  20.330   9.440
 2931DOPG   C1B57033   8.140  21.090  10.400
 2931DOPG   D2B57034   7.720  20.880  10.470
 2931DOPG   C3B57035   7.610  20.530  10.200
 2931DOPG   C4B57036   7.370  20.130  10.370
 2932DOPG   GL057037  16.370  16.010   8.690
 2932DOPG   PO457038  16.000  15.790   8.840
 2932DOPG   GL157039  16.260  15.850   9.200
 2932DOPG   GL257040  16.610  15.930   9.210
 2932DOPG   C1A57041  16.290  16.030   9.710
 2932DOPG   D2A57042  16.670  16.250   9.920
 2932DOPG   C3A57043  16.700  16.640  10.170
 2932DOPG   C4A57044  16.750  17.110  10.240
 2932DOPG   C1B57045  16.540  16.310   9.380
 2932DOPG   D2B57046  16.280  16.560   9.790
 2932DOPG   C3B57047  16.190  16.740  10.190
 2932DOPG   C4B57048  16.290  16.530  10.550
 2933DOPG   GL057049  11.850  12.260  21.310
 2933DOPG   PO457050  12.330  12.340  21.440
 2933DOPG   GL157051  12.190  12.720  21.280
 2933DOPG   GL257052  12.450  12.750  21.010
 2933DOPG   C1A57053  11.900  13.030  21.050
 2933DOPG   D2A57054  11.800  13.470  20.960
 2933DOPG   C3A57055  11.620  13.850  20.850
 2933DOPG   C4A57056  11.480  14.080  20.500
 2933DOPG   C1B57057  12.650  12.610  20.500
 2933DOPG   D2B57058  12.680  12.580  20.000
 2933DOPG   C3B57059  12.560  12.940  19.720
 2933DOPG   C4B57060  12.420  13.350  19.650
 2934DOPG   GL057061  19.440  24.790   1.320
 2934DOPG   PO457062  19.530  24.560   1.670
 2934DOPG   GL157063  19.550  24.510   2.140
 2934DOPG   GL257064  19.350  24.300   2.260
 2934DOPG   C1A57065  19.450  24.860   2.360
 2934DOPG   D2A57066  19.550  25.300   2.360
 2934DOPG   C3A57067  19.420  25.510   2.760
 2934DOPG   C4A57068  19.210  25.810   2.770
 2934DOPG   C1B57069  19.190  23.950   2.320
 2934DOPG   D2B57070  19.230  23.700   2.680
 2934DOPG   C3B57071  19.170  23.280   2.580
 2934DOPG   C4B57072  19.110  23.130   2.130
 2935DOPG   GL057073  25.820  24.210   9.730
 2935DOPG   PO457074  25.620  23.830   9.760
 2935DOPG   GL157075  25.700  23.930   9.280
 2935DOPG   GL257076  26.060  23.770   9.310
 2935DOPG   C1A57077  25.880  24.220   9.010
 2935DOPG   D2A57078  25.970  24.460   8.820
 2935DOPG   C3A57079  26.450  24.590   8.820
 2935DOPG   C4A57080  26.610  24.860   8.520
 2935DOPG   C1B57081  26.220  23.330   9.200
 2935DOPG   D2B57082  26.590  23.320   8.980
 2935DOPG   C3B57083  26.790  23.120   8.630
 2935DOPG   C4B57084  26.950  23.040   8.210
 2936DOPG   GL057085  11.320  14.590  16.130
 2936DOPG   PO457086  10.960  14.880  16.230
 2936DOPG   GL157087  10.810  14.570  15.900
 2936DOPG   GL257088  10.690  14.920  15.720
 2936DOPG   C1A57089  10.730  14.430  15.510
 2936DOPG   D2A57090  10.550  14.100  15.260
 2936DOPG   C3A57091  10.130  14.030  15.060
 2936DOPG   C4A57092   9.720  14.210  14.880
 2936DOPG   C1B57093  10.300  14.620  15.620
 2936DOPG   D2B57094  10.020  14.420  15.890
 2936DOPG   C3B57095  10.160  14.370  16.350
 2936DOPG   C4B57096  10.140  14.300  16.830
 2937DOPG   GL057097  15.480  26.260   8.960
 2937DOPG   PO457098  15.720  26.430   8.760
 2937DOPG   GL157099  16.000  26.080   8.710
 2937DOPG   GL257100  16.170  25.800   8.580
 2937DOPG   C1A57101  15.900  25.840   9.030
 2937DOPG   D2A57102  16.040  25.690   9.340
 2937DOPG   C3A57103  15.810  25.510   9.690
 2937DOPG   C4A57104  15.830  25.190   9.990
 2937DOPG   C1B57105  15.980  25.380   8.720
 2937DOPG   D2B57106  16.150  24.960   8.910
 2937DOPG   C3B57107  15.840  24.730   9.040
 2937DOPG   C4B57108  15.780  24.280   8.900
 2938DOPG   GL057109   9.520  23.110   9.490
 2938DOPG   PO457110   9.700  22.620   9.330
 2938DOPG   GL157111   9.360  22.740   9.160
 2938DOPG   GL257112   9.100  22.660   9.390
 2938DOPG   C1A57113   9.020  23.010   8.960
 2938DOPG   D2A57114   8.730  23.260   9.110
 2938DOPG   C3A57115   8.440  23.210   8.910
 2938DOPG   C4A57116   8.100  23.530   8.730
 2938DOPG   C1B57117   8.920  22.940   9.600
 2938DOPG   D2B57118   8.590  23.310   9.650
 2938DOPG   C3B57119   8.290  23.360   9.350
 2938DOPG   C4B57120   7.960  23.130   9.320
 2939DOPG   GL057121  10.340  21.440  11.180
 2939DOPG   PO457122  10.020  21.040  11.140
 2939DOPG   GL157123  10.300  20.850  11.270
 2939DOPG   GL257124  10.540  20.850  11.560
 2939DOPG   C1A57125  10.520  20.420  11.210
 2939DOPG   D2A57126  10.770  20.080  11.040
 2939DOPG   C3A57127  10.590  19.570  11.210
 2939DOPG   C4A57128  10.310  19.260  11.390
 2939DOPG   C1B57129  10.810  20.480  11.610
 2939DOPG   D2B57130  10.950  20.150  11.820
 2939DOPG   C3B57131  10.970  19.820  11.980
 2939DOPG   C4B57132  11.180  19.400  12.010
 2940DOPG   GL057133  10.100  16.190  18.310
 2940DOPG   PO457134  10.220  16.310  17.890
 2940DOPG   GL157135   9.740  16.310  17.790
 2940DOPG   GL257136   9.610  16.510  18.010
 2940DOPG   C1A57137   9.290  16.220  17.650
 2940DOPG   D2A57138   8.850  15.930  17.710
 2940DOPG   C3A57139   8.660  15.820  18.050
 2940DOPG   C4A57140   8.320  15.740  18.300
 2940DOPG   C1B57141   9.530  16.170  18.170
 2940DOPG   D2B57142   9.710  16.090  18.550
 2940DOPG   C3B57143   9.830  16.200  19.040
 2940DOPG   C4B57144   9.890  16.240  19.460
 2941DOPG   GL057145  17.720  18.860  19.730
 2941DOPG   PO457146  18.090  18.740  19.550
 2941DOPG   GL157147  18.250  18.790  19.080
 2941DOPG   GL257148  18.380  19.090  18.940
 2941DOPG   C1A57149  18.140  18.860  18.570
 2941DOPG   D2A57150  18.130  18.950  18.110
 2941DOPG   C3A57151  18.230  18.880  17.630
 2941DOPG   C4A57152  18.330  18.950  17.150
 2941DOPG   C1B57153  18.450  19.270  18.510
 2941DOPG   D2B57154  18.570  19.620  18.200
 2941DOPG   C3B57155  18.290  19.790  17.890
 2941DOPG   C4B57156  18.310  19.870  17.420
 2942DOPG   GL057157  22.970  22.400   8.110
 2942DOPG   PO457158  22.910  22.050   8.410
 2942DOPG   GL157159  22.540  22.200   8.630
 2942DOPG   GL257160  22.450  22.550   8.710
 2942DOPG   C1A57161  22.120  22.000   8.640
 2942DOPG   D2A57162  21.890  21.900   9.030
 2942DOPG   C3A57163  21.970  21.490   9.120
 2942DOPG   C4A57164  21.880  21.150   8.940
 2942DOPG   C1B57165  22.130  22.480   8.900
 2942DOPG   D2B57166  21.640  22.390   8.910
 2942DOPG   C3B57167  21.230  22.360   8.940
 2942DOPG   C4B57168  20.900  22.620   8.810
 2943DOPG   GL057169  16.500  14.160  15.920
 2943DOPG   PO457170  16.530  14.400  15.600
 2943DOPG   GL157171  16.490  14.780  15.350
 2943DOPG   GL257172  16.770  14.880  15.150
 2943DOPG   C1A57173  16.250  15.050  15.260
 2943DOPG   D2A57174  15.760  15.020  15.180
 2943DOPG   C3A57175  15.790  15.270  14.870
 2943DOPG   C4A57176  15.900  15.420  14.500
 2943DOPG   C1B57177  16.700  15.200  14.830
 2943DOPG   D2B57178  16.960  15.610  14.860
 2943DOPG   C3B57179  16.970  15.690  14.420
 2943DOPG   C4B57180  17.250  15.440  14.160
 2944DOPG   GL057181  11.790  14.750  17.260
 2944DOPG   PO457182  11.550  14.340  17.290
 2944DOPG   GL157183  11.490  13.980  17.300
 2944DOPG   GL257184  11.500  13.890  17.650
 2944DOPG   C1A57185  11.430  13.480  17.260
 2944DOPG   D2A57186  11.230  13.190  17.010
 2944DOPG   C3A57187  11.310  12.740  17.110
 2944DOPG   C4A57188  11.490  12.370  17.310
 2944DOPG   C1B57189  11.150  13.610  17.630
 2944DOPG   D2B57190  11.170  13.290  17.910
 2944DOPG   C3B57191  11.060  12.850  18.060
 2944DOPG   C4B57192  10.980  12.490  18.280
 2945DOPG   GL057193  19.670  32.300  19.590
 2945DOPG   PO457194  19.820  31.970  19.440
 2945DOPG   GL157195  20.130  31.720  19.160
 2945DOPG   GL257196  20.080  31.920  18.910
 2945DOPG   C1A57197  20.210  31.290  19.050
 2945DOPG   D2A57198  20.100  30.930  18.840
 2945DOPG   C3A57199  20.240  30.530  18.670
 2945DOPG   C4A57200  19.910  30.250  18.600
 2945DOPG   C1B57201  19.890  31.690  18.670
 2945DOPG   D2B57202  20.080  31.300  18.530
 2945DOPG   C3B57203  19.810  31.130  18.140
 2945DOPG   C4B57204  19.880  31.210  17.620
 2946DOPG   GL057205  11.140  23.160  15.210
 2946DOPG   PO457206  11.100  22.680  15.180
 2946DOPG   GL157207  11.420  22.340  14.890
 2946DOPG   GL257208  11.580  22.490  14.710
 2946DOPG   C1A57209  11.780  21.970  14.700
 2946DOPG   D2A57210  12.090  21.650  14.840
 2946DOPG   C3A57211  12.220  21.680  15.320
 2946DOPG   C4A57212  12.350  21.990  15.530
 2946DOPG   C1B57213  12.070  22.430  14.800
 2946DOPG   D2B57214  12.570  22.470  14.680
 2946DOPG   C3B57215  12.820  22.210  14.420
 2946DOPG   C4B57216  12.830  21.950  14.130
 2947DOPG   GL057217  21.130  16.040  17.400
 2947DOPG   PO457218  21.240  15.620  17.380
 2947DOPG   GL157219  21.580  15.530  17.590
 2947DOPG   GL257220  21.900  15.670  17.520
 2947DOPG   C1A57221  21.680  15.240  17.900
 2947DOPG   D2A57222  21.830  15.000  18.260
 2947DOPG   C3A57223  22.210  14.670  18.240
 2947DOPG   C4A57224  22.580  14.450  18.200
 2947DOPG   C1B57225  22.120  15.420  17.640
 2947DOPG   D2B57226  22.190  15.060  17.930
 2947DOPG   C3B57227  22.170  14.620  17.720
 2947DOPG   C4B57228  22.470  14.270  17.670
 2948DOPG   GL057229  12.880  18.510   9.000
 2948DOPG   PO457230  13.090  18.440   8.560
 2948DOPG   GL157231  13.420  18.340   8.890
 2948DOPG   GL257232  13.720  18.580   9.050
 2948DOPG   C1A57233  13.290  18.110   9.330
 2948DOPG   D2A57234  13.330  17.650   9.500
 2948DOPG   C3A57235  13.670  17.380   9.380
 2948DOPG   C4A57236  13.800  17.180   9.710
 2948DOPG   C1B57237  13.810  18.490   9.370
 2948DOPG   D2B57238  13.830  18.520   9.750
 2948DOPG   C3B57239  13.970  18.220  10.080
 2948DOPG   C4B57240  14.040  17.750  10.300
 2949DOPG   GL057241  10.810  15.650  17.990
 2949DOPG   PO457242  10.960  15.760  18.360
 2949DOPG   GL157243  10.630  15.590  18.520
 2949DOPG   GL257244  10.740  15.270  18.630
 2949DOPG   C1A57245  10.350  15.560  19.020
 2949DOPG   D2A57246   9.890  15.440  19.080
 2949DOPG   C3A57247   9.620  15.730  19.290
 2949DOPG   C4A57248   9.330  16.160  19.430
 2949DOPG   C1B57249  10.640  15.090  18.960
 2949DOPG   D2B57250  10.190  15.000  19.080
 2949DOPG   C3B57251  10.060  14.670  19.320
 2949DOPG   C4B57252   9.660  14.400  19.300
 2950DOPG   GL057253  29.420  18.730  16.480
 2950DOPG   PO457254  29.840  18.580  16.260
 2950DOPG   GL157255  29.500  18.910  16.040
 2950DOPG   GL257256  29.320  18.720  15.960
 2950DOPG   C1A57257  29.100  19.170  16.030
 2950DOPG   D2A57258  28.600  19.490  16.110
 2950DOPG   C3A57259  28.240  19.310  16.140
 2950DOPG   C4A57260  27.770  19.480  16.130
 2950DOPG   C1B57261  29.040  18.700  16.180
 2950DOPG   D2B57262  28.720  18.810  16.320
 2950DOPG   C3B57263  28.460  18.460  16.450
 2950DOPG   C4B57264  28.270  18.040  16.370
 2951DOPG   GL057265  12.390  24.250  15.190
 2951DOPG   PO457266  12.600  24.270  14.770
 2951DOPG   GL157267  12.560  24.080  14.390
 2951DOPG   GL257268  12.650  24.160  14.030
 2951DOPG   C1A57269  12.850  23.700  14.130
 2951DOPG   D2A57270  13.140  23.460  13.900
 2951DOPG   C3A57271  13.230  23.080  13.960
 2951DOPG   C4A57272  13.370  22.680  14.150
 2951DOPG   C1B57273  12.430  23.750  13.880
 2951DOPG   D2B57274  12.170  23.520  13.550
 2951DOPG   C3B57275  12.210  23.090  13.570
 2951DOPG   C4B57276  12.290  22.670  13.440
 2952DOPG   GL057277  20.310  14.440  14.530
 2952DOPG   PO457278  20.100  14.510  14.210
 2952DOPG   GL157279  19.840  14.800  13.820
 2952DOPG   GL257280  19.630  14.740  13.540
 2952DOPG   C1A57281  19.730  15.170  13.940
 2952DOPG   D2A57282  19.790  15.320  14.360
 2952DOPG   C3A57283  19.510  15.120  14.580
 2952DOPG   C4A57284  19.120  15.180  14.720
 2952DOPG   C1B57285  19.340  15.120  13.570
 2952DOPG   D2B57286  19.190  15.570  13.480
 2952DOPG   C3B57287  19.100  15.920  13.600
 2952DOPG   C4B57288  18.920  16.470  13.540
 2953DOPG   GL057289  16.070  17.100  18.490
 2953DOPG   PO457290  16.280  16.660  18.450
 2953DOPG   GL157291  16.420  16.990  18.080
 2953DOPG   GL257292  16.710  16.910  17.950
 2953DOPG   C1A57293  16.370  17.390  17.830
 2953DOPG   D2A57294  16.730  17.470  17.420
 2953DOPG   C3A57295  16.790  17.460  16.920
 2953DOPG   C4A57296  17.190  17.690  16.630
 2953DOPG   C1B57297  16.950  17.020  17.750
 2953DOPG   D2B57298  17.300  16.830  17.380
 2953DOPG   C3B57299  17.040  16.640  17.000
 2953DOPG   C4B57300  16.980  16.220  16.750
 2954DOPG   GL057301  14.680  21.220  19.090
 2954DOPG   PO457302  14.990  21.340  19.250
 2954DOPG   GL157303  15.100  21.540  18.870
 2954DOPG   GL257304  14.900  21.850  18.670
 2954DOPG   C1A57305  15.470  21.700  18.640
 2954DOPG   D2A57306  15.740  21.910  18.330
 2954DOPG   C3A57307  15.990  22.150  18.400
 2954DOPG   C4A57308  16.300  22.460  18.430
 2954DOPG   C1B57309  14.670  21.440  18.620
 2954DOPG   D2B57310  14.440  21.240  18.270
 2954DOPG   C3B57311  14.700  20.980  18.010
 2954DOPG   C4B57312  14.990  20.990  17.670
 2955DOPG   GL057313  25.230  21.080  14.240
 2955DOPG   PO457314  25.070  21.500  14.280
 2955DOPG   GL157315  24.600  21.550  14.230
 2955DOPG   GL257316  24.600  21.820  14.330
 2955DOPG   C1A57317  24.150  21.450  14.190
 2955DOPG   D2A57318  23.730  21.560  14.370
 2955DOPG   C3A57319  23.520  21.900  14.220
 2955DOPG   C4A57320  23.170  21.940  13.960
 2955DOPG   C1B57321  24.210  22.060  14.420
 2955DOPG   D2B57322  23.860  22.200  14.500
 2955DOPG   C3B57323  23.770  22.430  14.170
 2955DOPG   C4B57324  23.750  22.820  14.030
 2956DOPG   GL057325  22.810  24.690   2.190
 2956DOPG   PO457326  22.480  24.460   2.160
 2956DOPG   GL157327  22.240  24.260   2.450
 2956DOPG   GL257328  22.090  24.480   2.540
 2956DOPG   C1A57329  22.280  24.210   2.880
 2956DOPG   D2A57330  22.740  24.380   3.090
 2956DOPG   C3A57331  22.910  24.160   3.480
 2956DOPG   C4A57332  22.930  23.970   3.980
 2956DOPG   C1B57333  21.840  24.540   2.900
 2956DOPG   D2B57334  21.830  24.720   3.320
 2956DOPG   C3B57335  21.530  24.710   3.590
 2956DOPG   C4B57336  21.300  25.060   3.810
 2957DOPG   GL057337  24.530  19.240  13.260
 2957DOPG   PO457338  24.500  19.440  13.650
 2957DOPG   GL157339  24.030  19.530  13.670
 2957DOPG   GL257340  23.870  19.360  13.900
 2957DOPG   C1A57341  23.550  19.640  13.680
 2957DOPG   D2A57342  23.090  19.730  13.850
 2957DOPG   C3A57343  22.640  19.700  14.020
 2957DOPG   C4A57344  22.320  19.740  14.290
 2957DOPG   C1B57345  23.680  19.720  14.160
 2957DOPG   D2B57346  23.570  19.940  14.490
 2957DOPG   C3B57347  23.240  20.180  14.590
 2957DOPG   C4B57348  22.820  20.190  14.540
 2958DOPG   GL057349  13.950  15.330   8.270
 2958DOPG   PO457350  13.660  15.180   8.430
 2958DOPG   GL157351  13.300  15.360   8.620
 2958DOPG   GL257352  13.420  15.720   8.740
 2958DOPG   C1A57353  12.950  15.440   8.500
 2958DOPG   D2A57354  12.570  15.350   8.350
 2958DOPG   C3A57355  12.180  15.600   8.330
 2958DOPG   C4A57356  11.810  15.740   8.310
 2958DOPG   C1B57357  13.160  15.950   8.330
 2958DOPG   D2B57358  12.790  15.970   8.100
 2958DOPG   C3B57359  12.420  16.020   8.200
 2958DOPG   C4B57360  12.010  16.240   8.210
 2959DOPG   GL057361  12.700  25.370  15.120
 2959DOPG   PO457362  12.900  25.060  15.280
 2959DOPG   GL157363  13.200  24.640  15.260
 2959DOPG   GL257364  13.500  24.650  15.380
 2959DOPG   C1A57365  13.260  24.400  14.870
 2959DOPG   D2A57366  13.070  24.160  14.450
 2959DOPG   C3A57367  13.270  23.810  14.320
 2959DOPG   C4A57368  13.590  23.690  14.100
 2959DOPG   C1B57369  13.820  24.550  15.140
 2959DOPG   D2B57370  13.960  24.300  14.780
 2959DOPG   C3B57371  14.120  23.920  14.870
 2959DOPG   C4B57372  14.240  23.520  15.000
 2960DOPG   GL057373  15.390  27.990  16.140
 2960DOPG   PO457374  15.660  27.670  15.980
 2960DOPG   GL157375  15.880  27.270  15.790
 2960DOPG   GL257376  15.800  26.980  15.580
 2960DOPG   C1A57377  16.260  27.060  15.670
 2960DOPG   D2A57378  16.530  26.880  15.360
 2960DOPG   C3A57379  16.650  26.410  15.300
 2960DOPG   C4A57380  16.810  26.240  14.890
 2960DOPG   C1B57381  15.610  26.600  15.530
 2960DOPG   D2B57382  15.700  26.250  15.390
 2960DOPG   C3B57383  15.780  26.250  14.920
 2960DOPG   C4B57384  15.510  26.270  14.460
 2961DOPG   GL057385  20.980  17.840  17.850
 2961DOPG   PO457386  21.220  18.040  18.220
 2961DOPG   GL157387  21.040  18.370  17.860
 2961DOPG   GL257388  20.830  18.650  17.850
 2961DOPG   C1A57389  21.060  18.510  17.430
 2961DOPG   D2A57390  21.350  18.660  17.090
 2961DOPG   C3A57391  21.120  19.010  16.880
 2961DOPG   C4A57392  21.030  19.290  16.610
 2961DOPG   C1B57393  20.560  18.790  17.540
 2961DOPG   D2B57394  20.180  18.950  17.420
 2961DOPG   C3B57395  19.910  18.790  17.230
 2961DOPG   C4B57396  19.540  18.650  17.050
 2962DOPG   GL057397  19.910  21.220  19.980
 2962DOPG   PO457398  20.300  21.030  19.720
 2962DOPG   GL157399  20.230  21.190  19.260
 2962DOPG   GL257400  20.050  21.140  19.230
 2962DOPG   C1A57401  20.340  21.630  19.020
 2962DOPG   D2A57402  20.120  21.760  18.750
 2962DOPG   C3A57403  19.710  22.030  18.770
 2962DOPG   C4A57404  19.230  22.080  18.590
 2962DOPG   C1B57405  20.180  20.790  18.880
 2962DOPG   D2B57406  20.250  20.700  18.440
 2962DOPG   C3B57407  20.260  21.120  18.260
 2962DOPG   C4B57408  20.410  21.240  17.960
 2963DOPG   GL057409  21.800  18.920  18.190
 2963DOPG   PO457410  21.420  18.730  18.040
 2963DOPG   GL157411  21.320  19.010  17.750
 2963DOPG   GL257412  21.040  19.230  17.850
 2963DOPG   C1A57413  21.020  18.960  17.360
 2963DOPG   D2A57414  20.680  19.220  17.050
 2963DOPG   C3A57415  20.500  19.100  16.680
 2963DOPG   C4A57416  20.360  18.980  16.320
 2963DOPG   C1B57417  20.990  19.470  17.530
 2963DOPG   D2B57418  21.030  19.560  17.120
 2963DOPG   C3B57419  20.680  19.700  16.860
 2963DOPG   C4B57420  20.460  20.150  16.970
 2964DOPG   GL057421  11.930  15.680  18.680
 2964DOPG   PO457422  11.910  15.980  18.970
 2964DOPG   GL157423  11.790  16.080  19.390
 2964DOPG   GL257424  11.650  15.810  19.500
 2964DOPG   C1A57425  11.530  16.260  19.750
 2964DOPG   D2A57426  11.390  16.010  20.050
 2964DOPG   C3A57427  11.110  15.810  20.160
 2964DOPG   C4A57428  10.640  15.640  20.320
 2964DOPG   C1B57429  11.770  15.360  19.590
 2964DOPG   D2B57430  11.910  14.960  19.440
 2964DOPG   C3B57431  11.870  14.710  19.840
 2964DOPG   C4B57432  12.070  14.330  20.080
 2965DOPG   GL057433  23.510  25.970  10.000
 2965DOPG   PO457434  23.450  25.660   9.720
 2965DOPG   GL157435  23.040  25.610  10.000
 2965DOPG   GL257436  23.040  25.350  10.180
 2965DOPG   C1A57437  22.700  25.700  10.400
 2965DOPG   D2A57438  22.300  25.700  10.610
 2965DOPG   C3A57439  21.890  25.510  10.440
 2965DOPG   C4A57440  21.670  25.220  10.410
 2965DOPG   C1B57441  22.820  25.220  10.590
 2965DOPG   D2B57442  22.510  25.330  10.870
 2965DOPG   C3B57443  22.410  25.040  11.080
 2965DOPG   C4B57444  22.310  24.830  11.470
 2966DOPG   GL057445  19.530  29.450  16.180
 2966DOPG   PO457446  19.670  29.850  16.160
 2966DOPG   GL157447  19.640  30.230  16.340
 2966DOPG   GL257448  19.340  30.360  16.510
 2966DOPG   C1A57449  19.640  30.700  16.300
 2966DOPG   D2A57450  19.820  31.060  16.260
 2966DOPG   C3A57451  19.680  31.320  16.670
 2966DOPG   C4A57452  19.650  31.820  16.760
 2966DOPG   C1B57453  19.010  30.480  16.800
 2966DOPG   D2B57454  18.940  30.860  17.210
 2966DOPG   C3B57455  18.750  31.260  17.200
 2966DOPG   C4B57456  18.760  31.660  17.020
 2967DOPG   GL057457  15.110  21.840  19.300
 2967DOPG   PO457458  15.500  22.090  19.490
 2967DOPG   GL157459  15.580  21.970  19.050
 2967DOPG   GL257460  15.480  22.200  18.710
 2967DOPG   C1A57461  15.990  21.710  18.760
 2967DOPG   D2A57462  15.840  21.270  18.560
 2967DOPG   C3A57463  16.140  20.940  18.500
 2967DOPG   C4A57464  16.070  20.570  18.310
 2967DOPG   C1B57465  15.240  22.060  18.320
 2967DOPG   D2B57466  15.450  22.020  17.930
 2967DOPG   C3B57467  15.520  22.210  17.520
 2967DOPG   C4B57468  15.610  22.470  17.330
 2968DOPG   GL057469  11.170  21.860  16.260
 2968DOPG   PO457470  11.390  21.950  15.820
 2968DOPG   GL157471  11.690  21.680  15.680
 2968DOPG   GL257472  11.770  21.570  15.300
 2968DOPG   C1A57473  12.070  21.490  15.740
 2968DOPG   D2A57474  12.600  21.530  15.670
 2968DOPG   C3A57475  12.660  21.670  15.220
 2968DOPG   C4A57476  12.950  21.530  15.040
 2968DOPG   C1B57477  12.010  21.230  15.150
 2968DOPG   D2B57478  12.500  21.290  14.830
 2968DOPG   C3B57479  12.560  21.750  14.710
 2968DOPG   C4B57480  12.310  22.070  14.560
 2969DOPG   GL057481  13.730  18.020  17.400
 2969DOPG   PO457482  13.450  17.670  17.330
 2969DOPG   GL157483  13.460  17.880  17.020
 2969DOPG   GL257484  13.750  18.070  16.870
 2969DOPG   C1A57485  13.280  18.190  16.780
 2969DOPG   D2A57486  13.070  18.380  16.470
 2969DOPG   C3A57487  12.950  18.200  16.000
 2969DOPG   C4A57488  13.290  18.200  15.700
 2969DOPG   C1B57489  14.180  17.910  16.710
 2969DOPG   D2B57490  14.540  18.170  16.410
 2969DOPG   C3B57491  14.920  18.020  16.430
 2969DOPG   C4B57492  15.230  17.590  16.500
 2970DOPG   GL057493  17.180  10.960   4.440
 2970DOPG   PO457494  17.100  10.840   4.890
 2970DOPG   GL157495  17.020  11.220   5.200
 2970DOPG   GL257496  17.110  11.480   5.110
 2970DOPG   C1A57497  17.420  11.370   5.510
 2970DOPG   D2A57498  17.660  11.520   5.750
 2970DOPG   C3A57499  17.520  11.930   5.860
 2970DOPG   C4A57500  17.060  12.010   6.030
 2970DOPG   C1B57501  17.140  11.980   5.140
 2970DOPG   D2B57502  17.050  12.450   5.150
 2970DOPG   C3B57503  16.590  12.650   5.130
 2970DOPG   C4B57504  16.510  13.010   5.270
 2971DOPG   GL057505  10.530  29.500   8.770
 2971DOPG   PO457506  10.400  29.440   8.330
 2971DOPG   GL157507  10.680  29.050   8.410
 2971DOPG   GL257508  10.510  28.910   8.650
 2971DOPG   C1A57509  10.970  28.620   8.560
 2971DOPG   D2A57510  11.110  28.220   8.640
 2971DOPG   C3A57511  10.960  27.840   8.630
 2971DOPG   C4A57512  10.640  27.580   8.870
 2971DOPG   C1B57513  10.760  28.880   8.930
 2971DOPG   D2B57514  10.880  28.400   9.120
 2971DOPG   C3B57515  10.870  28.260   9.520
 2971DOPG   C4B57516  10.790  28.510   9.860
 2972DOPG   GL057517  21.230  16.120  11.140
 2972DOPG   PO457518  21.540  16.050  11.560
 2972DOPG   GL157519  21.570  16.480  11.450
 2972DOPG   GL257520  21.640  16.610  11.730
 2972DOPG   C1A57521  21.340  16.960  11.430
 2972DOPG   D2A57522  21.110  17.340  11.600
 2972DOPG   C3A57523  20.790  17.180  12.020
 2972DOPG   C4A57524  20.480  17.310  12.390
 2972DOPG   C1B57525  21.580  16.770  12.220
 2972DOPG   D2B57526  21.470  16.750  12.620
 2972DOPG   C3B57527  21.710  16.960  12.950
 2972DOPG   C4B57528  21.770  16.900  13.430
 2973DOPG   GL057529  15.930  16.280   8.910
 2973DOPG   PO457530  15.550  16.610   8.970
 2973DOPG   GL157531  15.500  16.540   9.420
 2973DOPG   GL257532  15.430  16.350   9.640
 2973DOPG   C1A57533  15.730  16.740   9.770
 2973DOPG   D2A57534  15.910  17.070  10.070
 2973DOPG   C3A57535  16.250  17.310  10.230
 2973DOPG   C4A57536  16.120  17.470  10.600
 2973DOPG   C1B57537  15.280  16.560   9.990
 2973DOPG   D2B57538  15.190  16.790  10.340
 2973DOPG   C3B57539  14.990  16.590  10.620
 2973DOPG   C4B57540  15.150  16.320  11.000
 2974DOPG   GL057541  18.690  24.980   7.060
 2974DOPG   PO457542  18.560  24.600   6.980
 2974DOPG   GL157543  18.710  24.540   7.390
 2974DOPG   GL257544  18.940  24.260   7.250
 2974DOPG   C1A57545  18.610  24.540   7.810
 2974DOPG   D2A57546  18.580  24.640   8.220
 2974DOPG   C3A57547  18.440  24.220   8.440
 2974DOPG   C4A57548  18.310  23.840   8.560
 2974DOPG   C1B57549  18.710  24.030   7.600
 2974DOPG   D2B57550  18.760  23.860   8.010
 2974DOPG   C3B57551  18.730  23.360   8.020
 2974DOPG   C4B57552  18.630  22.910   8.020
 2975DOPG   GL057553  15.290  22.780   6.710
 2975DOPG   PO457554  15.210  22.370   6.730
 2975DOPG   GL157555  15.590  22.220   6.990
 2975DOPG   GL257556  15.650  22.380   7.260
 2975DOPG   C1A57557  15.640  21.940   7.280
 2975DOPG   D2A57558  15.500  21.730   7.740
 2975DOPG   C3A57559  15.340  21.210   7.950
 2975DOPG   C4A57560  15.080  21.160   8.270
 2975DOPG   C1B57561  15.790  22.450   7.730
 2975DOPG   D2B57562  15.940  22.540   8.230
 2975DOPG   C3B57563  16.020  22.190   8.600
 2975DOPG   C4B57564  16.330  22.190   8.980
 2976DOPG   GL057565  10.380  13.450   7.550
 2976DOPG   PO457566  10.430  13.030   7.610
 2976DOPG   GL157567  10.830  13.210   7.730
 2976DOPG   GL257568  11.000  13.380   7.610
 2976DOPG   C1A57569  11.400  13.190   7.770
 2976DOPG   D2A57570  11.840  13.210   7.660
 2976DOPG   C3A57571  12.280  13.300   7.890
 2976DOPG   C4A57572  12.650  13.530   8.010
 2976DOPG   C1B57573  11.130  12.910   7.440
 2976DOPG   D2B57574  11.470  12.570   7.330
 2976DOPG   C3B57575  11.890  12.610   7.080
 2976DOPG   C4B57576  12.170  12.820   7.180
 2977DOPG   GL057577  24.480  21.380  17.060
 2977DOPG   PO457578  24.230  21.190  16.800
 2977DOPG   GL157579  23.840  21.410  16.600
 2977DOPG   GL257580  23.740  21.150  16.500
 2977DOPG   C1A57581  23.610  21.630  16.300
 2977DOPG   D2A57582  23.290  21.530  16.000
 2977DOPG   C3A57583  22.810  21.500  16.130
 2977DOPG   C4A57584  22.360  21.330  16.000
 2977DOPG   C1B57585  23.640  21.150  16.050
 2977DOPG   D2B57586  23.490  21.240  15.590
 2977DOPG   C3B57587  23.260  21.580  15.550
 2977DOPG   C4B57588  22.930  21.840  15.480
 2978DOPG   GL057589  15.030  28.200   3.720
 2978DOPG   PO457590  14.670  28.010   3.910
 2978DOPG   GL157591  14.710  27.690   4.080
 2978DOPG   GL257592  14.410  27.420   4.010
 2978DOPG   C1A57593  14.810  27.460   4.450
 2978DOPG   D2A57594  14.850  27.240   4.730
 2978DOPG   C3A57595  14.400  27.250   4.850
 2978DOPG   C4A57596  13.900  27.420   4.890
 2978DOPG   C1B57597  14.760  27.160   4.040
 2978DOPG   D2B57598  15.150  27.030   4.290
 2978DOPG   C3B57599  15.500  27.280   4.460
 2978DOPG   C4B57600  15.800  27.410   4.630
 2979DOPG   GL057601  18.670  13.990  12.050
 2979DOPG   PO457602  19.080  14.100  11.980
 2979DOPG   GL157603  18.890  14.540  12.020
 2979DOPG   GL257604  18.760  14.700  11.690
 2979DOPG   C1A57605  19.010  14.800  12.350
 2979DOPG   D2A57606  19.180  14.830  12.680
 2979DOPG   C3A57607  19.570  15.010  12.510
 2979DOPG   C4A57608  19.800  15.350  12.410
 2979DOPG   C1B57609  19.060  15.040  11.830
 2979DOPG   D2B57610  19.400  15.190  12.080
 2979DOPG   C3B57611  19.290  15.390  12.480
 2979DOPG   C4B57612  19.480  15.470  12.940
 2980DOPG   GL057613  18.060  27.520   2.330
 2980DOPG   PO457614  18.050  27.450   2.780
 2980DOPG   GL157615  18.110  27.390   3.140
 2980DOPG   GL257616  17.810  27.100   3.170
 2980DOPG   C1A57617  18.190  27.220   3.520
 2980DOPG   D2A57618  18.390  26.910   3.740
 2980DOPG   C3A57619  18.530  27.010   4.170
 2980DOPG   C4A57620  18.670  26.870   4.590
 2980DOPG   C1B57621  17.720  27.490   3.490
 2980DOPG   D2B57622  17.820  27.600   3.870
 2980DOPG   C3B57623  18.030  27.990   4.050
 2980DOPG   C4B57624  18.170  28.450   4.230
 2981DOPG   GL057625  17.850  17.460   5.170
 2981DOPG   PO457626  18.140  17.670   5.480
 2981DOPG   GL157627  18.280  17.630   5.070
 2981DOPG   GL257628  18.640  17.510   5.000
 2981DOPG   C1A57629  18.360  17.540   4.590
 2981DOPG   D2A57630  18.300  17.460   4.160
 2981DOPG   C3A57631  18.310  17.420   3.720
 2981DOPG   C4A57632  18.240  17.820   3.460
 2981DOPG   C1B57633  18.800  17.490   4.500
 2981DOPG   D2B57634  19.080  17.640   4.160
 2981DOPG   C3B57635  19.200  18.090   4.210
 2981DOPG   C4B57636  19.360  18.190   3.890
 2982DOPG   GL057637  10.620  30.040  16.970
 2982DOPG   PO457638  10.400  29.760  16.580
 2982DOPG   GL157639  10.750  29.530  16.520
 2982DOPG   GL257640  10.880  29.500  16.240
 2982DOPG   C1A57641  10.670  29.010  16.460
 2982DOPG   D2A57642  10.690  28.710  16.190
 2982DOPG   C3A57643  10.570  28.480  15.870
 2982DOPG   C4A57644  10.410  28.280  15.520
 2982DOPG   C1B57645  11.130  29.130  16.330
 2982DOPG   D2B57646  11.320  28.800  16.160
 2982DOPG   C3B57647  11.060  28.590  15.870
 2982DOPG   C4B57648  11.060  28.270  15.620
 2983DOPG   GL057649  24.250  23.090  16.670
 2983DOPG   PO457650  24.570  23.210  16.440
 2983DOPG   GL157651  24.320  23.270  16.170
 2983DOPG   GL257652  24.360  23.420  15.960
 2983DOPG   C1A57653  23.880  23.190  15.920
 2983DOPG   D2A57654  23.640  23.120  15.590
 2983DOPG   C3A57655  23.150  23.270  15.600
 2983DOPG   C4A57656  22.840  23.160  15.310
 2983DOPG   C1B57657  24.170  23.470  15.560
 2983DOPG   D2B57658  23.870  23.740  15.360
 2983DOPG   C3B57659  23.550  23.540  15.300
 2983DOPG   C4B57660  23.080  23.660  15.290
 2984DOPG   GL057661  10.530  15.560  11.710
 2984DOPG   PO457662  10.340  15.150  11.760
 2984DOPG   GL157663  10.740  15.090  11.840
 2984DOPG   GL257664  10.820  15.200  12.010
 2984DOPG   C1A57665  11.230  15.000  11.960
 2984DOPG   D2A57666  11.570  15.090  11.910
 2984DOPG   C3A57667  11.990  15.140  12.130
 2984DOPG   C4A57668  12.260  14.910  12.040
 2984DOPG   C1B57669  11.030  15.370  12.450
 2984DOPG   D2B57670  11.110  15.390  12.860
 2984DOPG   C3B57671  11.510  15.200  12.820
 2984DOPG   C4B57672  11.870  15.310  12.590
 2985DOPG   GL057673  15.570  28.030  14.150
 2985DOPG   PO457674  15.330  27.950  14.450
 2985DOPG   GL157675  15.560  27.620  14.450
 2985DOPG   GL257676  15.740  27.590  14.730
 2985DOPG   C1A57677  15.500  27.240  14.490
 2985DOPG   D2A57678  15.440  26.920  14.110
 2985DOPG   C3A57679  15.570  26.510  13.990
 2985DOPG   C4A57680  15.470  26.390  13.570
 2985DOPG   C1B57681  15.950  27.280  14.760
 2985DOPG   D2B57682  16.150  26.980  14.680
 2985DOPG   C3B57683  16.280  26.550  14.850
 2985DOPG   C4B57684  16.240  26.130  14.830
 2986DOPG   GL057685  29.590  18.100  13.780
 2986DOPG   PO457686  29.220  18.010  13.660
 2986DOPG   GL157687  28.930  18.140  13.690
 2986DOPG   GL257688  28.690  17.950  13.750
 2986DOPG   C1A57689  28.580  18.450  13.450
 2986DOPG   D2A57690  28.490  18.880  13.580
 2986DOPG   C3A57691  28.210  18.970  13.320
 2986DOPG   C4A57692  28.110  19.310  13.070
 2986DOPG   C1B57693  28.270  18.000  13.940
 2986DOPG   D2B57694  27.930  18.020  14.060
 2986DOPG   C3B57695  27.620  17.780  14.140
 2986DOPG   C4B57696  27.360  17.510  14.390
 2987DOPG   GL057697  13.240  10.060   7.650
 2987DOPG   PO457698  12.890  10.380   7.490
 2987DOPG   GL157699  12.950  10.720   7.670
 2987DOPG   GL257700  13.110  10.880   7.320
 2987DOPG   C1A57701  13.070  11.030   7.800
 2987DOPG   D2A57702  12.930  11.360   7.890
 2987DOPG   C3A57703  13.110  11.700   8.050
 2987DOPG   C4A57704  13.070  11.990   7.920
 2987DOPG   C1B57705  13.060  11.340   7.110
 2987DOPG   D2B57706  12.830  11.640   6.920
 2987DOPG   C3B57707  12.620  11.950   7.210
 2987DOPG   C4B57708  12.860  12.190   7.500
 2988DOPG   GL057709  21.680  15.130  15.780
 2988DOPG   PO457710  21.340  15.340  15.540
 2988DOPG   GL157711  21.130  15.750  15.560
 2988DOPG   GL257712  20.790  15.740  15.470
 2988DOPG   C1A57713  21.090  15.940  15.180
 2988DOPG   D2A57714  20.930  16.320  15.050
 2988DOPG   C3A57715  20.650  16.440  15.270
 2988DOPG   C4A57716  20.280  16.440  15.490
 2988DOPG   C1B57717  20.540  15.920  15.190
 2988DOPG   D2B57718  20.310  16.210  14.900
 2988DOPG   C3B57719  19.940  16.510  14.990
 2988DOPG   C4B57720  19.710  16.840  14.650
 2989DOPG   GL057721  16.450  14.940  16.640
 2989DOPG   PO457722  16.250  15.320  16.710
 2989DOPG   GL157723  16.160  15.600  16.330
 2989DOPG   GL257724  15.800  15.470  16.110
 2989DOPG   C1A57725  15.980  16.050  16.310
 2989DOPG   D2A57726  16.100  16.540  16.150
 2989DOPG   C3A57727  15.800  16.900  16.310
 2989DOPG   C4A57728  15.610  17.220  16.470
 2989DOPG   C1B57729  15.780  15.910  15.860
 2989DOPG   D2B57730  15.690  16.430  15.800
 2989DOPG   C3B57731  15.340  16.810  15.790
 2989DOPG   C4B57732  15.040  17.080  15.670
 2990DOPG   GL057733  21.690  15.030  10.830
 2990DOPG   PO457734  22.000  15.430  10.870
 2990DOPG   GL157735  22.270  15.170  10.620
 2990DOPG   GL257736  22.460  15.290  10.390
 2990DOPG   C1A57737  22.600  14.880  10.740
 2990DOPG   D2A57738  22.400  14.420  10.720
 2990DOPG   C3A57739  22.440  14.050  10.450
 2990DOPG   C4A57740  22.640  13.810  10.240
 2990DOPG   C1B57741  22.700  15.070  10.050
 2990DOPG   D2B57742  22.970  14.790   9.780
 2990DOPG   C3B57743  23.270  14.490   9.960
 2990DOPG   C4B57744  23.330  14.050   9.970
 2991DOPG   GL057745  14.260  16.780   8.500
 2991DOPG   PO457746  13.950  16.590   8.280
 2991DOPG   GL157747  13.660  16.620   8.680
 2991DOPG   GL257748  13.640  16.910   8.650
 2991DOPG   C1A57749  13.420  16.660   9.010
 2991DOPG   D2A57750  13.440  16.350   9.310
 2991DOPG   C3A57751  13.250  16.300   9.730
 2991DOPG   C4A57752  13.130  16.340  10.190
 2991DOPG   C1B57753  13.710  17.170   8.980
 2991DOPG   D2B57754  14.090  17.250   9.170
 2991DOPG   C3B57755  14.260  17.680   9.350
 2991DOPG   C4B57756  14.140  18.070   9.540
 2992DOPG   GL057757  19.540  28.620  14.590
 2992DOPG   PO457758  19.100  28.760  14.580
 2992DOPG   GL157759  19.060  28.460  14.320
 2992DOPG   GL257760  19.260  28.610  14.090
 2992DOPG   C1A57761  19.120  28.060  14.100
 2992DOPG   D2A57762  18.950  27.740  13.890
 2992DOPG   C3A57763  18.650  27.720  13.520
 2992DOPG   C4A57764  18.400  28.080  13.400
 2992DOPG   C1B57765  19.710  28.680  14.150
 2992DOPG   D2B57766  20.010  28.450  14.550
 2992DOPG   C3B57767  20.090  28.130  14.950
 2992DOPG   C4B57768  20.340  27.830  14.900
 2993DOPG   GL057769  10.140  25.480   4.570
 2993DOPG   PO457770  10.630  25.470   4.290
 2993DOPG   GL157771  10.910  25.260   4.460
 2993DOPG   GL257772  11.170  25.390   4.590
 2993DOPG   C1A57773  10.850  25.160   4.920
 2993DOPG   D2A57774  10.590  25.240   5.200
 2993DOPG   C3A57775  10.870  25.270   5.540
 2993DOPG   C4A57776  11.270  25.170   5.840
 2993DOPG   C1B57777  11.490  25.190   4.850
 2993DOPG   D2B57778  11.730  24.820   5.060
 2993DOPG   C3B57779  11.990  24.500   4.990
 2993DOPG   C4B57780  11.960  24.090   5.170
 2994DOPG   GL057781  25.420  21.520  12.560
 2994DOPG   PO457782  25.460  21.260  12.950
 2994DOPG   GL157783  25.020  21.490  12.900
 2994DOPG   GL257784  24.890  21.050  12.910
 2994DOPG   C1A57785  24.550  21.640  13.050
 2994DOPG   D2A57786  24.240  21.980  13.070
 2994DOPG   C3A57787  23.820  21.960  13.300
 2994DOPG   C4A57788  23.610  22.230  13.530
 2994DOPG   C1B57789  24.480  21.160  13.200
 2994DOPG   D2B57790  24.210  21.140  13.580
 2994DOPG   C3B57791  23.940  21.380  13.640
 2994DOPG   C4B57792  23.540  21.530  13.410
 2995DOPG   GL057793  21.050   9.450  10.530
 2995DOPG   PO457794  21.240   9.580  10.220
 2995DOPG   GL157795  20.880   9.870  10.280
 2995DOPG   GL257796  20.670   9.960  10.550
 2995DOPG   C1A57797  20.480  10.140  10.130
 2995DOPG   D2A57798  20.060  10.310  10.200
 2995DOPG   C3A57799  19.950  10.780  10.150
 2995DOPG   C4A57800  20.150  11.140  10.000
 2995DOPG   C1B57801  20.420  10.420  10.550
 2995DOPG   D2B57802  20.160  10.670  10.620
 2995DOPG   C3B57803  20.390  10.900  10.860
 2995DOPG   C4B57804  20.410  11.110  11.230
 2996DOPG   GL057805  22.490  20.490  18.460
 2996DOPG   PO457806  22.550  20.360  18.050
 2996DOPG   GL157807  22.300  20.480  17.760
 2996DOPG   GL257808  22.100  20.210  17.770
 2996DOPG   C1A57809  21.940  20.630  17.530
 2996DOPG   D2A57810  21.710  20.190  17.340
 2996DOPG   C3A57811  21.320  20.250  17.190
 2996DOPG   C4A57812  21.140  20.040  16.820
 2996DOPG   C1B57813  22.330  20.310  17.230
 2996DOPG   D2B57814  22.540  19.970  17.160
 2996DOPG   C3B57815  22.560  19.930  16.740
 2996DOPG   C4B57816  22.590  20.250  16.460
 2997DOPG   GL057817  12.950  29.320   5.640
 2997DOPG   PO457818  13.300  29.260   5.330
 2997DOPG   GL157819  13.500  29.150   5.730
 2997DOPG   GL257820  13.420  29.380   5.890
 2997DOPG   C1A57821  13.540  28.720   6.000
 2997DOPG   D2A57822  13.410  28.580   6.380
 2997DOPG   C3A57823  13.730  28.440   6.470
 2997DOPG   C4A57824  14.010  28.320   6.780
 2997DOPG   C1B57825  13.570  29.180   6.290
 2997DOPG   D2B57826  14.060  28.940   6.410
 2997DOPG   C3B57827  14.300  28.690   6.590
 2997DOPG   C4B57828  14.640  28.900   6.810
 2998DOPG   GL057829  15.210  17.150   8.110
 2998DOPG   PO457830  15.010  17.380   8.340
 2998DOPG   GL157831  15.290  17.340   8.720
 2998DOPG   GL257832  15.570  17.170   8.830
 2998DOPG   C1A57833  15.340  17.620   9.040
 2998DOPG   D2A57834  15.380  17.690   9.420
 2998DOPG   C3A57835  15.600  18.140   9.450
 2998DOPG   C4A57836  15.930  18.440   9.450
 2998DOPG   C1B57837  15.200  17.150   9.190
 2998DOPG   D2B57838  15.050  17.270   9.600
 2998DOPG   C3B57839  14.730  17.110   9.720
 2998DOPG   C4B57840  14.280  17.240   9.620
 2999DOPG   GL057841  16.670  24.050   6.840
 2999DOPG   PO457842  17.060  24.380   6.630
 2999DOPG   GL157843  17.190  23.950   6.790
 2999DOPG   GL257844  17.310  23.910   7.020
 2999DOPG   C1A57845  17.000  23.490   6.980
 2999DOPG   D2A57846  16.800  23.260   7.310
 2999DOPG   C3A57847  16.850  23.060   7.550
 2999DOPG   C4A57848  16.840  22.590   7.690
 2999DOPG   C1B57849  17.450  23.530   7.170
 2999DOPG   D2B57850  17.270  23.140   7.320
 2999DOPG   C3B57851  17.500  23.020   7.590
 2999DOPG   C4B57852  17.660  22.650   7.640
 3000DOPG   GL057853  19.370  24.460  15.790
 3000DOPG   PO457854  19.150  24.610  15.580
 3000DOPG   GL157855  19.070  24.900  15.950
 3000DOPG   GL257856  18.920  24.780  16.180
 3000DOPG   C1A57857  19.150  25.270  16.170
 3000DOPG   D2A57858  19.080  25.380  16.610
 3000DOPG   C3A57859  18.770  25.680  16.610
 3000DOPG   C4A57860  18.600  25.920  17.000
 3000DOPG   C1B57861  18.690  25.010  16.430
 3000DOPG   D2B57862  18.600  25.190  16.760
 3000DOPG   C3B57863  18.460  24.980  17.150
 3000DOPG   C4B57864  18.190  25.030  17.410
 3001DOPG   GL057865  24.330  22.030   9.740
 3001DOPG   PO457866  24.050  21.920   9.970
 3001DOPG   GL157867  23.690  22.100  10.110
 3001DOPG   GL257868  23.460  22.050   9.840
 3001DOPG   C1A57869  23.420  22.130  10.460
 3001DOPG   D2A57870  23.280  22.560  10.660
 3001DOPG   C3A57871  22.820  22.660  10.740
 3001DOPG   C4A57872  22.490  22.460  10.540
 3001DOPG   C1B57873  23.140  22.250  10.060
 3001DOPG   D2B57874  22.910  22.240  10.550
 3001DOPG   C3B57875  23.050  21.990  10.820
 3001DOPG   C4B57876  22.970  21.540  10.740
 3002DOPG   GL057877  13.910  24.290   2.250
 3002DOPG   PO457878  14.100  24.580   2.200
 3002DOPG   GL157879  14.430  24.410   2.440
 3002DOPG   GL257880  14.460  24.120   2.200
 3002DOPG   C1A57881  14.740  24.070   2.580
 3002DOPG   D2A57882  15.020  23.690   2.620
 3002DOPG   C3A57883  15.200  23.450   2.970
 3002DOPG   C4A57884  15.360  23.150   3.250
 3002DOPG   C1B57885  14.160  24.020   2.580
 3002DOPG   D2B57886  13.820  23.700   2.750
 3002DOPG   C3B57887  13.940  23.250   2.870
 3002DOPG   C4B57888  13.850  22.840   3.020
 3003DOPG   GL057889  17.840  18.820   7.040
 3003DOPG   PO457890  17.970  18.390   7.290
 3003DOPG   GL157891  17.850  18.750   7.550
 3003DOPG   GL257892  18.200  18.770   7.500
 3003DOPG   C1A57893  17.820  19.100   7.580
 3003DOPG   D2A57894  17.700  19.420   7.820
 3003DOPG   C3A57895  17.990  19.450   8.130
 3003DOPG   C4A57896  18.060  19.540   8.600
 3003DOPG   C1B57897  18.280  19.100   7.860
 3003DOPG   D2B57898  18.480  19.130   8.210
 3003DOPG   C3B57899  18.210  19.050   8.540
 3003DOPG   C4B57900  18.250  18.680   8.700
 3004DOPG   GL057901  11.700   8.340  14.810
 3004DOPG   PO457902  11.610   8.750  14.630
 3004DOPG   GL157903  11.820   9.160  14.770
 3004DOPG   GL257904  11.740   9.450  14.970
 3004DOPG   C1A57905  12.210   9.290  14.970
 3004DOPG   D2A57906  12.590   9.320  15.110
 3004DOPG   C3A57907  12.740   9.740  15.120
 3004DOPG   C4A57908  12.950  10.040  15.130
 3004DOPG   C1B57909  12.010   9.770  15.030
 3004DOPG   D2B57910  12.290  10.010  15.020
 3004DOPG   C3B57911  12.130  10.280  14.800
 3004DOPG   C4B57912  11.950  10.310  14.390
 3005DOPG   GL057913  14.090  25.360  15.870
 3005DOPG   PO457914  14.220  25.460  16.330
 3005DOPG   GL157915  14.310  25.040  16.340
 3005DOPG   GL257916  14.060  24.910  16.180
 3005DOPG   C1A57917  14.570  24.650  16.270
 3005DOPG   D2A57918  14.840  24.500  15.900
 3005DOPG   C3A57919  14.670  24.330  15.540
 3005DOPG   C4A57920  14.540  24.030  15.240
 3005DOPG   C1B57921  14.020  24.430  16.010
 3005DOPG   D2B57922  14.220  24.080  15.650
 3005DOPG   C3B57923  14.030  24.200  15.370
 3005DOPG   C4B57924  13.610  24.080  15.010
 3006DOPG   GL057925  23.720  26.170   2.570
 3006DOPG   PO457926  23.430  26.150   2.920
 3006DOPG   GL157927  23.470  26.090   3.390
 3006DOPG   GL257928  23.140  25.910   3.450
 3006DOPG   C1A57929  23.790  25.950   3.810
 3006DOPG   D2A57930  24.070  25.780   3.930
 3006DOPG   C3A57931  24.000  25.650   4.350
 3006DOPG   C4A57932  23.740  25.420   4.480
 3006DOPG   C1B57933  23.350  25.500   3.730
 3006DOPG   D2B57934  23.770  25.320   3.890
 3006DOPG   C3B57935  23.870  24.890   3.960
 3006DOPG   C4B57936  24.040  24.590   3.790
 3007DOPG   GL057937  22.840  21.580  17.820
 3007DOPG   PO457938  22.630  21.710  18.230
 3007DOPG   GL157939  22.350  21.800  17.800
 3007DOPG   GL257940  22.050  21.660  17.690
 3007DOPG   C1A57941  22.200  22.120  17.460
 3007DOPG   D2A57942  22.230  22.530  17.300
 3007DOPG   C3A57943  21.940  22.620  16.900
 3007DOPG   C4A57944  21.570  22.720  16.730
 3007DOPG   C1B57945  21.870  21.550  17.360
 3007DOPG   D2B57946  21.660  21.610  16.900
 3007DOPG   C3B57947  21.680  21.340  16.490
 3007DOPG   C4B57948  21.470  21.220  16.230
 3008DOPG   GL057949   6.020  19.470  18.280
 3008DOPG   PO457950   5.800  19.490  17.800
 3008DOPG   GL157951   5.940  19.240  17.490
 3008DOPG   GL257952   6.080  18.960  17.390
 3008DOPG   C1A57953   6.390  19.360  17.370
 3008DOPG   D2A57954   6.730  19.490  17.100
 3008DOPG   C3A57955   7.190  19.270  17.010
 3008DOPG   C4A57956   7.530  19.010  17.060
 3008DOPG   C1B57957   6.270  18.750  17.030
 3008DOPG   D2B57958   6.410  18.580  16.670
 3008DOPG   C3B57959   6.880  18.530  16.450
 3008DOPG   C4B57960   7.330  18.580  16.310
 3009DOPG   GL057961  23.170  18.060   8.840
 3009DOPG   PO457962  23.350  17.910   9.090
 3009DOPG   GL157963  23.730  18.010   8.860
 3009DOPG   GL257964  23.590  18.120   8.600
 3009DOPG   C1A57965  24.000  17.880   8.600
 3009DOPG   D2A57966  24.330  18.000   8.420
 3009DOPG   C3A57967  24.570  17.710   8.550
 3009DOPG   C4A57968  24.740  17.280   8.690
 3009DOPG   C1B57969  23.620  17.840   8.240
 3009DOPG   D2B57970  23.750  17.480   7.960
 3009DOPG   C3B57971  24.160  17.590   7.690
 3009DOPG   C4B57972  24.350  17.530   7.330
 3010DOPG   GL057973  11.980  22.200  16.980
 3010DOPG   PO457974  12.340  22.140  17.020
 3010DOPG   GL157975  12.420  22.090  16.550
 3010DOPG   GL257976  12.590  21.920  16.530
 3010DOPG   C1A57977  12.500  22.090  16.000
 3010DOPG   D2A57978  12.880  21.960  15.760
 3010DOPG   C3A57979  12.850  22.160  15.380
 3010DOPG   C4A57980  12.820  22.570  15.110
 3010DOPG   C1B57981  12.970  21.910  16.240
 3010DOPG   D2B57982  13.290  22.160  16.180
 3010DOPG   C3B57983  13.440  22.100  15.860
 3010DOPG   C4B57984  13.770  22.270  15.650
 3011DOPG   GL057985  22.710  28.330  11.580
 3011DOPG   PO457986  22.450  28.180  11.870
 3011DOPG   GL157987  22.180  28.010  12.150
 3011DOPG   GL257988  21.860  28.160  12.070
 3011DOPG   C1A57989  22.130  27.930  12.600
 3011DOPG   D2A57990  22.330  28.110  12.980
 3011DOPG   C3A57991  22.400  27.780  13.180
 3011DOPG   C4A57992  22.150  27.420  13.370
 3011DOPG   C1B57993  21.800  27.660  12.220
 3011DOPG   D2B57994  21.900  27.280  12.410
 3011DOPG   C3B57995  21.600  26.970  12.610
 3011DOPG   C4B57996  21.440  26.930  13.060
 3012DOPG   GL057997  10.890  30.740  13.620
 3012DOPG   PO457998  10.500  30.960  13.400
 3012DOPG   GL157999  10.520  30.560  13.270
 3012DOPG   GL258000  10.670  30.390  12.920
 3012DOPG   C1A58001  10.850  30.140  13.340
 3012DOPG   D2A58002  11.260  30.170  13.540
 3012DOPG   C3A58003  11.600  29.920  13.600
 3012DOPG   C4A58004  11.660  29.650  13.290
 3012DOPG   C1B58005  11.120  30.500  13.160
 3012DOPG   D2B58006  11.590  30.510  13.400
 3012DOPG   C3B58007  12.040  30.490  13.250
 3012DOPG   C4B58008  12.390  30.300  13.180
 3013DOPG   GL058009  10.930  12.100   8.470
 3013DOPG   PO458010  10.820  12.340   8.040
 3013DOPG   GL158011  11.050  12.570   8.160
 3013DOPG   GL258012  11.260  12.740   7.950
 3013DOPG   C1A58013  11.210  12.720   8.520
 3013DOPG   D2A58014  11.370  12.900   8.870
 3013DOPG   C3A58015  11.800  12.870   8.750
 3013DOPG   C4A58016  12.130  12.630   8.600
 3013DOPG   C1B58017  11.580  12.910   8.160
 3013DOPG   D2B58018  11.950  12.940   8.010
 3013DOPG   C3B58019  12.110  12.530   8.100
 3013DOPG   C4B58020  12.140  12.100   8.180
 3014DOPG   GL058021   8.110  11.480  15.620
 3014DOPG   PO458022   8.390  11.830  15.610
 3014DOPG   GL158023   8.710  12.140  15.710
 3014DOPG   GL258024   8.890  12.130  15.460
 3014DOPG   C1A58025   8.980  12.580  15.750
 3014DOPG   D2A58026   8.840  13.050  15.740
 3014DOPG   C3A58027   9.040  13.480  16.070
 3014DOPG   C4A58028   9.300  13.700  16.130
 3014DOPG   C1B58029   9.310  12.140  15.580
 3014DOPG   D2B58030   9.640  12.490  15.580
 3014DOPG   C3B58031  10.000  12.570  15.480
 3014DOPG   C4B58032  10.270  12.730  15.300
 3015DOPG   GL058033  30.950  24.030  13.880
 3015DOPG   PO458034  30.790  23.710  14.180
 3015DOPG   GL158035  30.430  23.800  14.090
 3015DOPG   GL258036  30.250  23.560  13.980
 3015DOPG   C1A58037  29.960  23.940  14.160
 3015DOPG   D2A58038  29.690  24.100  14.460
 3015DOPG   C3A58039  29.660  23.810  14.780
 3015DOPG   C4A58040  29.690  23.420  15.120
 3015DOPG   C1B58041  29.920  23.590  13.650
 3015DOPG   D2B58042  29.500  23.600  13.600
 3015DOPG   C3B58043  29.300  23.680  13.850
 3015DOPG   C4B58044  29.340  23.760  14.300
 3016DOPG   GL058045  16.100  21.410  26.910
 3016DOPG   PO458046  16.000  21.110   0.240
 3016DOPG   GL158047  16.120  21.040   0.680
 3016DOPG   GL258048  16.170  20.690   0.790
 3016DOPG   C1A58049  15.810  21.030   1.090
 3016DOPG   D2A58050  15.460  21.030   1.310
 3016DOPG   C3A58051  14.990  21.100   1.530
 3016DOPG   C4A58052  14.590  21.300   1.690
 3016DOPG   C1B58053  16.510  20.890   0.920
 3016DOPG   D2B58054  16.770  21.150   1.150
 3016DOPG   C3B58055  17.160  20.970   1.410
 3016DOPG   C4B58056  17.360  20.960   1.870
 3017DOPG   GL058057  14.170  32.620   9.130
 3017DOPG   PO458058  14.170  32.630   9.550
 3017DOPG   GL158059  14.170  32.240   9.520
 3017DOPG   GL258060  14.360  32.170   9.680
 3017DOPG   C1A58061  14.340  31.810   9.260
 3017DOPG   D2A58062  14.650  31.540   9.210
 3017DOPG   C3A58063  15.080  31.720   9.120
 3017DOPG   C4A58064  15.510  31.770   9.200
 3017DOPG   C1B58065  14.150  31.840   9.800
 3017DOPG   D2B58066  13.910  31.530  10.040
 3017DOPG   C3B58067  14.030  31.260  10.290
 3017DOPG   C4B58068  14.260  30.910  10.210
 3018DOPG   GL058069  12.830  14.170  17.120
 3018DOPG   PO458070  12.980  13.740  17.250
 3018DOPG   GL158071  12.860  13.420  17.430
 3018DOPG   GL258072  12.900  13.170  17.160
 3018DOPG   C1A58073  12.480  13.120  17.430
 3018DOPG   D2A58074  12.100  12.980  17.480
 3018DOPG   C3A58075  12.040  12.710  17.820
 3018DOPG   C4A58076  11.940  12.460  18.130
 3018DOPG   C1B58077  12.950  12.750  17.460
 3018DOPG   D2B58078  12.880  12.550  17.840
 3018DOPG   C3B58079  12.860  12.590  18.350
 3018DOPG   C4B58080  12.460  12.340  18.680
 3019DOPG   GL058081  12.480  19.180   7.060
 3019DOPG   PO458082  12.240  19.020   6.660
 3019DOPG   GL158083  11.960  18.790   6.810
 3019DOPG   GL258084  11.630  18.770   6.960
 3019DOPG   C1A58085  11.720  18.350   6.700
 3019DOPG   D2A58086  11.400  18.100   6.510
 3019DOPG   C3A58087  10.950  18.100   6.550
 3019DOPG   C4A58088  10.670  17.970   6.160
 3019DOPG   C1B58089  11.490  18.760   6.540
 3019DOPG   D2B58090  11.420  18.770   6.140
 3019DOPG   C3B58091  11.170  18.660   5.790
 3019DOPG   C4B58092  11.200  18.420   5.390
 3020DOPG   GL058093  15.260  19.110  19.040
 3020DOPG   PO458094  14.750  19.400  19.000
 3020DOPG   GL158095  14.650  19.580  18.560
 3020DOPG   GL258096  14.720  19.170  18.450
 3020DOPG   C1A58097  14.640  19.480  18.080
 3020DOPG   D2A58098  14.550  19.860  17.860
 3020DOPG   C3A58099  14.580  20.040  17.440
 3020DOPG   C4A58100  14.490  20.260  17.000
 3020DOPG   C1B58101  15.140  18.970  18.210
 3020DOPG   D2B58102  15.510  18.880  18.060
 3020DOPG   C3B58103  15.670  19.090  17.750
 3020DOPG   C4B58104  15.980  19.360  17.600
 3021DOPG   GL058105  14.140  20.580  18.790
 3021DOPG   PO458106  14.320  20.910  19.050
 3021DOPG   GL158107  14.540  20.880  18.660
 3021DOPG   GL258108  14.620  20.560  18.600
 3021DOPG   C1A58109  15.000  20.950  18.720
 3021DOPG   D2A58110  15.270  21.110  18.480
 3021DOPG   C3A58111  15.210  20.950  18.110
 3021DOPG   C4A58112  15.460  21.150  17.670
 3021DOPG   C1B58113  14.670  20.500  18.180
 3021DOPG   D2B58114  15.050  20.490  17.890
 3021DOPG   C3B58115  15.040  20.470  17.490
 3021DOPG   C4B58116  14.750  20.630  17.150
 3022DOPG   GL058117  18.490  22.740   6.120
 3022DOPG   PO458118  18.650  22.740   6.560
 3022DOPG   GL158119  18.780  22.860   6.890
 3022DOPG   GL258120  19.120  22.750   7.020
 3022DOPG   C1A58121  18.960  23.140   7.210
 3022DOPG   D2A58122  19.370  23.430   7.280
 3022DOPG   C3A58123  19.580  23.600   7.640
 3022DOPG   C4A58124  19.780  23.310   7.980
 3022DOPG   C1B58125  19.270  22.840   7.390
 3022DOPG   D2B58126  19.100  22.950   7.690
 3022DOPG   C3B58127  19.120  22.710   8.030
 3022DOPG   C4B58128  19.080  22.420   8.390
 3023DOPG   GL058129  14.370  28.160  11.240
 3023DOPG   PO458130  14.270  28.530  11.410
 3023DOPG   GL158131  14.160  28.850  11.690
 3023DOPG   GL258132  14.270  29.110  11.830
 3023DOPG   C1A58133  13.790  29.180  11.750
 3023DOPG   D2A58134  13.790  29.530  11.850
 3023DOPG   C3A58135  13.760  29.750  11.470
 3023DOPG   C4A58136  13.690  30.160  11.260
 3023DOPG   C1B58137  14.210  29.470  11.670
 3023DOPG   D2B58138  14.160  29.880  11.690
 3023DOPG   C3B58139  13.940  30.050  11.990
 3023DOPG   C4B58140  13.420  30.060  11.990
 3024DOPG   GL058141  17.350   8.640  18.530
 3024DOPG   PO458142  17.380   8.930  18.250
 3024DOPG   GL158143  17.400   9.320  18.050
 3024DOPG   GL258144  17.070   9.380  18.010
 3024DOPG   C1A58145  17.310   9.550  17.590
 3024DOPG   D2A58146  17.490   9.440  17.130
 3024DOPG   C3A58147  17.680   9.110  16.880
 3024DOPG   C4A58148  17.640   9.000  16.470
 3024DOPG   C1B58149  17.380   9.780  18.110
 3024DOPG   D2B58150  17.330  10.110  18.020
 3024DOPG   C3B58151  17.400  10.520  17.690
 3024DOPG   C4B58152  17.330  10.950  17.560
 3025DOPG   GL058153  21.450  34.150  14.990
 3025DOPG   PO458154  21.570  34.280  14.640
 3025DOPG   GL158155  21.550  33.770  14.570
 3025DOPG   GL258156  21.480  33.600  14.830
 3025DOPG   C1A58157  21.520  33.630  14.060
 3025DOPG   D2A58158  21.630  33.210  13.790
 3025DOPG   C3A58159  21.610  32.820  13.800
 3025DOPG   C4A58160  21.470  32.440  14.030
 3025DOPG   C1B58161  21.780  33.330  14.480
 3025DOPG   D2B58162  21.740  33.000  14.270
 3025DOPG   C3B58163  21.540  32.650  14.520
 3025DOPG   C4B58164  21.390  32.230  14.480
 3026DOPG   GL058165  11.380  18.510  17.030
 3026DOPG   PO458166  11.540  18.380  16.700
 3026DOPG   GL158167  11.660  18.320  16.240
 3026DOPG   GL258168  11.470  18.040  16.020
 3026DOPG   C1A58169  12.090  18.340  16.060
 3026DOPG   D2A58170  12.270  18.040  15.900
 3026DOPG   C3A58171  12.490  18.150  15.640
 3026DOPG   C4A58172  12.320  17.990  15.260
 3026DOPG   C1B58173  11.670  18.260  15.750
 3026DOPG   D2B58174  11.910  18.340  15.440
 3026DOPG   C3B58175  11.990  18.730  15.190
 3026DOPG   C4B58176  12.170  18.970  14.870
 3027DOPG   GL058177  15.710  19.190   6.600
 3027DOPG   PO458178  15.640  19.580   6.730
 3027DOPG   GL158179  15.910  19.580   7.040
 3027DOPG   GL258180  16.200  19.620   7.110
 3027DOPG   C1A58181  15.960  19.390   7.470
 3027DOPG   D2A58182  15.990  19.450   7.940
 3027DOPG   C3A58183  16.160  19.400   8.370
 3027DOPG   C4A58184  16.120  19.790   8.650
 3027DOPG   C1B58185  15.980  20.070   7.270
 3027DOPG   D2B58186  16.010  20.370   7.620
 3027DOPG   C3B58187  16.430  20.300   7.870
 3027DOPG   C4B58188  16.770  20.650   7.990
 3028DOPG   GL058189  13.790  26.760  13.620
 3028DOPG   PO458190  14.020  26.980  13.380
 3028DOPG   GL158191  14.400  26.700  13.510
 3028DOPG   GL258192  14.730  26.960  13.500
 3028DOPG   C1A58193  14.500  26.370  13.220
 3028DOPG   D2A58194  14.600  25.920  13.240
 3028DOPG   C3A58195  14.970  25.790  13.300
 3028DOPG   C4A58196  15.330  25.560  13.560
 3028DOPG   C1B58197  15.170  26.730  13.500
 3028DOPG   D2B58198  15.460  26.690  13.200
 3028DOPG   C3B58199  15.570  26.300  12.930
 3028DOPG   C4B58200  15.970  26.120  12.770
 3029DOPG   GL058201  24.070  20.310  17.120
 3029DOPG   PO458202  23.680  20.000  17.070
 3029DOPG   GL158203  23.430  20.120  16.680
 3029DOPG   GL258204  23.490  20.430  16.760
 3029DOPG   C1A58205  23.460  20.200  16.110
 3029DOPG   D2A58206  23.130  20.150  15.820
 3029DOPG   C3A58207  22.790  20.200  15.990
 3029DOPG   C4A58208  22.390  20.390  16.010
 3029DOPG   C1B58209  22.960  20.430  16.810
 3029DOPG   D2B58210  22.630  20.600  16.890
 3029DOPG   C3B58211  22.220  20.690  16.990
 3029DOPG   C4B58212  21.770  20.630  17.020
 3030DOPG   GL058213   9.700  18.160  17.490
 3030DOPG   PO458214   9.600  17.990  17.110
 3030DOPG   GL158215   9.360  17.800  16.800
 3030DOPG   GL258216   8.990  17.930  16.810
 3030DOPG   C1A58217   9.280  17.410  16.830
 3030DOPG   D2A58218   8.820  17.070  16.860
 3030DOPG   C3A58219   8.420  17.010  16.800
 3030DOPG   C4A58220   8.150  17.210  16.580
 3030DOPG   C1B58221   8.630  17.740  16.950
 3030DOPG   D2B58222   8.220  17.660  16.810
 3030DOPG   C3B58223   7.990  18.000  16.620
 3030DOPG   C4B58224   7.650  17.880  16.360
 3031DOPG   GL058225  11.070  24.190  12.350
 3031DOPG   PO458226  11.410  24.100  12.650
 3031DOPG   GL158227  11.790  23.820  12.720
 3031DOPG   GL258228  11.940  23.480  12.960
 3031DOPG   C1A58229  12.150  23.640  12.540
 3031DOPG   D2A58230  12.350  23.280  12.560
 3031DOPG   C3A58231  12.400  22.890  12.340
 3031DOPG   C4A58232  12.540  22.640  12.080
 3031DOPG   C1B58233  12.290  23.340  13.100
 3031DOPG   D2B58234  12.660  23.060  13.250
 3031DOPG   C3B58235  13.110  23.130  13.230
 3031DOPG   C4B58236  13.380  23.540  13.290
 3032DOPG   GL058237  17.880  26.630  17.920
 3032DOPG   PO458238  17.770  26.290  18.230
 3032DOPG   GL158239  17.780  26.020  17.860
 3032DOPG   GL258240  17.660  25.750  17.890
 3032DOPG   C1A58241  17.830  26.000  17.400
 3032DOPG   D2A58242  18.040  26.000  16.970
 3032DOPG   C3A58243  17.620  26.090  16.760
 3032DOPG   C4A58244  17.480  26.450  16.720
 3032DOPG   C1B58245  17.940  25.520  17.490
 3032DOPG   D2B58246  18.270  25.590  17.220
 3032DOPG   C3B58247  18.280  25.580  16.800
 3032DOPG   C4B58248  17.950  25.680  16.470
 3033DOPG   GL058249  10.770  15.430   3.510
 3033DOPG   PO458250  11.050  15.290   3.820
 3033DOPG   GL158251  11.200  15.400   4.250
 3033DOPG   GL258252  11.360  15.590   4.120
 3033DOPG   C1A58253  11.360  15.630   4.640
 3033DOPG   D2A58254  11.670  15.780   4.820
 3033DOPG   C3A58255  11.910  15.870   5.240
 3033DOPG   C4A58256  11.990  15.870   5.660
 3033DOPG   C1B58257  11.820  15.490   4.400
 3033DOPG   D2B58258  12.160  15.570   4.600
 3033DOPG   C3B58259  12.180  15.930   4.750
 3033DOPG   C4B58260  12.390  16.260   5.100
 3034DOPG   GL058261  24.530  22.390  16.880
 3034DOPG   PO458262  24.690  22.130  16.530
 3034DOPG   GL158263  24.570  22.180  16.110
 3034DOPG   GL258264  24.380  22.250  16.190
 3034DOPG   C1A58265  24.370  22.330  15.710
 3034DOPG   D2A58266  24.390  22.520  15.270
 3034DOPG   C3A58267  23.970  22.610  14.960
 3034DOPG   C4A58268  23.490  22.500  15.010
 3034DOPG   C1B58269  24.200  22.730  16.170
 3034DOPG   D2B58270  23.860  22.920  16.330
 3034DOPG   C3B58271  23.520  22.730  16.360
 3034DOPG   C4B58272  23.190  22.700  16.600
 3035DOPG   GL058273  18.210  13.070  10.470
 3035DOPG   PO458274  18.650  13.110  10.750
 3035DOPG   GL158275  18.780  12.620  10.640
 3035DOPG   GL258276  19.130  12.650  10.810
 3035DOPG   C1A58277  18.660  12.290  10.740
 3035DOPG   D2A58278  18.840  11.940  10.700
 3035DOPG   C3A58279  19.160  11.580  10.670
 3035DOPG   C4A58280  19.340  11.330  10.870
 3035DOPG   C1B58281  19.170  12.300  10.690
 3035DOPG   D2B58282  19.290  12.010  10.370
 3035DOPG   C3B58283  19.240  11.580  10.180
 3035DOPG   C4B58284  19.330  11.220  10.360
 3036DOPG   GL058285  15.440  27.310   9.030
 3036DOPG   PO458286  15.360  27.570   8.600
 3036DOPG   GL158287  15.320  27.950   8.460
 3036DOPG   GL258288  15.570  27.880   8.270
 3036DOPG   C1A58289  15.160  28.240   8.220
 3036DOPG   D2A58290  14.970  28.580   7.990
 3036DOPG   C3A58291  14.520  28.530   7.950
 3036DOPG   C4A58292  14.190  28.650   7.670
 3036DOPG   C1B58293  15.560  28.190   7.870
 3036DOPG   D2B58294  15.530  28.410   7.490
 3036DOPG   C3B58295  15.350  28.470   7.170
 3036DOPG   C4B58296  14.970  28.430   6.960
 3037DOPG   GL058297  12.900  24.740   8.660
 3037DOPG   PO458298  12.910  24.390   9.030
 3037DOPG   GL158299  13.070  24.040   9.170
 3037DOPG   GL258300  13.100  23.770   9.160
 3037DOPG   C1A58301  13.560  23.850   9.320
 3037DOPG   D2A58302  13.980  23.940   9.410
 3037DOPG   C3A58303  14.280  23.790   9.090
 3037DOPG   C4A58304  14.540  23.820   8.680
 3037DOPG   C1B58305  13.270  23.530   9.500
 3037DOPG   D2B58306  13.740  23.370   9.570
 3037DOPG   C3B58307  13.810  23.050   9.890
 3037DOPG   C4B58308  13.710  22.610  10.000
 3038DOPG   GL058309  15.600  27.160  16.200
 3038DOPG   PO458310  15.450  26.760  16.340
 3038DOPG   GL158311  15.620  26.380  16.170
 3038DOPG   GL258312  15.900  26.630  15.990
 3038DOPG   C1A58313  15.660  26.180  15.870
 3038DOPG   D2A58314  15.730  25.760  15.670
 3038DOPG   C3A58315  15.710  25.690  15.280
 3038DOPG   C4A58316  15.710  25.660  14.790
 3038DOPG   C1B58317  16.150  26.320  15.810
 3038DOPG   D2B58318  16.500  26.070  15.890
 3038DOPG   C3B58319  16.780  26.000  15.570
 3038DOPG   C4B58320  16.700  25.940  15.250
 3039DOPG   GL058321  17.110   9.290   6.120
 3039DOPG   PO458322  16.790   9.320   6.350
 3039DOPG   GL158323  17.050   9.500   6.620
 3039DOPG   GL258324  17.420   9.480   6.580
 3039DOPG   C1A58325  16.950   9.580   7.010
 3039DOPG   D2A58326  17.000   9.770   7.340
 3039DOPG   C3A58327  17.320  10.150   7.430
 3039DOPG   C4A58328  17.390  10.530   7.120
 3039DOPG   C1B58329  17.410   9.710   7.030
 3039DOPG   D2B58330  17.630  10.050   6.980
 3039DOPG   C3B58331  17.690  10.460   6.690
 3039DOPG   C4B58332  18.130  10.570   6.520
 3040DOPG   GL058333  13.740  17.370  12.200
 3040DOPG   PO458334  13.830  17.500  12.680
 3040DOPG   GL158335  13.940  17.110  13.040
 3040DOPG   GL258336  13.710  16.830  13.060
 3040DOPG   C1A58337  14.280  16.840  13.200
 3040DOPG   D2A58338  14.320  16.430  13.430
 3040DOPG   C3A58339  13.990  16.130  13.450
 3040DOPG   C4A58340  13.800  15.800  13.500
 3040DOPG   C1B58341  13.640  16.410  12.880
 3040DOPG   D2B58342  13.490  16.060  12.900
 3040DOPG   C3B58343  13.370  15.970  12.550
 3040DOPG   C4B58344  13.540  15.710  12.280
 3041DOPG   GL058345  24.510  23.090  10.740
 3041DOPG   PO458346  24.330  22.860  10.340
 3041DOPG   GL158347  24.030  22.860  10.670
 3041DOPG   GL258348  24.190  22.650  10.750
 3041DOPG   C1A58349  23.640  22.920  10.820
 3041DOPG   D2A58350  23.320  22.790  11.080
 3041DOPG   C3A58351  23.160  22.940  11.420
 3041DOPG   C4A58352  23.110  23.050  11.820
 3041DOPG   C1B58353  23.920  22.580  11.130
 3041DOPG   D2B58354  23.630  22.640  11.430
 3041DOPG   C3B58355  23.640  23.010  11.630
 3041DOPG   C4B58356  23.670  23.360  11.880
 3042DOPG   GL058357  21.210  23.940  19.140
 3042DOPG   PO458358  20.980  23.600  19.140
 3042DOPG   GL158359  21.150  23.450  18.780
 3042DOPG   GL258360  21.450  23.670  18.740
 3042DOPG   C1A58361  21.070  23.370  18.350
 3042DOPG   D2A58362  20.750  23.040  18.110
 3042DOPG   C3A58363  20.310  23.270  17.950
 3042DOPG   C4A58364  19.960  23.120  17.770
 3042DOPG   C1B58365  21.530  23.660  18.270
 3042DOPG   D2B58366  21.540  23.480  17.870
 3042DOPG   C3B58367  21.510  23.120  17.530
 3042DOPG   C4B58368  21.760  22.970  17.240
 3043DOPG   GL058369  11.560  28.190   4.610
 3043DOPG   PO458370  11.800  28.460   4.980
 3043DOPG   GL158371  12.120  28.270   5.180
 3043DOPG   GL258372  12.110  27.900   5.130
 3043DOPG   C1A58373  12.260  28.110   5.610
 3043DOPG   D2A58374  12.550  28.100   6.010
 3043DOPG   C3A58375  12.950  27.890   5.930
 3043DOPG   C4A58376  13.230  27.580   6.080
 3043DOPG   C1B58377  12.100  27.500   5.390
 3043DOPG   D2B58378  12.370  27.200   5.670
 3043DOPG   C3B58379  12.230  26.800   5.730
 3043DOPG   C4B58380  12.080  26.320   5.870
 3044DOPG   GL058381  11.610  23.730   9.290
 3044DOPG   PO458382  11.780  24.010   9.680
 3044DOPG   GL158383  12.180  23.890   9.780
 3044DOPG   GL258384  12.460  23.980   9.750
 3044DOPG   C1A58385  12.290  23.720  10.160
 3044DOPG   D2A58386  12.270  23.630  10.690
 3044DOPG   C3A58387  12.650  23.490  10.890
 3044DOPG   C4A58388  13.070  23.460  11.110
 3044DOPG   C1B58389  12.690  24.090  10.120
 3044DOPG   D2B58390  13.130  24.110  10.320
 3044DOPG   C3B58391  13.330  24.510  10.510
 3044DOPG   C4B58392  13.230  24.900  10.370
 3045DOPG   GL058393  17.830  29.730  11.550
 3045DOPG   PO458394  17.560  29.620  11.270
 3045DOPG   GL158395  17.540  30.070  11.170
 3045DOPG   GL258396  17.490  30.040  10.770
 3045DOPG   C1A58397  17.750  30.480  11.280
 3045DOPG   D2A58398  18.060  30.720  11.310
 3045DOPG   C3A58399  18.220  31.090  11.110
 3045DOPG   C4A58400  18.300  31.290  10.760
 3045DOPG   C1B58401  17.510  30.500  10.740
 3045DOPG   D2B58402  17.280  30.890  10.680
 3045DOPG   C3B58403  17.560  31.280  10.550
 3045DOPG   C4B58404  17.490  31.690  10.480
 3046DOPG   GL058405  23.500  20.960  17.420
 3046DOPG   PO458406  23.820  21.020  17.160
 3046DOPG   GL158407  23.500  21.110  16.950
 3046DOPG   GL258408  23.140  21.170  17.070
 3046DOPG   C1A58409  23.270  21.290  16.490
 3046DOPG   D2A58410  23.090  21.040  16.140
 3046DOPG   C3A58411  23.060  21.090  15.860
 3046DOPG   C4A58412  22.810  21.320  15.610
 3046DOPG   C1B58413  22.920  21.050  16.730
 3046DOPG   D2B58414  22.690  20.750  16.420
 3046DOPG   C3B58415  22.850  20.700  15.980
 3046DOPG   C4B58416  22.950  20.590  15.540
 3047DOPG   GL058417  13.340  26.910  13.950
 3047DOPG   PO458418  13.410  26.500  13.960
 3047DOPG   GL158419  13.730  26.280  13.910
 3047DOPG   GL258420  13.770  25.930  13.700
 3047DOPG   C1A58421  14.190  25.990  14.090
 3047DOPG   D2A58422  14.480  25.870  14.440
 3047DOPG   C3A58423  14.900  25.680  14.430
 3047DOPG   C4A58424  15.310  25.730  14.320
 3047DOPG   C1B58425  13.700  25.510  13.590
 3047DOPG   D2B58426  13.900  25.240  13.360
 3047DOPG   C3B58427  13.720  24.970  13.020
 3047DOPG   C4B58428  13.940  24.580  12.880
 3048DOPG   GL058429   5.920  16.600  15.450
 3048DOPG   PO458430   6.210  16.530  15.820
 3048DOPG   GL158431   6.380  16.700  16.150
 3048DOPG   GL258432   6.590  16.600  16.390
 3048DOPG   C1A58433   6.460  17.100  16.460
 3048DOPG   D2A58434   6.590  17.360  16.790
 3048DOPG   C3A58435   6.270  17.380  17.210
 3048DOPG   C4A58436   6.120  17.230  17.520
 3048DOPG   C1B58437   6.910  16.660  16.100
 3048DOPG   D2B58438   7.260  16.290  15.970
 3048DOPG   C3B58439   7.800  16.470  16.090
 3048DOPG   C4B58440   8.040  16.810  16.130
 3049DOPG   GL058441  12.950  19.200   8.280
 3049DOPG   PO458442  13.180  19.460   8.510
 3049DOPG   GL158443  13.300  19.450   8.900
 3049DOPG   GL258444  13.220  19.690   9.170
 3049DOPG   C1A58445  13.650  19.370   9.290
 3049DOPG   D2A58446  14.010  19.360   9.690
 3049DOPG   C3A58447  14.110  18.970   9.740
 3049DOPG   C4A58448  14.300  18.620   9.970
 3049DOPG   C1B58449  13.450  19.740   9.580
 3049DOPG   D2B58450  13.710  19.780   9.950
 3049DOPG   C3B58451  13.690  20.060  10.280
 3049DOPG   C4B58452  13.580  20.040  10.750
 3050DOPG   GL058453  24.810  23.570   9.790
 3050DOPG   PO458454  24.720  23.860  10.180
 3050DOPG   GL158455  24.280  23.730  10.430
 3050DOPG   GL258456  24.210  23.370  10.460
 3050DOPG   C1A58457  23.830  23.760  10.720
 3050DOPG   D2A58458  23.460  23.670  11.020
 3050DOPG   C3A58459  23.210  23.300  10.910
 3050DOPG   C4A58460  22.790  23.410  10.700
 3050DOPG   C1B58461  23.970  23.330  10.850
 3050DOPG   D2B58462  23.940  23.120  11.230
 3050DOPG   C3B58463  24.270  22.820  11.460
 3050DOPG   C4B58464  24.450  22.440  11.610
 3051DOPG   GL058465  22.970  20.660   8.960
 3051DOPG   PO458466  22.680  20.380   8.830
 3051DOPG   GL158467  22.390  20.800   8.880
 3051DOPG   GL258468  22.160  20.680   8.990
 3051DOPG   C1A58469  22.350  21.150   9.110
 3051DOPG   D2A58470  22.100  21.220   9.490
 3051DOPG   C3A58471  21.730  21.600   9.600
 3051DOPG   C4A58472  21.480  21.930   9.300
 3051DOPG   C1B58473  22.070  20.730   9.430
 3051DOPG   D2B58474  22.010  20.870   9.850
 3051DOPG   C3B58475  21.730  20.700  10.050
 3051DOPG   C4B58476  21.600  20.300  10.240
 3052DOPG   GL058477  13.360  15.690  16.490
 3052DOPG   PO458478  13.730  15.640  16.660
 3052DOPG   GL158479  13.910  15.830  16.350
 3052DOPG   GL258480  13.700  16.020  16.170
 3052DOPG   C1A58481  14.250  16.160  16.250
 3052DOPG   D2A58482  14.430  16.590  16.310
 3052DOPG   C3A58483  14.780  16.610  16.550
 3052DOPG   C4A58484  15.140  16.400  16.470
 3052DOPG   C1B58485  13.690  16.100  15.800
 3052DOPG   D2B58486  14.020  16.430  15.680
 3052DOPG   C3B58487  14.470  16.410  15.830
 3052DOPG   C4B58488  14.730  16.260  16.170
 3053DOPG   GL058489  29.780  27.480  12.590
 3053DOPG   PO458490  29.890  27.410  12.940
 3053DOPG   GL158491  29.510  27.300  13.170
 3053DOPG   GL258492  29.370  27.500  12.940
 3053DOPG   C1A58493  29.330  26.890  13.320
 3053DOPG   D2A58494  29.120  26.530  13.130
 3053DOPG   C3A58495  28.720  26.530  13.010
 3053DOPG   C4A58496  28.370  26.560  12.830
 3053DOPG   C1B58497  28.960  27.480  12.930
 3053DOPG   D2B58498  28.580  27.370  12.670
 3053DOPG   C3B58499  28.550  27.150  12.240
 3053DOPG   C4B58500  28.560  26.860  11.860
 3054DOPG   GL058501  21.430  16.220  10.600
 3054DOPG   PO458502  21.570  16.440  10.920
 3054DOPG   GL158503  21.130  16.630  11.100
 3054DOPG   GL258504  21.020  16.570  11.480
 3054DOPG   C1A58505  20.840  17.000  11.320
 3054DOPG   D2A58506  20.480  17.250  11.420
 3054DOPG   C3A58507  20.010  17.080  11.400
 3054DOPG   C4A58508  19.860  16.690  11.440
 3054DOPG   C1B58509  20.740  16.770  11.760
 3054DOPG   D2B58510  20.280  16.820  11.800
 3054DOPG   C3B58511  20.290  17.230  11.860
 3054DOPG   C4B58512  20.190  17.670  12.130
 3055DOPG   GL058513  22.910  27.550  10.690
 3055DOPG   PO458514  22.510  27.750  10.720
 3055DOPG   GL158515  22.360  27.460  10.840
 3055DOPG   GL258516  22.200  27.380  10.510
 3055DOPG   C1A58517  22.190  27.040  11.020
 3055DOPG   D2A58518  21.800  26.690  11.070
 3055DOPG   C3A58519  21.570  26.320  10.960
 3055DOPG   C4A58520  21.180  26.410  10.660
 3055DOPG   C1B58521  21.750  27.470  10.590
 3055DOPG   D2B58522  21.400  27.310  10.600
 3055DOPG   C3B58523  21.020  27.040  10.740
 3055DOPG   C4B58524  20.830  26.670  10.850
 3056DOPG   GL058525  16.200  17.430   4.960
 3056DOPG   PO458526  15.840  17.360   4.950
 3056DOPG   GL158527  15.610  17.500   4.630
 3056DOPG   GL258528  15.540  17.170   4.450
 3056DOPG   C1A58529  15.210  17.510   4.410
 3056DOPG   D2A58530  14.960  17.260   4.150
 3056DOPG   C3A58531  14.900  17.170   3.750
 3056DOPG   C4A58532  15.040  16.970   3.280
 3056DOPG   C1B58533  15.930  17.130   4.170
 3056DOPG   D2B58534  16.200  17.440   3.890
 3056DOPG   C3B58535  16.520  17.220   3.560
 3056DOPG   C4B58536  16.970  17.030   3.410
 3057DOPG   GL058537  18.390  26.970   8.310
 3057DOPG   PO458538  18.360  27.170   8.670
 3057DOPG   GL158539  18.570  26.960   8.950
 3057DOPG   GL258540  18.600  26.640   8.840
 3057DOPG   C1A58541  18.620  26.940   9.400
 3057DOPG   D2A58542  18.700  26.650   9.730
 3057DOPG   C3A58543  19.080  26.780  10.000
 3057DOPG   C4A58544  19.420  26.920  10.290
 3057DOPG   C1B58545  18.620  26.460   9.200
 3057DOPG   D2B58546  18.790  26.050   9.350
 3057DOPG   C3B58547  18.800  26.130   9.650
 3057DOPG   C4B58548  19.200  26.250  10.030
 3058DOPG   GL058549  21.700  15.220  12.780
 3058DOPG   PO458550  22.040  15.430  12.780
 3058DOPG   GL158551  21.720  15.700  12.910
 3058DOPG   GL258552  21.490  15.750  12.570
 3058DOPG   C1A58553  21.350  15.970  12.980
 3058DOPG   D2A58554  21.140  16.230  13.320
 3058DOPG   C3A58555  20.630  16.280  13.250
 3058DOPG   C4A58556  20.190  15.950  13.320
 3058DOPG   C1B58557  21.320  16.230  12.530
 3058DOPG   D2B58558  21.050  16.510  12.810
 3058DOPG   C3B58559  20.610  16.610  12.790
 3058DOPG   C4B58560  20.280  16.450  12.540
 3059DOPG   GL058561  21.410  22.530  20.430
 3059DOPG   PO458562  21.560  22.180  20.220
 3059DOPG   GL158563  21.810  22.280  20.630
 3059DOPG   GL258564  21.860  22.680  20.800
 3059DOPG   C1A58565  21.890  22.080  21.000
 3059DOPG   D2A58566  21.560  21.960  21.190
 3059DOPG   C3A58567  21.370  21.780  21.350
 3059DOPG   C4A58568  20.940  21.670  21.590
 3059DOPG   C1B58569  22.000  23.000  21.030
 3059DOPG   D2B58570  22.220  22.940  21.310
 3059DOPG   C3B58571  22.100  22.750  21.610
 3059DOPG   C4B58572  22.160  22.870  22.060
 3060DOPG   GL058573  12.710  19.200   9.700
 3060DOPG   PO458574  12.350  19.130   9.440
 3060DOPG   GL158575  12.060  19.250   9.660
 3060DOPG   GL258576  12.030  18.960   9.770
 3060DOPG   C1A58577  11.660  19.290   9.890
 3060DOPG   D2A58578  11.430  19.060  10.340
 3060DOPG   C3A58579  11.350  18.650  10.480
 3060DOPG   C4A58580  11.140  18.260  10.580
 3060DOPG   C1B58581  11.790  18.740  10.170
 3060DOPG   D2B58582  11.980  18.490  10.480
 3060DOPG   C3B58583  11.810  18.160  10.660
 3060DOPG   C4B58584  11.720  17.750  10.980
 3061DOPG   GL058585  13.580  18.630   8.110
 3061DOPG   PO458586  13.370  18.950   8.330
 3061DOPG   GL158587  13.630  18.820   8.550
 3061DOPG   GL258588  13.530  19.010   8.820
 3061DOPG   C1A58589  14.070  18.780   8.710
 3061DOPG   D2A58590  14.290  18.480   8.750
 3061DOPG   C3A58591  14.060  18.230   8.990
 3061DOPG   C4A58592  13.790  17.910   9.260
 3061DOPG   C1B58593  13.410  18.930   9.310
 3061DOPG   D2B58594  13.210  18.740   9.600
 3061DOPG   C3B58595  13.330  18.380   9.750
 3061DOPG   C4B58596  13.660  18.040   9.690
 3062DOPG   GL058597  25.220  24.600  11.510
 3062DOPG   PO458598  25.150  24.520  11.840
 3062DOPG   GL158599  24.810  24.340  12.010
 3062DOPG   GL258600  24.450  24.370  11.850
 3062DOPG   C1A58601  24.520  23.940  12.120
 3062DOPG   D2A58602  24.140  24.070  12.200
 3062DOPG   C3A58603  23.810  24.220  11.970
 3062DOPG   C4A58604  23.490  24.370  11.610
 3062DOPG   C1B58605  24.130  24.690  11.930
 3062DOPG   D2B58606  23.660  24.800  11.860
 3062DOPG   C3B58607  23.410  24.450  12.150
 3062DOPG   C4B58608  23.350  24.080  12.120
 3063DOPG   GL058609  13.410  16.800  17.320
 3063DOPG   PO458610  13.820  16.780  17.300
 3063DOPG   GL158611  13.830  17.140  16.830
 3063DOPG   GL258612  13.550  17.030  16.710
 3063DOPG   C1A58613  14.010  17.430  16.520
 3063DOPG   D2A58614  14.190  17.790  16.170
 3063DOPG   C3A58615  13.780  18.040  15.890
 3063DOPG   C4A58616  13.450  18.180  16.180
 3063DOPG   C1B58617  13.530  17.540  16.570
 3063DOPG   D2B58618  13.710  17.730  16.250
 3063DOPG   C3B58619  13.870  18.080  16.400
 3063DOPG   C4B58620  13.760  18.450  16.570
 3064DOPG   GL058621  15.690  15.970   0.720
 3064DOPG   PO458622  15.730  15.810   1.030
 3064DOPG   GL158623  15.700  15.990   1.410
 3064DOPG   GL258624  15.410  16.120   1.540
 3064DOPG   C1A58625  15.700  16.190   1.900
 3064DOPG   D2A58626  15.840  16.670   2.110
 3064DOPG   C3A58627  15.880  16.830   2.520
 3064DOPG   C4A58628  15.830  16.550   2.930
 3064DOPG   C1B58629  15.430  15.760   1.800
 3064DOPG   D2B58630  15.560  15.500   2.210
 3064DOPG   C3B58631  15.320  15.100   2.330
 3064DOPG   C4B58632  15.310  14.890   2.610
 3065DOPG   GL058633  23.110  17.850  17.070
 3065DOPG   PO458634  23.130  18.180  16.760
 3065DOPG   GL158635  22.730  18.370  16.770
 3065DOPG   GL258636  22.480  18.330  16.600
 3065DOPG   C1A58637  22.480  18.800  16.650
 3065DOPG   D2A58638  22.260  18.800  16.210
 3065DOPG   C3A58639  21.850  18.750  16.090
 3065DOPG   C4A58640  21.440  18.690  15.820
 3065DOPG   C1B58641  22.090  18.470  16.780
 3065DOPG   D2B58642  21.850  18.680  17.130
 3065DOPG   C3B58643  21.720  19.090  17.000
 3065DOPG   C4B58644  21.450  19.260  17.260
 3066DOPG   GL058645  10.600  11.900   8.790
 3066DOPG   PO458646  11.090  11.810   8.870
 3066DOPG   GL158647  11.420  12.070   8.640
 3066DOPG   GL258648  11.380  12.340   8.720
 3066DOPG   C1A58649  11.680  12.280   8.350
 3066DOPG   D2A58650  11.640  12.400   7.860
 3066DOPG   C3A58651  11.900  12.650   7.630
 3066DOPG   C4A58652  12.320  12.830   7.800
 3066DOPG   C1B58653  11.830  12.460   8.970
 3066DOPG   D2B58654  12.250  12.730   9.120
 3066DOPG   C3B58655  12.560  12.930   8.780
 3066DOPG   C4B58656  12.620  13.300   8.780
 3067DOPG   GL058657   8.620  17.780  21.980
 3067DOPG   PO458658   8.830  17.470  21.920
 3067DOPG   GL158659   9.070  17.440  21.650
 3067DOPG   GL258660   9.350  17.380  21.700
 3067DOPG   C1A58661   9.200  17.480  21.210
 3067DOPG   D2A58662   9.260  17.750  20.770
 3067DOPG   C3A58663   9.100  17.550  20.420
 3067DOPG   C4A58664   9.270  17.600  19.880
 3067DOPG   C1B58665   9.480  17.050  21.350
 3067DOPG   D2B58666   9.600  16.700  21.010
 3067DOPG   C3B58667   9.690  16.860  20.520
 3067DOPG   C4B58668  10.080  17.070  20.450
 3068DOPG   GL058669  24.740  21.910  11.260
 3068DOPG   PO458670  24.970  21.860  11.550
 3068DOPG   GL158671  24.700  21.680  11.800
 3068DOPG   GL258672  24.530  21.490  11.680
 3068DOPG   C1A58673  24.410  21.770  12.180
 3068DOPG   D2A58674  24.400  21.730  12.570
 3068DOPG   C3A58675  24.280  21.310  12.720
 3068DOPG   C4A58676  24.470  20.950  12.670
 3068DOPG   C1B58677  24.340  21.080  11.590
 3068DOPG   D2B58678  24.030  20.790  11.810
 3068DOPG   C3B58679  23.850  20.440  11.540
 3068DOPG   C4B58680  23.470  20.290  11.450
 3069DOPG   GL058681  17.770  24.910   6.890
 3069DOPG   PO458682  17.840  25.040   7.230
 3069DOPG   GL158683  17.820  24.800   7.690
 3069DOPG   GL258684  17.490  24.920   7.890
 3069DOPG   C1A58685  17.730  24.420   7.850
 3069DOPG   D2A58686  17.650  24.250   8.170
 3069DOPG   C3A58687  17.640  23.840   8.420
 3069DOPG   C4A58688  17.670  23.560   8.770
 3069DOPG   C1B58689  17.880  25.140   8.060
 3069DOPG   D2B58690  17.970  25.510   8.360
 3069DOPG   C3B58691  18.170  25.410   8.720
 3069DOPG   C4B58692  18.180  25.310   9.160
 3070DOPG   GL058693  22.870  27.720  11.170
 3070DOPG   PO458694  22.940  27.850  11.640
 3070DOPG   GL158695  22.730  27.500  11.810
 3070DOPG   GL258696  22.560  27.640  11.980
 3070DOPG   C1A58697  22.520  27.130  11.780
 3070DOPG   D2A58698  22.340  26.840  11.500
 3070DOPG   C3A58699  22.540  26.390  11.580
 3070DOPG   C4A58700  22.540  26.080  11.420
 3070DOPG   C1B58701  22.230  27.450  12.070
 3070DOPG   D2B58702  21.970  27.100  11.970
 3070DOPG   C3B58703  21.980  26.650  11.860
 3070DOPG   C4B58704  22.160  26.250  11.820
 3071DOPG   GL058705  21.330  27.290  17.640
 3071DOPG   PO458706  21.230  27.030  17.320
 3071DOPG   GL158707  20.920  26.810  17.080
 3071DOPG   GL258708  20.700  26.680  17.360
 3071DOPG   C1A58709  20.940  26.760  16.560
 3071DOPG   D2A58710  21.270  26.910  16.240
 3071DOPG   C3A58711  21.490  26.710  15.750
 3071DOPG   C4A58712  21.560  26.660  15.400
 3071DOPG   C1B58713  20.250  26.480  17.200
 3071DOPG   D2B58714  20.010  26.390  16.730
 3071DOPG   C3B58715  20.320  26.120  16.440
 3071DOPG   C4B58716  20.620  25.830  16.350
 3072DOPG   GL058717   5.600  20.240  10.480
 3072DOPG   PO458718   5.530  20.720  10.600
 3072DOPG   GL158719   5.690  21.060  10.830
 3072DOPG   GL258720   5.430  21.260  10.900
 3072DOPG   C1A58721   6.010  21.190  10.980
 3072DOPG   D2A58722   6.550  21.380  10.980
 3072DOPG   C3A58723   7.050  21.470  10.940
 3072DOPG   C4A58724   7.540  21.750  11.040
 3072DOPG   C1B58725   5.750  21.610  10.960
 3072DOPG   D2B58726   6.200  21.720  10.920
 3072DOPG   C3B58727   6.390  22.050  10.780
 3072DOPG   C4B58728   6.550  22.440  10.870
 3073DOPG   GL058729  11.130  22.720   2.280
 3073DOPG   PO458730  11.510  22.830   2.410
 3073DOPG   GL158731  11.710  22.890   2.720
 3073DOPG   GL258732  11.930  23.170   2.750
 3073DOPG   C1A58733  11.600  23.010   3.140
 3073DOPG   D2A58734  11.690  23.370   3.400
 3073DOPG   C3A58735  12.020  23.690   3.510
 3073DOPG   C4A58736  12.150  24.100   3.770
 3073DOPG   C1B58737  12.140  22.800   2.990
 3073DOPG   D2B58738  12.510  22.810   3.330
 3073DOPG   C3B58739  12.640  22.890   3.770
 3073DOPG   C4B58740  12.760  22.990   4.230
 3074DOPG   GL058741  16.540  18.660   7.050
 3074DOPG   PO458742  16.840  18.940   7.120
 3074DOPG   GL158743  17.020  18.920   7.520
 3074DOPG   GL258744  17.310  18.940   7.530
 3074DOPG   C1A58745  16.760  18.960   7.910
 3074DOPG   D2A58746  16.430  19.000   8.300
 3074DOPG   C3A58747  16.570  19.270   8.610
 3074DOPG   C4A58748  16.740  19.490   8.850
 3074DOPG   C1B58749  17.200  19.200   8.060
 3074DOPG   D2B58750  17.110  18.950   8.340
 3074DOPG   C3B58751  16.810  18.570   8.360
 3074DOPG   C4B58752  16.480  18.490   8.050
 3075DOPG   GL058753  17.410  16.520   7.550
 3075DOPG   PO458754  17.660  16.620   7.820
 3075DOPG   GL158755  17.880  17.080   7.770
 3075DOPG   GL258756  18.090  17.280   8.050
 3075DOPG   C1A58757  17.560  17.340   8.160
 3075DOPG   D2A58758  17.150  17.400   8.290
 3075DOPG   C3A58759  16.990  17.350   8.780
 3075DOPG   C4A58760  16.810  17.480   9.320
 3075DOPG   C1B58761  17.900  17.140   8.460
 3075DOPG   D2B58762  18.090  17.150   8.830
 3075DOPG   C3B58763  18.480  16.960   8.900
 3075DOPG   C4B58764  18.860  16.880   9.200
 3076DOPG   GL058765  13.320  26.700  10.220
 3076DOPG   PO458766  13.180  27.160  10.330
 3076DOPG   GL158767  13.170  27.540  10.050
 3076DOPG   GL258768  12.800  27.620   9.880
 3076DOPG   C1A58769  13.030  28.060  10.140
 3076DOPG   D2A58770  12.770  28.320  10.000
 3076DOPG   C3A58771  12.410  28.170  10.050
 3076DOPG   C4A58772  11.960  28.100   9.810
 3076DOPG   C1B58773  12.960  27.960   9.670
 3076DOPG   D2B58774  13.040  28.200   9.320
 3076DOPG   C3B58775  12.670  28.360   9.100
 3076DOPG   C4B58776  12.270  28.590   9.090
 3077DOPG   GL058777  19.030  15.690  10.750
 3077DOPG   PO458778  19.360  15.570  10.590
 3077DOPG   GL158779  19.430  15.700  11.030
 3077DOPG   GL258780  19.690  15.640  11.240
 3077DOPG   C1A58781  19.240  15.900  11.440
 3077DOPG   D2A58782  19.110  16.040  11.780
 3077DOPG   C3A58783  19.300  16.420  11.900
 3077DOPG   C4A58784  19.060  16.800  11.900
 3077DOPG   C1B58785  19.790  16.050  11.350
 3077DOPG   D2B58786  20.300  16.150  11.380
 3077DOPG   C3B58787  20.350  16.600  11.310
 3077DOPG   C4B58788  20.110  16.830  10.990
 3078DOPG   GL058789  16.050  28.820  13.260
 3078DOPG   PO458790  16.380  28.690  13.010
 3078DOPG   GL158791  16.700  28.240  12.980
 3078DOPG   GL258792  17.090  28.300  13.000
 3078DOPG   C1A58793  16.650  27.780  12.800
 3078DOPG   D2A58794  16.920  27.490  12.710
 3078DOPG   C3A58795  16.730  27.130  12.710
 3078DOPG   C4A58796  16.570  26.780  12.970
 3078DOPG   C1B58797  17.230  27.850  13.040
 3078DOPG   D2B58798  17.340  27.500  13.260
 3078DOPG   C3B58799  17.450  27.160  12.940
 3078DOPG   C4B58800  17.320  26.850  12.730
 3079DOPG   GL058801  24.450  25.830  15.950
 3079DOPG   PO458802  24.220  25.670  16.270
 3079DOPG   GL158803  23.910  25.580  16.010
 3079DOPG   GL258804  23.820  25.670  15.710
 3079DOPG   C1A58805  23.520  25.320  16.120
 3079DOPG   D2A58806  23.050  25.320  16.290
 3079DOPG   C3A58807  22.850  25.130  16.680
 3079DOPG   C4A58808  22.850  25.130  17.050
 3079DOPG   C1B58809  23.570  25.350  15.630
 3079DOPG   D2B58810  23.230  25.060  15.510
 3079DOPG   C3B58811  23.180  24.880  15.160
 3079DOPG   C4B58812  23.150  24.750  14.760
 3080DOPG   GL058813  10.120  21.280  13.290
 3080DOPG   PO458814  10.070  21.080  13.710
 3080DOPG   GL158815  10.470  21.080  13.610
 3080DOPG   GL258816  10.640  21.330  13.880
 3080DOPG   C1A58817  10.680  20.730  13.770
 3080DOPG   D2A58818  10.550  20.300  13.810
 3080DOPG   C3A58819  10.310  20.080  13.520
 3080DOPG   C4A58820   9.890  19.770  13.380
 3080DOPG   C1B58821  10.630  21.530  13.470
 3080DOPG   D2B58822  10.920  21.840  13.530
 3080DOPG   C3B58823  11.180  21.950  13.240
 3080DOPG   C4B58824  11.530  22.180  13.250
 3081DOPG   GL058825  13.540  20.370  18.760
 3081DOPG   PO458826  13.900  20.120  18.600
 3081DOPG   GL158827  14.200  20.410  18.360
 3081DOPG   GL258828  14.250  20.750  18.170
 3081DOPG   C1A58829  14.230  20.320  17.940
 3081DOPG   D2A58830  14.370  20.490  17.630
 3081DOPG   C3A58831  14.550  20.780  17.580
 3081DOPG   C4A58832  14.710  21.080  17.270
 3081DOPG   C1B58833  14.160  21.050  17.850
 3081DOPG   D2B58834  14.210  21.110  17.470
 3081DOPG   C3B58835  14.260  20.750  17.190
 3081DOPG   C4B58836  14.070  20.470  17.060
 3082DOPG   GL058837  17.120  14.170  11.290
 3082DOPG   PO458838  16.950  14.630  11.110
 3082DOPG   GL158839  17.180  15.030  11.340
 3082DOPG   GL258840  17.450  15.270  11.230
 3082DOPG   C1A58841  17.040  15.250  11.710
 3082DOPG   D2A58842  16.810  15.170  12.010
 3082DOPG   C3A58843  16.700  15.520  12.220
 3082DOPG   C4A58844  16.590  15.840  12.030
 3082DOPG   C1B58845  17.220  15.620  11.440
 3082DOPG   D2B58846  17.150  16.040  11.490
 3082DOPG   C3B58847  16.740  16.150  11.700
 3082DOPG   C4B58848  16.320  16.200  11.700
 3083DOPG   GL058849  25.020  22.450  13.910
 3083DOPG   PO458850  24.990  22.080  14.020
 3083DOPG   GL158851  24.550  21.960  13.820
 3083DOPG   GL258852  24.450  22.150  13.500
 3083DOPG   C1A58853  24.270  21.680  13.480
 3083DOPG   D2A58854  24.050  21.450  13.190
 3083DOPG   C3A58855  23.900  21.630  12.880
 3083DOPG   C4A58856  23.690  22.070  12.810
 3083DOPG   C1B58857  24.200  22.580  13.570
 3083DOPG   D2B58858  23.740  22.670  13.530
 3083DOPG   C3B58859  23.720  22.830  13.190
 3083DOPG   C4B58860  23.850  23.270  13.180
 3084DOPG   GL058861  11.660  24.260  11.020
 3084DOPG   PO458862  11.960  24.100  11.260
 3084DOPG   GL158863  12.290  23.830  11.430
 3084DOPG   GL258864  12.360  23.500  11.300
 3084DOPG   C1A58865  12.730  23.530  11.600
 3084DOPG   D2A58866  12.990  23.580  11.930
 3084DOPG   C3A58867  13.080  23.260  12.220
 3084DOPG   C4A58868  13.280  22.890  12.490
 3084DOPG   C1B58869  12.520  23.160  11.230
 3084DOPG   D2B58870  12.880  23.060  11.280
 3084DOPG   C3B58871  13.270  23.000  10.910
 3084DOPG   C4B58872  13.520  23.240  10.680
 3085DOPG   GL058873  13.760  21.090   7.940
 3085DOPG   PO458874  13.670  21.480   8.130
 3085DOPG   GL158875  13.600  21.110   8.400
 3085DOPG   GL258876  13.480  20.980   8.670
 3085DOPG   C1A58877  13.880  20.740   8.610
 3085DOPG   D2A58878  14.110  20.820   9.030
 3085DOPG   C3A58879  14.380  20.570   9.120
 3085DOPG   C4A58880  14.700  20.240   9.310
 3085DOPG   C1B58881  13.630  20.720   9.020
 3085DOPG   D2B58882  13.760  20.340   9.290
 3085DOPG   C3B58883  14.230  20.380   9.550
 3085DOPG   C4B58884  14.430  20.640   9.790
 3086DOPG   GL058885  17.190  19.340  19.930
 3086DOPG   PO458886  17.000  19.240  19.500
 3086DOPG   GL158887  17.090  19.290  19.090
 3086DOPG   GL258888  17.370  19.370  19.030
 3086DOPG   C1A58889  17.060  19.160  18.600
 3086DOPG   D2A58890  17.040  18.920  18.290
 3086DOPG   C3A58891  17.190  18.920  17.840
 3086DOPG   C4A58892  17.390  18.890  17.440
 3086DOPG   C1B58893  17.460  19.500  18.580
 3086DOPG   D2B58894  17.430  19.630  18.160
 3086DOPG   C3B58895  17.450  19.370  17.730
 3086DOPG   C4B58896  17.470  19.390  17.360
 3087DOPG   GL058897  17.390  22.440   6.080
 3087DOPG   PO458898  17.210  22.600   6.250
 3087DOPG   GL158899  17.330  22.710   6.720
 3087DOPG   GL258900  17.040  22.950   6.790
 3087DOPG   C1A58901  17.590  22.750   7.040
 3087DOPG   D2A58902  17.870  22.920   7.230
 3087DOPG   C3A58903  17.880  23.310   7.150
 3087DOPG   C4A58904  18.200  23.670   7.330
 3087DOPG   C1B58905  16.990  22.760   7.110
 3087DOPG   D2B58906  17.260  22.560   7.390
 3087DOPG   C3B58907  17.250  22.690   7.870
 3087DOPG   C4B58908  17.430  22.540   8.270
 3088DOPG   GL058909  15.620  15.570   9.200
 3088DOPG   PO458910  15.210  15.700   9.170
 3088DOPG   GL158911  15.140  15.850   9.580
 3088DOPG   GL258912  15.440  15.730   9.790
 3088DOPG   C1A58913  14.940  15.750  10.050
 3088DOPG   D2A58914  14.590  15.800  10.350
 3088DOPG   C3A58915  14.320  15.530  10.550
 3088DOPG   C4A58916  14.380  15.140  10.470
 3088DOPG   C1B58917  15.500  16.050  10.140
 3088DOPG   D2B58918  15.490  16.370  10.510
 3088DOPG   C3B58919  15.660  16.690  10.310
 3088DOPG   C4B58920  15.510  17.140  10.550
 3089DOPG   GL058921  17.860  27.590  17.490
 3089DOPG   PO458922  17.600  27.210  17.460
 3089DOPG   GL158923  17.550  26.970  17.030
 3089DOPG   GL258924  17.330  26.770  17.110
 3089DOPG   C1A58925  17.800  26.870  16.660
 3089DOPG   D2A58926  17.810  26.540  16.360
 3089DOPG   C3A58927  18.050  26.170  16.540
 3089DOPG   C4A58928  18.380  25.950  16.400
 3089DOPG   C1B58929  17.380  26.320  17.250
 3089DOPG   D2B58930  17.460  25.760  17.190
 3089DOPG   C3B58931  17.640  25.590  16.930
 3089DOPG   C4B58932  17.880  25.330  16.970
 3090DOPG   GL058933  20.070  28.080   9.550
 3090DOPG   PO458934  20.140  28.310   9.900
 3090DOPG   GL158935  20.260  28.050  10.190
 3090DOPG   GL258936  19.930  27.800  10.160
 3090DOPG   C1A58937  20.370  28.000  10.640
 3090DOPG   D2A58938  20.520  28.020  11.120
 3090DOPG   C3A58939  20.760  28.300  11.420
 3090DOPG   C4A58940  20.880  28.230  11.910
 3090DOPG   C1B58941  19.940  27.750  10.550
 3090DOPG   D2B58942  19.810  27.600  10.960
 3090DOPG   C3B58943  19.400  27.660  11.030
 3090DOPG   C4B58944  18.980  27.860  10.850
 3091DOPG   GL058945  10.000  21.030   2.840
 3091DOPG   PO458946   9.960  20.930   3.230
 3091DOPG   GL158947  10.190  20.940   3.610
 3091DOPG   GL258948  10.480  20.850   3.470
 3091DOPG   C1A58949  10.270  20.950   4.050
 3091DOPG   D2A58950  10.620  20.690   4.300
 3091DOPG   C3A58951  11.050  20.820   4.250
 3091DOPG   C4A58952  11.420  20.930   4.420
 3091DOPG   C1B58953  10.640  20.790   3.750
 3091DOPG   D2B58954  10.890  20.360   3.910
 3091DOPG   C3B58955  11.050  20.340   4.300
 3091DOPG   C4B58956  11.150  20.110   4.720
 3092DOPG   GL058957  16.250  25.810   7.600
 3092DOPG   PO458958  16.130  25.570   7.970
 3092DOPG   GL158959  16.360  25.420   8.400
 3092DOPG   GL258960  16.200  25.070   8.310
 3092DOPG   C1A58961  16.780  25.400   8.620
 3092DOPG   D2A58962  17.010  25.040   8.920
 3092DOPG   C3A58963  17.180  25.110   9.290
 3092DOPG   C4A58964  17.100  24.980   9.620
 3092DOPG   C1B58965  16.470  24.680   8.150
 3092DOPG   D2B58966  16.740  24.480   7.830
 3092DOPG   C3B58967  16.790  23.980   7.840
 3092DOPG   C4B58968  16.700  23.490   7.740
 3093DOPG   GL058969  13.300  25.420  14.050
 3093DOPG   PO458970  13.040  25.540  13.580
 3093DOPG   GL158971  13.320  25.320  13.390
 3093DOPG   GL258972  13.520  25.450  13.130
 3093DOPG   C1A58973  13.510  24.900  13.460
 3093DOPG   D2A58974  13.900  24.670  13.420
 3093DOPG   C3A58975  14.110  24.400  13.690
 3093DOPG   C4A58976  13.810  24.150  13.870
 3093DOPG   C1B58977  13.730  25.420  12.760
 3093DOPG   D2B58978  13.800  25.300  12.440
 3093DOPG   C3B58979  14.220  25.540  12.210
 3093DOPG   C4B58980  14.610  25.340  12.260
 3094DOPG   GL058981  22.930  18.510   8.960
 3094DOPG   PO458982  23.230  18.580   8.660
 3094DOPG   GL158983  23.300  18.330   8.280
 3094DOPG   GL258984  23.410  18.520   8.120
 3094DOPG   C1A58985  23.200  17.990   8.000
 3094DOPG   D2A58986  23.550  17.850   7.720
 3094DOPG   C3A58987  23.610  17.670   7.390
 3094DOPG   C4A58988  23.940  17.740   7.060
 3094DOPG   C1B58989  23.630  18.360   7.730
 3094DOPG   D2B58990  23.770  18.190   7.400
 3094DOPG   C3B58991  24.200  18.150   7.290
 3094DOPG   C4B58992  24.510  18.040   7.660
 3095DOPG   GL058993  16.140  13.370  12.930
 3095DOPG   PO458994  16.180  13.750  12.610
 3095DOPG   GL158995  16.200  14.200  12.640
 3095DOPG   GL258996  16.060  14.560  12.650
 3095DOPG   C1A58997  16.520  14.490  12.500
 3095DOPG   D2A58998  16.580  14.850  12.440
 3095DOPG   C3A58999  16.380  15.080  12.800
 3095DOPG   C4A59000  16.510  15.450  13.050
 3095DOPG   C1B59001  15.900  14.960  12.810
 3095DOPG   D2B59002  15.890  15.210  13.190
 3095DOPG   C3B59003  16.150  15.560  13.320
 3095DOPG   C4B59004  16.310  15.860  13.650
 3096DOPG   GL059005  20.210  15.470   9.260
 3096DOPG   PO459006  20.140  15.780   9.320
 3096DOPG   GL159007  19.870  16.000   9.620
 3096DOPG   GL259008  19.690  16.150   9.500
 3096DOPG   C1A59009  19.730  16.190  10.040
 3096DOPG   D2A59010  19.950  16.200  10.420
 3096DOPG   C3A59011  19.900  16.600  10.620
 3096DOPG   C4A59012  20.200  16.970  10.580
 3096DOPG   C1B59013  19.660  16.620   9.730
 3096DOPG   D2B59014  19.730  16.690  10.170
 3096DOPG   C3B59015  20.110  16.640  10.150
 3096DOPG   C4B59016  20.440  16.530  10.450
 3097DOPG   GL059017  24.070  23.640  17.740
 3097DOPG   PO459018  23.980  23.770  18.090
 3097DOPG   GL159019  23.620  23.750  17.670
 3097DOPG   GL259020  23.690  24.050  17.450
 3097DOPG   C1A59021  23.620  23.610  17.210
 3097DOPG   D2A59022  23.340  23.350  16.970
 3097DOPG   C3A59023  23.330  23.190  16.620
 3097DOPG   C4A59024  23.400  23.160  16.130
 3097DOPG   C1B59025  23.630  24.110  17.010
 3097DOPG   D2B59026  23.670  23.810  16.690
 3097DOPG   C3B59027  23.270  23.670  16.430
 3097DOPG   C4B59028  23.030  23.500  16.130
 3098DOPG   GL059029   9.940  21.260  11.980
 3098DOPG   PO459030  10.140  20.980  12.170
 3098DOPG   GL159031  10.090  20.630  11.980
 3098DOPG   GL259032   9.860  20.440  11.940
 3098DOPG   C1A59033  10.290  20.470  11.700
 3098DOPG   D2A59034  10.520  20.030  11.540
 3098DOPG   C3A59035  10.300  19.690  11.600
 3098DOPG   C4A59036   9.970  19.590  11.440
 3098DOPG   C1B59037   9.520  20.360  11.690
 3098DOPG   D2B59038   9.380  20.000  11.480
 3098DOPG   C3B59039   9.100  19.700  11.230
 3098DOPG   C4B59040   9.150  19.260  11.360
 3099DOPG   GL059041  17.520  14.630  11.180
 3099DOPG   PO459042  17.810  14.890  11.300
 3099DOPG   GL159043  17.930  15.250  11.390
 3099DOPG   GL259044  18.010  15.410  11.080
 3099DOPG   C1A59045  18.010  15.620  11.710
 3099DOPG   D2A59046  17.990  15.680  12.160
 3099DOPG   C3A59047  18.290  16.020  12.400
 3099DOPG   C4A59048  18.440  16.070  12.780
 3099DOPG   C1B59049  18.130  15.850  11.210
 3099DOPG   D2B59050  18.280  16.160  11.420
 3099DOPG   C3B59051  18.390  16.580  11.310
 3099DOPG   C4B59052  18.410  17.080  11.200
 3100DOPG   GL059053  14.570  21.200   7.240
 3100DOPG   PO459054  14.810  21.610   7.290
 3100DOPG   GL159055  14.900  21.810   7.600
 3100DOPG   GL259056  15.170  21.960   7.480
 3100DOPG   C1A59057  15.110  21.690   8.020
 3100DOPG   D2A59058  15.000  21.570   8.440
 3100DOPG   C3A59059  15.200  21.660   8.840
 3100DOPG   C4A59060  15.310  21.570   9.290
 3100DOPG   C1B59061  15.340  22.180   7.910
 3100DOPG   D2B59062  15.340  22.470   8.140
 3100DOPG   C3B59063  15.550  22.600   8.560
 3100DOPG   C4B59064  15.770  22.460   9.020
 3101DOPG   GL059065  18.330  27.340  17.880
 3101DOPG   PO459066  18.550  27.240  17.580
 3101DOPG   GL159067  18.430  27.090  17.200
 3101DOPG   GL259068  18.070  27.120  17.080
 3101DOPG   C1A59069  18.560  26.980  16.810
 3101DOPG   D2A59070  18.680  26.730  16.440
 3101DOPG   C3A59071  18.570  26.790  15.980
 3101DOPG   C4A59072  18.260  27.060  15.760
 3101DOPG   C1B59073  18.210  27.280  16.670
 3101DOPG   D2B59074  18.250  27.410  16.220
 3101DOPG   C3B59075  17.970  27.600  15.870
 3101DOPG   C4B59076  17.680  27.610  15.530
 3102DOPG   GL059077  21.570  22.610  18.970
 3102DOPG   PO459078  21.340  22.710  19.450
 3102DOPG   GL159079  20.990  22.580  19.130
 3102DOPG   GL259080  21.060  22.210  19.230
 3102DOPG   C1A59081  20.620  22.520  18.990
 3102DOPG   D2A59082  20.460  22.170  18.950
 3102DOPG   C3A59083  20.210  22.280  18.660
 3102DOPG   C4A59084  20.280  22.250  18.140
 3102DOPG   C1B59085  20.970  22.040  18.840
 3102DOPG   D2B59086  20.770  22.290  18.480
 3102DOPG   C3B59087  20.540  22.670  18.530
 3102DOPG   C4B59088  20.230  22.780  18.740
 3103DOPG   GL059089  13.230  26.700  12.560
 3103DOPG   PO459090  13.420  26.360  12.740
 3103DOPG   GL159091  13.880  26.350  12.840
 3103DOPG   GL259092  14.140  26.740  12.970
 3103DOPG   C1A59093  14.290  26.050  12.880
 3103DOPG   D2A59094  14.520  25.730  12.660
 3103DOPG   C3A59095  14.860  25.580  12.800
 3103DOPG   C4A59096  15.250  25.470  13.090
 3103DOPG   C1B59097  14.540  26.520  12.750
 3103DOPG   D2B59098  14.730  26.150  12.710
 3103DOPG   C3B59099  15.200  25.950  12.880
 3103DOPG   C4B59100  15.470  25.780  12.740
 3104DOPG   GL059101  20.000  16.030   7.440
 3104DOPG   PO459102  20.100  16.340   7.130
 3104DOPG   GL159103  20.360  16.100   7.130
 3104DOPG   GL259104  20.070  15.880   6.960
 3104DOPG   C1A59105  20.570  15.740   7.030
 3104DOPG   D2A59106  20.670  15.350   6.850
 3104DOPG   C3A59107  21.000  15.130   6.780
 3104DOPG   C4A59108  21.460  14.860   6.500
 3104DOPG   C1B59109  20.340  15.900   6.580
 3104DOPG   D2B59110  20.580  15.780   6.180
 3104DOPG   C3B59111  21.010  15.820   5.980
 3104DOPG   C4B59112  21.440  16.020   5.700
 3105DOPG   GL059113  27.230  19.630   5.700
 3105DOPG   PO459114  27.000  20.030   5.690
 3105DOPG   GL159115  26.530  20.050   5.740
 3105DOPG   GL259116  26.160  20.120   5.530
 3105DOPG   C1A59117  26.260  20.280   6.080
 3105DOPG   D2A59118  26.160  20.280   6.430
 3105DOPG   C3A59119  26.390  20.140   6.740
 3105DOPG   C4A59120  26.400  19.730   6.960
 3105DOPG   C1B59121  25.830  19.930   5.730
 3105DOPG   D2B59122  25.520  19.950   6.080
 3105DOPG   C3B59123  25.530  19.740   6.480
 3105DOPG   C4B59124  25.380  19.740   6.850
 3106DOPG   GL059125  13.790  23.610   8.200
 3106DOPG   PO459126  14.160  23.580   8.200
 3106DOPG   GL159127  14.490  23.280   8.350
 3106DOPG   GL259128  14.260  23.260   8.580
 3106DOPG   C1A59129  14.560  22.870   8.460
 3106DOPG   D2A59130  14.910  22.530   8.640
 3106DOPG   C3A59131  14.860  22.070   8.710
 3106DOPG   C4A59132  14.880  21.850   9.160
 3106DOPG   C1B59133  14.510  22.990   8.900
 3106DOPG   D2B59134  14.970  23.050   9.060
 3106DOPG   C3B59135  15.270  22.650   9.120
 3106DOPG   C4B59136  15.240  22.230   9.010
 3107DOPG   GL059137  21.720  17.540   9.490
 3107DOPG   PO459138  21.930  17.850   9.350
 3107DOPG   GL159139  21.690  18.120   9.630
 3107DOPG   GL259140  21.570  17.970   9.840
 3107DOPG   C1A59141  21.170  18.360   9.850
 3107DOPG   D2A59142  20.690  18.250   9.810
 3107DOPG   C3A59143  20.410  18.500   9.950
 3107DOPG   C4A59144  20.040  18.780   9.850
 3107DOPG   C1B59145  21.500  18.330  10.210
 3107DOPG   D2B59146  21.350  18.390  10.570
 3107DOPG   C3B59147  21.000  18.560  10.670
 3107DOPG   C4B59148  20.580  18.790  10.540
 3108DOPG   GL059149  22.370  27.800  15.610
 3108DOPG   PO459150  22.830  27.830  15.470
 3108DOPG   GL159151  22.640  27.380  15.300
 3108DOPG   GL259152  22.510  27.460  15.050
 3108DOPG   C1A59153  22.740  26.990  15.070
 3108DOPG   D2A59154  23.050  26.590  14.970
 3108DOPG   C3A59155  23.040  26.240  14.670
 3108DOPG   C4A59156  23.130  25.760  14.740
 3108DOPG   C1B59157  22.120  27.530  15.000
 3108DOPG   D2B59158  21.750  27.440  14.820
 3108DOPG   C3B59159  21.800  27.160  14.510
 3108DOPG   C4B59160  21.780  26.740  14.410
 3109DOPG   GL059161  14.700  27.790  11.200
 3109DOPG   PO459162  15.040  27.720  11.370
 3109DOPG   GL159163  15.230  27.330  11.370
 3109DOPG   GL259164  15.210  27.010  11.170
 3109DOPG   C1A59165  15.490  26.910  11.500
 3109DOPG   D2A59166  15.730  26.800  11.840
 3109DOPG   C3A59167  15.890  26.610  12.130
 3109DOPG   C4A59168  16.210  26.260  12.140
 3109DOPG   C1B59169  15.300  26.630  11.060
 3109DOPG   D2B59170  15.530  26.290  11.060
 3109DOPG   C3B59171  15.880  26.210  11.110
 3109DOPG   C4B59172  16.080  25.810  11.260
 3110DOPG   GL059173  19.720  28.800  13.190
 3110DOPG   PO459174  19.840  28.980  12.790
 3110DOPG   GL159175  19.860  28.530  12.750
 3110DOPG   GL259176  19.720  28.260  12.700
 3110DOPG   C1A59177  20.210  28.020  12.900
 3110DOPG   D2A59178  20.290  27.690  13.180
 3110DOPG   C3A59179  20.460  27.230  13.060
 3110DOPG   C4A59180  20.300  26.900  12.800
 3110DOPG   C1B59181  20.150  28.210  12.480
 3110DOPG   D2B59182  20.190  27.830  12.430
 3110DOPG   C3B59183  20.610  27.710  12.680
 3110DOPG   C4B59184  20.760  27.790  13.100
 3111DOPG   GL059185  24.650  21.300  16.020
 3111DOPG   PO459186  24.680  21.740  15.760
 3111DOPG   GL159187  24.290  21.840  15.840
 3111DOPG   GL259188  24.110  21.700  16.070
 3111DOPG   C1A59189  23.960  22.280  15.990
 3111DOPG   D2A59190  23.760  22.700  15.920
 3111DOPG   C3A59191  23.320  22.680  15.900
 3111DOPG   C4A59192  23.000  22.780  16.130
 3111DOPG   C1B59193  23.720  21.790  15.810
 3111DOPG   D2B59194  23.470  22.140  15.740
 3111DOPG   C3B59195  23.250  22.330  15.560
 3111DOPG   C4B59196  22.960  22.380  15.350
 3112DOPG   GL059197  11.780  19.640   9.490
 3112DOPG   PO459198  12.110  19.960   9.380
 3112DOPG   GL159199  12.310  19.880   9.670
 3112DOPG   GL259200  12.470  19.660   9.670
 3112DOPG   C1A59201  12.160  19.760  10.060
 3112DOPG   D2A59202  11.950  19.520  10.320
 3112DOPG   C3A59203  11.730  19.600  10.620
 3112DOPG   C4A59204  11.570  19.550  11.100
 3112DOPG   C1B59205  12.710  19.560  10.040
 3112DOPG   D2B59206  12.430  19.300  10.220
 3112DOPG   C3B59207  12.570  19.110  10.520
 3112DOPG   C4B59208  12.460  18.860  10.930
 3113DOPG   GL059209  19.590  27.970   9.740
 3113DOPG   PO459210  19.300  28.070  10.110
 3113DOPG   GL159211  19.180  27.700  10.410
 3113DOPG   GL259212  18.970  27.650  10.100
 3113DOPG   C1A59213  19.120  27.370  10.710
 3113DOPG   D2A59214  19.100  27.020  10.740
 3113DOPG   C3A59215  19.320  26.680  10.830
 3113DOPG   C4A59216  19.400  26.490  11.250
 3113DOPG   C1B59217  19.110  27.300  10.210
 3113DOPG   D2B59218  18.790  27.050  10.360
 3113DOPG   C3B59219  18.550  26.640  10.400
 3113DOPG   C4B59220  18.580  26.230  10.600
 3114DOPG   GL059221  12.550  23.240  16.140
 3114DOPG   PO459222  12.850  23.480  16.370
 3114DOPG   GL159223  13.130  23.390  16.220
 3114DOPG   GL259224  13.410  23.680  16.120
 3114DOPG   C1A59225  13.590  23.160  16.200
 3114DOPG   D2A59226  13.950  22.960  15.980
 3114DOPG   C3A59227  14.300  22.820  16.170
 3114DOPG   C4A59228  14.760  22.820  16.130
 3114DOPG   C1B59229  13.580  23.440  15.810
 3114DOPG   D2B59230  13.900  23.300  15.510
 3114DOPG   C3B59231  14.250  23.670  15.420
 3114DOPG   C4B59232  14.620  23.520  15.270
 3115DOPG   GL059233  17.720  17.280   6.950
 3115DOPG   PO459234  17.790  17.380   7.440
 3115DOPG   GL159235  17.820  17.710   7.800
 3115DOPG   GL259236  17.880  18.030   7.730
 3115DOPG   C1A59237  17.930  17.700   8.340
 3115DOPG   D2A59238  17.910  17.620   8.750
 3115DOPG   C3A59239  17.850  17.840   9.000
 3115DOPG   C4A59240  17.880  18.160   9.300
 3115DOPG   C1B59241  18.290  18.270   7.840
 3115DOPG   D2B59242  18.330  18.670   8.060
 3115DOPG   C3B59243  17.940  18.780   8.230
 3115DOPG   C4B59244  17.490  18.750   7.990
 3116DOPG   GL059245  12.210  24.130  15.670
 3116DOPG   PO459246  12.390  23.740  15.990
 3116DOPG   GL159247  12.820  23.690  15.870
 3116DOPG   GL259248  13.040  23.410  15.730
 3116DOPG   C1A59249  13.100  23.880  15.730
 3116DOPG   D2A59250  13.260  23.980  15.370
 3116DOPG   C3A59251  13.200  23.790  15.000
 3116DOPG   C4A59252  13.440  23.580  14.700
 3116DOPG   C1B59253  13.250  23.020  15.870
 3116DOPG   D2B59254  13.550  22.760  15.570
 3116DOPG   C3B59255  14.000  22.740  15.540
 3116DOPG   C4B59256  14.450  22.690  15.730
 3117DOPG   GL059257  18.270  23.250  19.590
 3117DOPG   PO459258  18.590  23.200  19.380
 3117DOPG   GL159259  18.540  23.320  18.980
 3117DOPG   GL259260  18.310  23.060  18.720
 3117DOPG   C1A59261  18.800  23.350  18.680
 3117DOPG   D2A59262  18.770  22.950  18.450
 3117DOPG   C3A59263  18.660  22.860  18.000
 3117DOPG   C4A59264  18.920  22.720  17.720
 3117DOPG   C1B59265  18.330  23.250  18.250
 3117DOPG   D2B59266  18.490  23.280  17.780
 3117DOPG   C3B59267  18.980  23.200  17.760
 3117DOPG   C4B59268  19.410  23.090  17.920
 3118DOPG   GL059269  11.690  20.890  16.780
 3118DOPG   PO459270  11.400  20.940  16.460
 3118DOPG   GL159271  11.520  20.780  15.960
 3118DOPG   GL259272  11.340  20.420  15.790
 3118DOPG   C1A59273  11.630  20.660  15.500
 3118DOPG   D2A59274  11.720  20.290  15.220
 3118DOPG   C3A59275  12.030  20.260  14.940
 3118DOPG   C4A59276  12.540  20.330  14.770
 3118DOPG   C1B59277  11.650  20.160  15.670
 3118DOPG   D2B59278  12.090  20.300  15.500
 3118DOPG   C3B59279  12.240  20.700  15.130
 3118DOPG   C4B59280  12.410  20.780  14.710
 3119DOPG   GL059281  30.290  20.820  15.490
 3119DOPG   PO459282  30.030  20.430  15.500
 3119DOPG   GL159283  29.730  20.510  15.660
 3119DOPG   GL259284  29.780  20.870  15.710
 3119DOPG   C1A59285  29.340  20.600  15.470
 3119DOPG   D2A59286  28.940  20.610  15.240
 3119DOPG   C3A59287  28.540  20.780  15.240
 3119DOPG   C4A59288  28.390  20.900  15.610
 3119DOPG   C1B59289  29.710  20.930  15.310
 3119DOPG   D2B59290  29.330  20.790  15.000
 3119DOPG   C3B59291  29.260  20.490  14.620
 3119DOPG   C4B59292  29.260  20.050  14.630
 3120DOPG   GL059293  20.220  14.230  12.950
 3120DOPG   PO459294  20.440  14.640  12.810
 3120DOPG   GL159295  20.410  15.050  12.960
 3120DOPG   GL259296  20.350  15.150  12.720
 3120DOPG   C1A59297  20.170  15.490  13.090
 3120DOPG   D2A59298  19.850  15.780  12.970
 3120DOPG   C3A59299  19.650  15.840  12.620
 3120DOPG   C4A59300  19.870  16.100  12.320
 3120DOPG   C1B59301  19.900  15.150  12.860
 3120DOPG   D2B59302  19.530  14.910  13.090
 3120DOPG   C3B59303  19.140  15.200  13.090
 3120DOPG   C4B59304  18.880  15.600  13.110
 3121DOPG   GL059305  18.840  14.380  12.950
 3121DOPG   PO459306  19.030  14.210  13.290
 3121DOPG   GL159307  18.750  14.510  13.530
 3121DOPG   GL259308  18.560  14.580  13.690
 3121DOPG   C1A59309  18.630  14.970  13.400
 3121DOPG   D2A59310  18.540  15.300  13.190
 3121DOPG   C3A59311  18.530  15.720  13.420
 3121DOPG   C4A59312  18.630  15.940  13.770
 3121DOPG   C1B59313  18.120  14.660  13.780
 3121DOPG   D2B59314  17.840  15.010  13.910
 3121DOPG   C3B59315  17.500  14.990  14.240
 3121DOPG   C4B59316  17.080  15.080  14.470
 3122DOPG   GL059317  26.080  16.420   5.730
 3122DOPG   PO459318  26.180  16.320   6.070
 3122DOPG   GL159319  25.800  16.440   6.390
 3122DOPG   GL259320  25.760  16.800   6.490
 3122DOPG   C1A59321  25.280  16.430   6.700
 3122DOPG   D2A59322  24.850  16.540   6.930
 3122DOPG   C3A59323  24.900  16.950   7.120
 3122DOPG   C4A59324  24.590  17.130   7.120
 3122DOPG   C1B59325  25.870  17.130   6.740
 3122DOPG   D2B59326  26.110  17.350   7.000
 3122DOPG   C3B59327  26.040  17.780   7.090
 3122DOPG   C4B59328  25.660  17.970   7.010
 3123DOPG   GL059329  23.860  18.400  15.070
 3123DOPG   PO459330  23.740  18.130  14.780
 3123DOPG   GL159331  23.300  18.340  14.890
 3123DOPG   GL259332  23.220  18.500  14.610
 3123DOPG   C1A59333  22.920  18.510  15.150
 3123DOPG   D2A59334  22.650  18.560  15.460
 3123DOPG   C3A59335  22.340  18.800  15.300
 3123DOPG   C4A59336  22.090  19.070  15.170
 3123DOPG   C1B59337  23.000  18.410  14.300
 3123DOPG   D2B59338  22.540  18.240  14.330
 3123DOPG   C3B59339  22.250  18.540  14.170
 3123DOPG   C4B59340  21.870  18.490  13.950
 3124DOPG   GL059341  13.680  22.870   7.650
 3124DOPG   PO459342  13.980  22.670   7.870
 3124DOPG   GL159343  14.260  22.430   8.130
 3124DOPG   GL259344  14.460  22.110   8.300
 3124DOPG   C1A59345  14.420  22.470   8.660
 3124DOPG   D2A59346  14.720  22.560   9.090
 3124DOPG   C3A59347  14.690  22.220   9.520
 3124DOPG   C4A59348  14.620  21.740   9.560
 3124DOPG   C1B59349  14.330  21.950   8.730
 3124DOPG   D2B59350  14.410  22.080   9.100
 3124DOPG   C3B59351  14.110  22.460   9.250
 3124DOPG   C4B59352  14.040  22.870   9.400
 3125DOPG   GL059353  15.410  16.900  17.810
 3125DOPG   PO459354  15.570  16.870  17.500
 3125DOPG   GL159355  15.410  17.280  17.460
 3125DOPG   GL259356  15.490  17.250  17.180
 3125DOPG   C1A59357  15.490  17.760  17.290
 3125DOPG   D2A59358  15.770  18.030  17.480
 3125DOPG   C3A59359  16.190  18.130  17.490
 3125DOPG   C4A59360  16.380  18.400  17.840
 3125DOPG   C1B59361  15.640  17.550  16.820
 3125DOPG   D2B59362  15.630  17.970  16.880
 3125DOPG   C3B59363  15.410  18.240  17.250
 3125DOPG   C4B59364  14.990  18.350  17.250
 3126DOPG   GL059365  13.760  11.100  20.740
 3126DOPG   PO459366  14.070  10.890  20.590
 3126DOPG   GL159367  14.100  11.180  20.210
 3126DOPG   GL259368  14.020  11.510  20.310
 3126DOPG   C1A59369  13.960  11.240  19.750
 3126DOPG   D2A59370  13.960  11.490  19.370
 3126DOPG   C3A59371  13.540  11.610  19.170
 3126DOPG   C4A59372  13.280  11.960  19.070
 3126DOPG   C1B59373  13.890  11.750  19.940
 3126DOPG   D2B59374  13.710  11.870  19.550
 3126DOPG   C3B59375  13.870  12.350  19.340
 3126DOPG   C4B59376  13.990  12.480  19.010
 3127DOPG   GL059377  21.790  14.740  11.620
 3127DOPG   PO459378  21.530  14.780  11.290
 3127DOPG   GL159379  21.820  14.440  11.200
 3127DOPG   GL259380  21.990  14.270  11.480
 3127DOPG   C1A59381  21.880  14.150  10.850
 3127DOPG   D2A59382  22.210  13.860  10.840
 3127DOPG   C3A59383  22.160  13.370  10.790
 3127DOPG   C4A59384  22.020  12.910  10.600
 3127DOPG   C1B59385  22.320  14.190  11.210
 3127DOPG   D2B59386  22.700  13.890  11.140
 3127DOPG   C3B59387  22.910  13.870  10.710
 3127DOPG   C4B59388  23.130  13.660  10.300
 3128DOPG   GL059389  16.070  15.770  16.810
 3128DOPG   PO459390  15.720  15.860  17.060
 3128DOPG   GL159391  15.820  16.240  16.870
 3128DOPG   GL259392  16.120  16.340  16.730
 3128DOPG   C1A59393  15.660  16.480  16.570
 3128DOPG   D2A59394  15.580  16.320  16.270
 3128DOPG   C3A59395  15.200  16.350  15.990
 3128DOPG   C4A59396  14.900  16.190  15.640
 3128DOPG   C1B59397  16.190  16.750  16.580
 3128DOPG   D2B59398  16.320  16.960  16.170
 3128DOPG   C3B59399  16.100  17.300  16.160
 3128DOPG   C4B59400  15.750  17.570  16.190
 3129DOPG   GL059401  22.570  28.680  14.660
 3129DOPG   PO459402  22.360  28.150  14.780
 3129DOPG   GL159403  22.310  27.790  14.660
 3129DOPG   GL259404  22.610  27.670  14.500
 3129DOPG   C1A59405  22.270  27.290  14.610
 3129DOPG   D2A59406  22.140  27.040  14.890
 3129DOPG   C3A59407  22.200  26.900  15.240
 3129DOPG   C4A59408  22.060  26.870  15.680
 3129DOPG   C1B59409  22.430  27.620  14.160
 3129DOPG   D2B59410  22.450  27.820  13.720
 3129DOPG   C3B59411  22.800  27.590  13.510
 3129DOPG   C4B59412  23.150  27.310  13.300
 3130DOPG   GL059413  16.400  21.200   6.300
 3130DOPG   PO459414  16.570  20.910   6.610
 3130DOPG   GL159415  16.780  20.990   6.970
 3130DOPG   GL259416  16.800  21.220   7.070
 3130DOPG   C1A59417  17.180  20.850   7.130
 3130DOPG   D2A59418  17.570  20.830   7.230
 3130DOPG   C3A59419  17.850  21.120   7.440
 3130DOPG   C4A59420  18.240  20.940   7.570
 3130DOPG   C1B59421  16.850  21.110   7.500
 3130DOPG   D2B59422  16.700  21.190   7.880
 3130DOPG   C3B59423  16.320  21.160   7.970
 3130DOPG   C4B59424  16.000  21.170   8.390
 3131DOPG   GL059425  22.450  24.140   7.890
 3131DOPG   PO459426  22.820  23.910   8.000
 3131DOPG   GL159427  22.620  23.880   8.370
 3131DOPG   GL259428  22.860  23.820   8.550
 3131DOPG   C1A59429  22.280  23.860   8.500
 3131DOPG   D2A59430  21.890  23.690   8.760
 3131DOPG   C3A59431  21.810  23.870   9.060
 3131DOPG   C4A59432  21.570  24.040   9.390
 3131DOPG   C1B59433  22.610  24.020   8.920
 3131DOPG   D2B59434  22.350  23.820   9.170
 3131DOPG   C3B59435  22.050  23.650   9.400
 3131DOPG   C4B59436  21.720  23.380   9.480
 3132DOPG   GL059437  21.450  29.130   4.540
 3132DOPG   PO459438  21.320  29.530   4.500
 3132DOPG   GL159439  21.020  29.320   4.800
 3132DOPG   GL259440  21.060  29.040   4.820
 3132DOPG   C1A59441  20.620  28.940   4.860
 3132DOPG   D2A59442  20.430  28.680   4.840
 3132DOPG   C3A59443  20.380  28.620   5.230
 3132DOPG   C4A59444  20.590  28.540   5.550
 3132DOPG   C1B59445  21.290  28.760   4.690
 3132DOPG   D2B59446  21.330  28.290   4.790
 3132DOPG   C3B59447  21.630  28.020   4.480
 3132DOPG   C4B59448  21.680  28.030   4.090
 3133DOPG   GL059449  14.450  24.790  17.660
 3133DOPG   PO459450  14.500  24.310  17.620
 3133DOPG   GL159451  14.890  24.170  17.440
 3133DOPG   GL259452  14.890  24.290  17.110
 3133DOPG   C1A59453  15.070  23.740  17.210
 3133DOPG   D2A59454  15.200  23.250  17.160
 3133DOPG   C3A59455  15.320  23.030  16.800
 3133DOPG   C4A59456  15.290  22.830  16.440
 3133DOPG   C1B59457  15.110  24.060  16.780
 3133DOPG   D2B59458  15.350  24.020  16.450
 3133DOPG   C3B59459  15.240  23.580  16.240
 3133DOPG   C4B59460  15.130  23.230  15.980
 3134DOPG   GL059461  17.600  25.040  19.340
 3134DOPG   PO459462  17.960  24.920  19.240
 3134DOPG   GL159463  17.780  24.880  18.860
 3134DOPG   GL259464  17.740  25.100  18.670
 3134DOPG   C1A59465  17.820  24.460  18.650
 3134DOPG   D2A59466  17.930  24.190  18.310
 3134DOPG   C3A59467  18.220  24.330  17.920
 3134DOPG   C4A59468  18.290  24.480  17.590
 3134DOPG   C1B59469  18.120  25.330  18.370
 3134DOPG   D2B59470  18.310  25.660  18.300
 3134DOPG   C3B59471  18.200  25.720  17.950
 3134DOPG   C4B59472  18.290  25.950  17.550
 3135DOPG   GL059473  14.860  20.250  19.400
 3135DOPG   PO459474  14.820  20.040  19.040
 3135DOPG   GL159475  15.050  20.050  18.600
 3135DOPG   GL259476  14.750  20.010  18.310
 3135DOPG   C1A59477  15.320  20.330  18.460
 3135DOPG   D2A59478  15.450  20.510  18.200
 3135DOPG   C3A59479  15.570  20.660  17.800
 3135DOPG   C4A59480  15.780  20.810  17.340
 3135DOPG   C1B59481  15.210  19.920  18.150
 3135DOPG   D2B59482  15.450  20.130  17.900
 3135DOPG   C3B59483  15.420  20.110  17.400
 3135DOPG   C4B59484  15.430  20.520  17.180
 3136DOPG   GL059485   9.060  15.690   7.800
 3136DOPG   PO459486   9.190  15.890   7.400
 3136DOPG   GL159487   9.540  16.010   7.620
 3136DOPG   GL259488   9.850  15.960   7.340
 3136DOPG   C1A59489   9.890  16.220   7.780
 3136DOPG   D2A59490  10.140  16.500   7.690
 3136DOPG   C3A59491  10.020  16.480   7.240
 3136DOPG   C4A59492  10.170  16.350   6.910
 3136DOPG   C1B59493  10.290  16.090   7.500
 3136DOPG   D2B59494  10.790  16.010   7.540
 3136DOPG   C3B59495  10.980  16.110   7.140
 3136DOPG   C4B59496  11.270  16.180   6.750
 3137DOPG   GL059497  19.720  25.860   7.810
 3137DOPG   PO459498  19.780  26.130   8.060
 3137DOPG   GL159499  19.500  26.120   8.380
 3137DOPG   GL259500  19.580  25.760   8.340
 3137DOPG   C1A59501  19.350  25.940   8.760
 3137DOPG   D2A59502  19.380  25.730   9.180
 3137DOPG   C3A59503  19.080  25.510   9.310
 3137DOPG   C4A59504  18.850  25.140   9.440
 3137DOPG   C1B59505  19.730  25.550   8.610
 3137DOPG   D2B59506  19.830  25.510   9.100
 3137DOPG   C3B59507  20.010  25.280   9.390
 3137DOPG   C4B59508  20.350  25.130   9.580
 3138DOPG   GL059509  24.470  22.360  10.080
 3138DOPG   PO459510  24.350  22.210  10.450
 3138DOPG   GL159511  24.010  22.180  10.750
 3138DOPG   GL259512  23.760  22.390  10.680
 3138DOPG   C1A59513  23.880  22.030  11.170
 3138DOPG   D2A59514  23.790  22.180  11.620
 3138DOPG   C3A59515  23.840  22.590  11.900
 3138DOPG   C4A59516  23.690  22.870  12.120
 3138DOPG   C1B59517  23.510  22.280  10.980
 3138DOPG   D2B59518  23.230  22.340  11.290
 3138DOPG   C3B59519  23.250  22.450  11.720
 3138DOPG   C4B59520  23.010  22.370  12.100
 3139DOPG   GL059521  10.150  16.460   4.690
 3139DOPG   PO459522   9.770  16.620   4.540
 3139DOPG   GL159523   9.990  17.000   4.670
 3139DOPG   GL259524   9.720  17.270   4.530
 3139DOPG   C1A59525  10.030  17.370   4.890
 3139DOPG   D2A59526  10.130  17.730   5.190
 3139DOPG   C3A59527   9.990  18.150   5.420
 3139DOPG   C4A59528   9.620  18.540   5.480
 3139DOPG   C1B59529   9.550  17.530   4.980
 3139DOPG   D2B59530   9.750  17.970   5.030
 3139DOPG   C3B59531  10.080  18.170   4.860
 3139DOPG   C4B59532  10.250  18.500   4.980
 3140DOPG   GL059533  15.130  15.250   6.000
 3140DOPG   PO459534  15.560  15.100   5.770
 3140DOPG   GL159535  15.570  14.690   5.620
 3140DOPG   GL259536  15.880  14.720   5.420
 3140DOPG   C1A59537  15.410  14.500   5.200
 3140DOPG   D2A59538  15.510  14.440   4.700
 3140DOPG   C3A59539  15.180  14.300   4.490
 3140DOPG   C4A59540  14.780  14.460   4.630
 3140DOPG   C1B59541  15.680  14.890   5.000
 3140DOPG   D2B59542  15.790  14.850   4.500
 3140DOPG   C3B59543  16.140  14.990   4.210
 3140DOPG   C4B59544  16.710  15.030   4.270
 3141DOPG   GL059545  13.870  22.980   6.670
 3141DOPG   PO459546  13.580  22.770   6.460
 3141DOPG   GL159547  13.390  22.550   5.930
 3141DOPG   GL259548  13.070  22.380   5.870
 3141DOPG   C1A59549  13.260  22.670   5.500
 3141DOPG   D2A59550  12.820  22.670   5.350
 3141DOPG   C3A59551  12.550  22.420   5.050
 3141DOPG   C4A59552  12.470  22.180   4.690
 3141DOPG   C1B59553  12.860  22.780   5.860
 3141DOPG   D2B59554  12.420  22.890   5.780
 3141DOPG   C3B59555  12.170  22.960   6.240
 3141DOPG   C4B59556  12.190  23.100   6.700
 3142DOPG   GL059557  20.960  17.520  18.240
 3142DOPG   PO459558  20.530  17.330  18.130
 3142DOPG   GL159559  20.230  17.450  17.810
 3142DOPG   GL259560  20.470  17.390  17.490
 3142DOPG   C1A59561  20.130  17.880  17.920
 3142DOPG   D2A59562  20.330  18.430  17.900
 3142DOPG   C3A59563  20.180  18.800  17.920
 3142DOPG   C4A59564  20.380  19.270  17.770
 3142DOPG   C1B59565  20.260  17.790  17.450
 3142DOPG   D2B59566  20.180  18.170  17.470
 3142DOPG   C3B59567  19.900  18.320  17.650
 3142DOPG   C4B59568  19.870  18.380  18.050
 3143DOPG   GL059569  11.200  16.160   2.120
 3143DOPG   PO459570  11.220  16.630   2.200
 3143DOPG   GL159571  11.450  16.920   2.470
 3143DOPG   GL259572  11.230  16.700   2.760
 3143DOPG   C1A59573  11.810  16.910   2.820
 3143DOPG   D2A59574  11.910  16.850   3.200
 3143DOPG   C3A59575  12.330  16.950   3.180
 3143DOPG   C4A59576  12.610  17.090   3.500
 3143DOPG   C1B59577  11.340  16.810   3.130
 3143DOPG   D2B59578  11.620  16.650   3.510
 3143DOPG   C3B59579  11.450  16.310   3.770
 3143DOPG   C4B59580  11.460  16.040   4.210
 3144DOPG   GL059581  15.910  22.260   5.490
 3144DOPG   PO459582  16.000  22.440   5.090
 3144DOPG   GL159583  15.710  22.580   4.890
 3144DOPG   GL259584  15.400  22.680   4.990
 3144DOPG   C1A59585  15.780  22.960   4.580
 3144DOPG   D2A59586  15.710  23.400   4.730
 3144DOPG   C3A59587  15.560  23.690   4.440
 3144DOPG   C4A59588  15.630  24.090   4.270
 3144DOPG   C1B59589  15.260  22.980   4.720
 3144DOPG   D2B59590  15.070  23.160   4.480
 3144DOPG   C3B59591  14.850  23.380   4.230
 3144DOPG   C4B59592  14.710  23.690   3.850
 3145DOPG   GL059593   5.160  18.690  14.190
 3145DOPG   PO459594   5.430  18.980  14.060
 3145DOPG   GL159595   5.800  19.260  14.150
 3145DOPG   GL259596   6.090  19.450  13.870
 3145DOPG   C1A59597   5.900  19.650  14.340
 3145DOPG   D2A59598   5.890  19.940  14.730
 3145DOPG   C3A59599   5.950  20.330  14.560
 3145DOPG   C4A59600   5.970  20.740  14.690
 3145DOPG   C1B59601   6.320  19.200  14.160
 3145DOPG   D2B59602   6.190  18.910  14.490
 3145DOPG   C3B59603   6.430  18.680  14.690
 3145DOPG   C4B59604   6.530  18.240  14.760
 3146DOPG   GL059605  10.100  24.200  13.290
 3146DOPG   PO459606   9.870  24.580  13.360
 3146DOPG   GL159607   9.610  24.950  13.530
 3146DOPG   GL259608   9.330  24.950  13.420
 3146DOPG   C1A59609   9.320  25.130  13.870
 3146DOPG   D2A59610   8.970  25.280  14.010
 3146DOPG   C3A59611   8.900  25.770  13.950
 3146DOPG   C4A59612   8.840  25.970  13.670
 3146DOPG   C1B59613   9.080  25.310  13.400
 3146DOPG   D2B59614   8.660  25.500  13.520
 3146DOPG   C3B59615   8.370  25.710  13.630
 3146DOPG   C4B59616   8.340  25.970  13.910
 3147DOPG   GL059617  20.060  29.410  14.610
 3147DOPG   PO459618  19.940  29.000  14.720
 3147DOPG   GL159619  20.220  28.860  14.310
 3147DOPG   GL259620  20.530  28.630  14.410
 3147DOPG   C1A59621  20.120  28.410  13.970
 3147DOPG   D2A59622  19.950  28.020  13.800
 3147DOPG   C3A59623  20.190  27.700  13.820
 3147DOPG   C4A59624  20.120  27.240  14.100
 3147DOPG   C1B59625  20.410  28.160  14.460
 3147DOPG   D2B59626  20.130  27.880  14.250
 3147DOPG   C3B59627  20.040  27.560  14.580
 3147DOPG   C4B59628  19.830  27.550  14.910
 3148DOPG   GL059629  18.030  13.080   2.210
 3148DOPG   PO459630  17.620  12.980   2.320
 3148DOPG   GL159631  17.520  13.110   2.750
 3148DOPG   GL259632  17.730  13.240   3.000
 3148DOPG   C1A59633  17.220  13.270   2.990
 3148DOPG   D2A59634  17.090  13.380   3.400
 3148DOPG   C3A59635  17.140  13.740   3.670
 3148DOPG   C4A59636  17.350  14.130   3.690
 3148DOPG   C1B59637  17.700  12.880   3.200
 3148DOPG   D2B59638  17.750  12.710   3.580
 3148DOPG   C3B59639  18.010  12.600   3.920
 3148DOPG   C4B59640  18.060  12.910   4.290
 3149DOPG   GL059641  12.810  18.160  17.080
 3149DOPG   PO459642  12.840  18.510  17.370
 3149DOPG   GL159643  13.000  18.650  16.990
 3149DOPG   GL259644  12.870  19.000  16.820
 3149DOPG   C1A59645  13.260  18.770  16.670
 3149DOPG   D2A59646  13.540  18.840  16.390
 3149DOPG   C3A59647  13.420  18.730  16.040
 3149DOPG   C4A59648  13.570  18.610  15.680
 3149DOPG   C1B59649  12.960  19.270  17.090
 3149DOPG   D2B59650  13.180  19.450  17.450
 3149DOPG   C3B59651  13.430  19.800  17.400
 3149DOPG   C4B59652  13.690  20.090  17.710
 3150DOPG   GL059653  20.940  24.860  19.790
 3150DOPG   PO459654  21.030  24.630  20.130
 3150DOPG   GL159655  21.080  24.850  20.470
 3150DOPG   GL259656  20.900  25.130  20.330
 3150DOPG   C1A59657  21.290  25.240  20.640
 3150DOPG   D2A59658  21.690  25.550  20.840
 3150DOPG   C3A59659  22.000  25.880  20.680
 3150DOPG   C4A59660  22.120  26.350  20.700
 3150DOPG   C1B59661  20.790  25.120  20.740
 3150DOPG   D2B59662  20.620  25.160  21.100
 3150DOPG   C3B59663  20.220  25.390  21.270
 3150DOPG   C4B59664  20.210  25.750  21.620
 3151DOPG   GL059665  10.390  25.270  11.700
 3151DOPG   PO459666  10.560  25.610  11.550
 3151DOPG   GL159667  10.170  25.790  11.610
 3151DOPG   GL259668   9.930  25.430  11.720
 3151DOPG   C1A59669  10.110  25.900  11.960
 3151DOPG   D2A59670   9.970  26.180  12.240
 3151DOPG   C3A59671   9.640  26.430  12.350
 3151DOPG   C4A59672   9.230  26.520  12.510
 3151DOPG   C1B59673   9.610  25.780  11.770
 3151DOPG   D2B59674   9.630  26.110  11.920
 3151DOPG   C3B59675   9.290  26.390  11.780
 3151DOPG   C4B59676   9.030  26.600  11.650
 3152DOPG   GL059677  14.270  26.470  16.280
 3152DOPG   PO459678  14.640  26.250  16.530
 3152DOPG   GL159679  14.740  25.860  16.230
 3152DOPG   GL259680  14.500  25.660  15.990
 3152DOPG   C1A59681  14.900  25.760  15.760
 3152DOPG   D2A59682  15.220  25.840  15.370
 3152DOPG   C3A59683  15.210  25.710  14.990
 3152DOPG   C4A59684  15.250  25.370  14.670
 3152DOPG   C1B59685  14.530  25.270  15.740
 3152DOPG   D2B59686  14.420  24.820  15.810
 3152DOPG   C3B59687  14.340  24.690  15.370
 3152DOPG   C4B59688  14.370  24.490  14.950
 3153DOPG   GL059689  19.540  24.640  19.530
 3153DOPG   PO459690  19.070  24.440  19.650
 3153DOPG   GL159691  19.230  24.380  19.260
 3153DOPG   GL259692  19.010  24.540  18.960
 3153DOPG   C1A59693  19.130  24.020  18.850
 3153DOPG   D2A59694  19.190  23.660  18.650
 3153DOPG   C3A59695  19.600  23.460  18.570
 3153DOPG   C4A59696  19.900  23.430  18.240
 3153DOPG   C1B59697  18.910  24.850  18.610
 3153DOPG   D2B59698  18.760  24.900  18.320
 3153DOPG   C3B59699  18.400  25.000  18.240
 3153DOPG   C4B59700  18.010  24.760  18.240
 3154DOPG   GL059701  24.190  24.950  10.750
 3154DOPG   PO459702  24.040  24.600  10.300
 3154DOPG   GL159703  23.720  24.580  10.600
 3154DOPG   GL259704  23.850  24.350  10.790
 3154DOPG   C1A59705  23.310  24.550  10.580
 3154DOPG   D2A59706  23.030  24.450  10.930
 3154DOPG   C3A59707  22.950  24.410  11.430
 3154DOPG   C4A59708  23.050  24.540  11.840
 3154DOPG   C1B59709  23.480  24.090  10.730
 3154DOPG   D2B59710  23.010  23.960  10.800
 3154DOPG   C3B59711  22.690  23.940  10.520
 3154DOPG   C4B59712  22.360  24.260  10.640
 3155DOPG   GL059713  19.520  23.810   6.100
 3155DOPG   PO459714  19.290  23.990   5.820
 3155DOPG   GL159715  19.410  24.060   5.420
 3155DOPG   GL259716  19.210  23.860   5.100
 3155DOPG   C1A59717  19.830  24.230   5.240
 3155DOPG   D2A59718  19.900  24.260   4.740
 3155DOPG   C3A59719  20.080  24.570   4.440
 3155DOPG   C4A59720  19.870  24.750   4.090
 3155DOPG   C1B59721  19.270  23.510   4.820
 3155DOPG   D2B59722  19.410  23.520   4.430
 3155DOPG   C3B59723  19.650  23.230   4.290
 3155DOPG   C4B59724  19.530  22.960   3.850
 3156DOPG   GL059725  16.750  18.260  19.270
 3156DOPG   PO459726  16.490  18.590  18.990
 3156DOPG   GL159727  16.460  18.530  18.530
 3156DOPG   GL259728  16.540  18.250  18.290
 3156DOPG   C1A59729  16.550  18.910  18.130
 3156DOPG   D2A59730  16.520  19.200  17.740
 3156DOPG   C3A59731  16.330  19.610  17.900
 3156DOPG   C4A59732  16.290  19.940  18.140
 3156DOPG   C1B59733  16.730  17.980  18.110
 3156DOPG   D2B59734  16.570  17.830  17.730
 3156DOPG   C3B59735  16.610  17.910  17.310
 3156DOPG   C4B59736  16.640  17.940  16.880
 3157DOPG   GL059737  16.140   8.980  18.510
 3157DOPG   PO459738  15.750   9.130  18.310
 3157DOPG   GL159739  15.940   9.520  18.200
 3157DOPG   GL259740  15.970   9.530  17.870
 3157DOPG   C1A59741  16.170   9.870  18.290
 3157DOPG   D2A59742  16.050  10.290  18.350
 3157DOPG   C3A59743  15.860  10.490  18.050
 3157DOPG   C4A59744  16.080  10.740  17.830
 3157DOPG   C1B59745  15.640   9.590  17.540
 3157DOPG   D2B59746  15.450   9.920  17.470
 3157DOPG   C3B59747  15.030  10.200  17.380
 3157DOPG   C4B59748  14.690  10.310  17.620
 3158DOPG   GL059749  19.120   7.490  13.770
 3158DOPG   PO459750  18.780   7.840  13.930
 3158DOPG   GL159751  18.540   8.170  14.110
 3158DOPG   GL259752  18.640   8.370  14.360
 3158DOPG   C1A59753  18.370   8.610  13.950
 3158DOPG   D2A59754  18.240   8.940  14.210
 3158DOPG   C3A59755  18.500   8.970  14.450
 3158DOPG   C4A59756  18.850   9.170  14.510
 3158DOPG   C1B59757  19.000   8.700  14.540
 3158DOPG   D2B59758  18.980   8.940  14.930
 3158DOPG   C3B59759  18.600   9.250  14.940
 3158DOPG   C4B59760  18.440   9.720  14.870
 3159DOPG   GL059761  11.740  15.860  16.430
 3159DOPG   PO459762  11.850  16.180  16.110
 3159DOPG   GL159763  11.730  16.240  15.690
 3159DOPG   GL259764  11.470  16.190  15.590
 3159DOPG   C1A59765  11.860  16.480  15.480
 3159DOPG   D2A59766  11.870  16.860  15.280
 3159DOPG   C3A59767  11.600  16.920  14.970
 3159DOPG   C4A59768  11.550  16.790  14.580
 3159DOPG   C1B59769  11.020  16.210  15.670
 3159DOPG   D2B59770  10.600  16.090  15.580
 3159DOPG   C3B59771  10.640  15.650  15.320
 3159DOPG   C4B59772  10.880  15.280  15.360
 3160DOPG   GL059773  21.470  14.740   3.350
 3160DOPG   PO459774  21.850  15.010   3.480
 3160DOPG   GL159775  21.770  15.040   3.890
 3160DOPG   GL259776  21.430  14.930   3.840
 3160DOPG   C1A59777  21.500  15.320   4.090
 3160DOPG   D2A59778  21.090  15.540   4.100
 3160DOPG   C3A59779  20.800  15.680   4.500
 3160DOPG   C4A59780  20.410  15.790   4.330
 3160DOPG   C1B59781  21.440  14.900   4.360
 3160DOPG   D2B59782  21.290  14.690   4.640
 3160DOPG   C3B59783  21.010  14.760   5.090
 3160DOPG   C4B59784  20.950  15.060   5.440
 3161DOPG   GL059785  20.200   8.800   9.770
 3161DOPG   PO459786  19.870   8.990   9.810
 3161DOPG   GL159787  19.860   9.480   9.790
 3161DOPG   GL259788  19.620   9.510   9.560
 3161DOPG   C1A59789  19.630   9.750  10.010
 3161DOPG   D2A59790  19.460  10.150  10.100
 3161DOPG   C3A59791  19.110  10.360  10.220
 3161DOPG   C4A59792  18.900  10.560   9.970
 3161DOPG   C1B59793  19.410   9.950   9.540
 3161DOPG   D2B59794  19.260  10.360   9.690
 3161DOPG   C3B59795  19.190  10.710   9.540
 3161DOPG   C4B59796  19.570  11.030   9.350
 3162DOPG   GL059797  13.470  18.950  19.020
 3162DOPG   PO459798  13.540  18.980  18.590
 3162DOPG   GL159799  13.550  19.240  18.310
 3162DOPG   GL259800  13.480  19.480  18.150
 3162DOPG   C1A59801  13.910  19.290  17.940
 3162DOPG   D2A59802  14.230  19.400  17.770
 3162DOPG   C3A59803  14.530  19.520  17.450
 3162DOPG   C4A59804  14.890  19.470  17.120
 3162DOPG   C1B59805  13.440  19.140  17.790
 3162DOPG   D2B59806  13.810  18.990  17.490
 3162DOPG   C3B59807  13.880  18.490  17.440
 3162DOPG   C4B59808  14.110  18.190  17.210
 3163DOPG   GL059809  22.970  21.220   7.940
 3163DOPG   PO459810  22.590  21.230   8.210
 3163DOPG   GL159811  22.240  21.220   8.560
 3163DOPG   GL259812  22.110  20.880   8.520
 3163DOPG   C1A59813  21.870  21.550   8.620
 3163DOPG   D2A59814  21.530  21.530   8.880
 3163DOPG   C3A59815  21.530  21.230   9.300
 3163DOPG   C4A59816  21.600  21.170   9.710
 3163DOPG   C1B59817  21.660  21.060   8.490
 3163DOPG   D2B59818  21.260  21.250   8.440
 3163DOPG   C3B59819  21.050  21.420   8.790
 3163DOPG   C4B59820  21.080  21.530   9.310
 3164DOPG   GL059821  16.850  27.860  16.860
 3164DOPG   PO459822  16.720  27.450  16.810
 3164DOPG   GL159823  16.810  27.170  16.450
 3164DOPG   GL259824  17.010  27.250  16.190
 3164DOPG   C1A59825  16.770  26.740  16.410
 3164DOPG   D2A59826  16.760  26.210  16.270
 3164DOPG   C3A59827  17.090  25.950  16.010
 3164DOPG   C4A59828  17.250  25.750  15.650
 3164DOPG   C1B59829  17.280  27.230  15.900
 3164DOPG   D2B59830  17.660  27.140  15.730
 3164DOPG   C3B59831  17.850  26.800  15.460
 3164DOPG   C4B59832  18.020  26.620  15.810
 3165DOPG   GL059833  10.020  27.380  19.710
 3165DOPG   PO459834  10.020  27.520  19.360
 3165DOPG   GL159835  10.460  27.540  19.240
 3165DOPG   GL259836  10.470  27.630  18.850
 3165DOPG   C1A59837  10.900  27.520  19.040
 3165DOPG   D2A59838  11.000  27.590  18.580
 3165DOPG   C3A59839  11.180  27.620  18.230
 3165DOPG   C4A59840  11.420  27.170  18.080
 3165DOPG   C1B59841  10.670  27.120  18.860
 3165DOPG   D2B59842  10.970  26.720  18.790
 3165DOPG   C3B59843  11.320  26.440  18.820
 3165DOPG   C4B59844  11.750  26.350  18.870
 3166DOPG   GL059845  26.160  24.030  22.340
 3166DOPG   PO459846  25.850  23.760  22.300
 3166DOPG   GL159847  25.610  23.760  22.020
 3166DOPG   GL259848  25.330  23.750  22.000
 3166DOPG   C1A59849  25.500  24.140  21.810
 3166DOPG   D2A59850  25.630  24.380  21.470
 3166DOPG   C3A59851  25.620  24.340  21.050
 3166DOPG   C4A59852  25.480  24.590  20.720
 3166DOPG   C1B59853  25.110  23.300  21.910
 3166DOPG   D2B59854  24.690  23.120  21.770
 3166DOPG   C3B59855  24.440  23.120  21.490
 3166DOPG   C4B59856  24.380  23.180  21.010
 3167DOPG   GL059857  18.040  15.770   5.870
 3167DOPG   PO459858  18.090  16.170   5.820
 3167DOPG   GL159859  18.290  15.990   5.440
 3167DOPG   GL259860  18.160  16.060   5.140
 3167DOPG   C1A59861  18.680  15.750   5.200
 3167DOPG   D2A59862  18.960  15.820   4.900
 3167DOPG   C3A59863  19.310  15.890   4.810
 3167DOPG   C4A59864  19.710  15.920   4.760
 3167DOPG   C1B59865  18.310  16.110   4.720
 3167DOPG   D2B59866  18.480  16.040   4.310
 3167DOPG   C3B59867  18.380  15.700   4.110
 3167DOPG   C4B59868  18.390  15.170   4.080
 3168DOPG   GL059869  22.230  14.080   3.750
 3168DOPG   PO459870  22.130  14.240   4.150
 3168DOPG   GL159871  21.720  14.320   4.450
 3168DOPG   GL259872  21.830  14.600   4.610
 3168DOPG   C1A59873  21.490  14.310   4.860
 3168DOPG   D2A59874  21.140  14.130   5.070
 3168DOPG   C3A59875  20.850  14.320   5.340
 3168DOPG   C4A59876  20.640  14.650   5.380
 3168DOPG   C1B59877  21.820  14.790   5.060
 3168DOPG   D2B59878  21.500  14.840   5.250
 3168DOPG   C3B59879  21.440  15.120   5.620
 3168DOPG   C4B59880  21.180  15.400   5.710
 3169DOPG   GL059881  16.870  28.900  12.120
 3169DOPG   PO459882  16.500  28.610  12.150
 3169DOPG   GL159883  16.330  28.180  12.080
 3169DOPG   GL259884  16.300  27.920  11.810
 3169DOPG   C1A59885  16.340  27.840  12.310
 3169DOPG   D2A59886  16.530  27.490  12.370
 3169DOPG   C3A59887  16.400  27.170  12.340
 3169DOPG   C4A59888  16.590  26.770  12.320
 3169DOPG   C1B59889  16.540  27.660  11.920
 3169DOPG   D2B59890  16.850  27.570  11.820
 3169DOPG   C3B59891  17.130  27.170  11.690
 3169DOPG   C4B59892  17.400  26.840  11.530
 3170DOPG   GL059893  11.180  31.290  10.460
 3170DOPG   PO459894  11.170  31.450  10.880
 3170DOPG   GL159895  11.540  31.270  11.000
 3170DOPG   GL259896  11.790  31.310  11.320
 3170DOPG   C1A59897  11.840  31.060  10.850
 3170DOPG   D2A59898  12.060  30.680  11.070
 3170DOPG   C3A59899  12.260  30.290  10.890
 3170DOPG   C4A59900  12.420  29.920  10.850
 3170DOPG   C1B59901  12.140  31.100  11.410
 3170DOPG   D2B59902  12.560  30.930  11.400
 3170DOPG   C3B59903  12.560  30.470  11.290
 3170DOPG   C4B59904  12.420  30.010  11.310
 3171DOPG   GL059905  10.830  15.650  16.970
 3171DOPG   PO459906  10.450  15.720  17.180
 3171DOPG   GL159907  10.100  15.520  17.430
 3171DOPG   GL259908  10.230  15.460  17.800
 3171DOPG   C1A59909   9.650  15.610  17.720
 3171DOPG   D2A59910   9.210  15.620  17.920
 3171DOPG   C3A59911   9.170  15.160  18.050
 3171DOPG   C4A59912   9.030  14.880  18.390
 3171DOPG   C1B59913  10.180  15.040  17.970
 3171DOPG   D2B59914   9.990  14.660  18.040
 3171DOPG   C3B59915   9.660  14.770  18.220
 3171DOPG   C4B59916   9.490  14.690  18.620
 3172DOPG   GL059917  23.080  27.130   9.630
 3172DOPG   PO459918  22.740  26.880   9.630
 3172DOPG   GL159919  22.460  26.730   9.960
 3172DOPG   GL259920  22.610  26.500  10.130
 3172DOPG   C1A59921  22.040  26.550  10.250
 3172DOPG   D2A59922  21.760  26.420  10.490
 3172DOPG   C3A59923  21.480  26.120  10.400
 3172DOPG   C4A59924  21.430  25.640  10.310
 3172DOPG   C1B59925  22.400  26.170  10.340
 3172DOPG   D2B59926  22.000  25.940  10.290
 3172DOPG   C3B59927  21.800  25.780  10.030
 3172DOPG   C4B59928  21.700  25.410   9.910
 3173DOPG   GL059929  18.130  17.660   0.760
 3173DOPG   PO459930  18.350  17.960   1.030
 3173DOPG   GL159931  18.320  17.960   1.500
 3173DOPG   GL259932  17.930  17.900   1.620
 3173DOPG   C1A59933  18.240  18.140   1.930
 3173DOPG   D2A59934  18.050  18.050   2.410
 3173DOPG   C3A59935  18.080  17.770   2.760
 3173DOPG   C4A59936  18.270  17.490   3.110
 3173DOPG   C1B59937  17.810  18.290   1.720
 3173DOPG   D2B59938  18.020  18.620   1.970
 3173DOPG   C3B59939  18.100  19.040   1.820
 3173DOPG   C4B59940  17.900  19.270   1.670
 3174DOPG   GL059941   8.520  19.370   4.640
 3174DOPG   PO459942   8.140  19.090   4.610
 3174DOPG   GL159943   8.470  19.020   4.970
 3174DOPG   GL259944   8.760  19.030   5.000
 3174DOPG   C1A59945   8.700  19.520   5.090
 3174DOPG   D2A59946   8.370  19.800   5.340
 3174DOPG   C3A59947   8.290  19.720   5.820
 3174DOPG   C4A59948   8.160  19.710   6.190
 3174DOPG   C1B59949   9.020  19.210   5.280
 3174DOPG   D2B59950   9.270  19.370   5.560
 3174DOPG   C3B59951   9.600  19.600   5.710
 3174DOPG   C4B59952   9.780  20.040   5.770
 3175DOPG   GL059953   9.470  28.970  17.560
 3175DOPG   PO459954   9.230  28.530  17.660
 3175DOPG   GL159955   9.570  28.190  17.580
 3175DOPG   GL259956   9.570  27.970  17.610
 3175DOPG   C1A59957   9.950  28.340  17.670
 3175DOPG   D2A59958  10.300  28.140  17.510
 3175DOPG   C3A59959  10.280  27.800  17.230
 3175DOPG   C4A59960  10.520  27.560  17.040
 3175DOPG   C1B59961   9.620  27.890  17.160
 3175DOPG   D2B59962   9.870  27.820  16.820
 3175DOPG   C3B59963  10.180  27.590  16.730
 3175DOPG   C4B59964  10.490  27.290  16.620
 3176DOPG   GL059965  12.490  24.750  10.540
 3176DOPG   PO459966  12.210  24.570  10.190
 3176DOPG   GL159967  12.450  24.240  10.480
 3176DOPG   GL259968  12.490  24.240  10.940
 3176DOPG   C1A59969  12.710  23.910  10.620
 3176DOPG   D2A59970  13.050  23.660  10.640
 3176DOPG   C3A59971  13.110  23.180  10.470
 3176DOPG   C4A59972  13.160  22.740  10.480
 3176DOPG   C1B59973  12.790  23.880  11.130
 3176DOPG   D2B59974  13.200  23.940  11.520
 3176DOPG   C3B59975  13.410  23.730  11.740
 3176DOPG   C4B59976  13.470  23.630  12.240
 3177DOPG   GL059977  16.370  28.270  11.300
 3177DOPG   PO459978  16.020  28.070  11.460
 3177DOPG   GL159979  16.140  27.640  11.460
 3177DOPG   GL259980  15.910  27.450  11.310
 3177DOPG   C1A59981  16.430  27.320  11.330
 3177DOPG   D2A59982  16.790  27.070  11.330
 3177DOPG   C3A59983  16.800  26.600  11.140
 3177DOPG   C4A59984  16.850  26.160  10.940
 3177DOPG   C1B59985  16.000  27.080  11.460
 3177DOPG   D2B59986  16.300  26.770  11.360
 3177DOPG   C3B59987  16.330  26.500  11.030
 3177DOPG   C4B59988  16.350  26.110  10.920
 3178DOPG   GL059989  16.150  13.560  13.460
 3178DOPG   PO459990  15.840  13.600  13.220
 3178DOPG   GL159991  15.910  14.070  13.240
 3178DOPG   GL259992  15.960  14.220  13.630
 3178DOPG   C1A59993  16.290  14.300  13.160
 3178DOPG   D2A59994  16.720  14.190  13.170
 3178DOPG   C3A59995  16.930  14.300  12.820
 3178DOPG   C4A59996  17.000  14.650  12.680
 3178DOPG   C1B59997  15.710  14.530  13.710
 3178DOPG   D2B59998  15.710  14.990  13.680
 3178DOPG   C3B59999  15.630  15.420  13.630
 3178DOPG   C4B60000  15.440  15.700  13.300
 3179DOPG   GL060001  10.410  13.140  21.450
 3179DOPG   PO460002   9.960  12.930  21.210
 3179DOPG   GL160003  10.220  13.170  20.960
 3179DOPG   GL260004  10.330  13.510  21.080
 3179DOPG   C1A60005  10.210  13.430  20.640
 3179DOPG   D2A60006  10.010  13.570  20.340
 3179DOPG   C3A60007   9.950  13.210  20.050
 3179DOPG   C4A60008   9.810  12.960  19.790
 3179DOPG   C1B60009  10.420  13.870  20.650
 3179DOPG   D2B60010  10.780  14.170  20.480
 3179DOPG   C3B60011  10.640  14.550  20.220
 3179DOPG   C4B60012  10.850  14.920  20.350
 3180DOPG   GL060013   9.810  19.360  15.450
 3180DOPG   PO460014   9.900  19.020  15.270
 3180DOPG   GL160015   9.790  18.750  14.930
 3180DOPG   GL260016   9.550  18.550  14.860
 3180DOPG   C1A60017  10.070  18.510  14.600
 3180DOPG   D2A60018  10.460  18.490  14.570
 3180DOPG   C3A60019  10.790  18.660  14.320
 3180DOPG   C4A60020  11.210  18.820  14.160
 3180DOPG   C1B60021   9.690  18.200  14.740
 3180DOPG   D2B60022   9.620  17.770  14.990
 3180DOPG   C3B60023   9.890  17.450  14.990
 3180DOPG   C4B60024  10.010  17.250  14.670
 3181DOPG   GL060025  19.770  29.210  15.210
 3181DOPG   PO460026  19.940  28.790  15.260
 3181DOPG   GL160027  19.700  28.460  15.060
 3181DOPG   GL260028  19.560  28.530  15.400
 3181DOPG   C1A60029  19.580  28.030  14.910
 3181DOPG   D2A60030  19.670  27.940  14.570
 3181DOPG   C3A60031  19.580  28.180  14.190
 3181DOPG   C4A60032  19.630  28.410  13.760
 3181DOPG   C1B60033  19.460  28.080  15.420
 3181DOPG   D2B60034  19.110  27.930  15.110
 3181DOPG   C3B60035  19.200  27.720  14.600
 3181DOPG   C4B60036  19.340  27.560  14.320
 3182DOPG   GL060037  19.270  27.040   8.150
 3182DOPG   PO460038  19.510  26.870   8.480
 3182DOPG   GL160039  19.330  26.610   8.800
 3182DOPG   GL260040  19.090  26.830   8.960
 3182DOPG   C1A60041  18.990  26.280   8.880
 3182DOPG   D2A60042  18.610  26.160   8.820
 3182DOPG   C3A60043  18.450  25.770   8.580
 3182DOPG   C4A60044  18.690  25.490   8.310
 3182DOPG   C1B60045  19.550  26.810   9.170
 3182DOPG   D2B60046  19.870  26.610   9.480
 3182DOPG   C3B60047  19.650  26.230   9.660
 3182DOPG   C4B60048  19.720  26.080   9.960
 3183DOPG   GL060049  14.170  26.920   8.770
 3183DOPG   PO460050  13.860  26.730   8.690
 3183DOPG   GL160051  13.690  26.980   8.520
 3183DOPG   GL260052  13.670  27.210   8.660
 3183DOPG   C1A60053  13.580  27.180   8.180
 3183DOPG   D2A60054  13.390  27.400   7.870
 3183DOPG   C3A60055  13.090  27.640   8.000
 3183DOPG   C4A60056  13.150  27.900   8.390
 3183DOPG   C1B60057  13.210  27.480   8.640
 3183DOPG   D2B60058  12.830  27.540   8.650
 3183DOPG   C3B60059  12.620  27.680   8.200
 3183DOPG   C4B60060  12.780  28.080   8.010
 3184DOPG   GL060061  28.110  30.620  13.000
 3184DOPG   PO460062  27.770  30.390  12.810
 3184DOPG   GL160063  27.640  29.960  12.700
 3184DOPG   GL260064  27.340  30.090  12.620
 3184DOPG   C1A60065  27.870  29.670  12.690
 3184DOPG   D2A60066  27.930  29.330  12.460
 3184DOPG   C3A60067  27.500  29.200  12.360
 3184DOPG   C4A60068  27.190  28.990  12.120
 3184DOPG   C1B60069  27.320  29.590  12.630
 3184DOPG   D2B60070  27.120  29.310  12.680
 3184DOPG   C3B60071  26.630  29.370  12.830
 3184DOPG   C4B60072  26.210  29.280  13.030
 3185DOPG   GL060073  20.400  18.370   7.680
 3185DOPG   PO460074  20.230  18.070   7.900
 3185DOPG   GL160075  20.130  18.010   8.320
 3185DOPG   GL260076  20.330  18.240   8.340
 3185DOPG   C1A60077  20.130  18.090   8.750
 3185DOPG   D2A60078  20.120  18.200   9.160
 3185DOPG   C3A60079  20.460  18.420   9.400
 3185DOPG   C4A60080  20.770  18.690   9.530
 3185DOPG   C1B60081  20.120  18.630   8.270
 3185DOPG   D2B60082  19.980  19.040   8.410
 3185DOPG   C3B60083  19.640  19.020   8.720
 3185DOPG   C4B60084  19.570  19.060   9.080
 3186DOPG   GL060085  22.180  19.240  18.040
 3186DOPG   PO460086  22.090  19.670  17.890
 3186DOPG   GL160087  22.120  19.580  17.560
 3186DOPG   GL260088  21.970  19.330  17.400
 3186DOPG   C1A60089  22.110  19.830  17.240
 3186DOPG   D2A60090  22.070  20.050  16.870
 3186DOPG   C3A60091  21.630  20.030  16.830
 3186DOPG   C4A60092  21.480  20.400  16.710
 3186DOPG   C1B60093  21.900  19.510  16.900
 3186DOPG   D2B60094  22.130  19.690  16.560
 3186DOPG   C3B60095  22.010  20.010  16.280
 3186DOPG   C4B60096  21.760  20.200  15.920
 3187DOPG   GL060097  19.570  24.620   7.170
 3187DOPG   PO460098  19.400  24.310   7.050
 3187DOPG   GL160099  19.380  24.100   7.470
 3187DOPG   GL260100  19.750  24.170   7.670
 3187DOPG   C1A60101  19.090  23.720   7.640
 3187DOPG   D2A60102  19.250  23.410   8.010
 3187DOPG   C3A60103  19.070  23.650   8.410
 3187DOPG   C4A60104  19.230  23.880   8.670
 3187DOPG   C1B60105  20.060  24.330   7.830
 3187DOPG   D2B60106  20.030  24.600   8.090
 3187DOPG   C3B60107  19.840  24.690   8.460
 3187DOPG   C4B60108  19.530  24.960   8.540
 3188DOPG   GL060109  19.740  22.300  20.100
 3188DOPG   PO460110  20.100  22.280  19.780
 3188DOPG   GL160111  19.920  22.490  19.510
 3188DOPG   GL260112  20.000  22.830  19.380
 3188DOPG   C1A60113  20.020  22.470  19.070
 3188DOPG   D2A60114  19.710  22.510  18.700
 3188DOPG   C3A60115  19.770  22.340  18.310
 3188DOPG   C4A60116  19.680  22.640  17.960
 3188DOPG   C1B60117  20.340  23.160  19.120
 3188DOPG   D2B60118  20.500  23.620  18.940
 3188DOPG   C3B60119  20.570  23.680  18.510
 3188DOPG   C4B60120  20.320  23.670  18.250
 3189DOPG   GL060121   5.290  21.330  15.130
 3189DOPG   PO460122   4.960  21.090  15.370
 3189DOPG   GL160123   5.210  20.780  15.100
 3189DOPG   GL260124   5.030  20.480  14.900
 3189DOPG   C1A60125   5.630  20.950  15.120
 3189DOPG   D2A60126   6.010  20.940  15.120
 3189DOPG   C3A60127   6.270  21.260  15.140
 3189DOPG   C4A60128   6.540  21.580  15.330
 3189DOPG   C1B60129   5.550  20.490  14.910
 3189DOPG   D2B60130   6.050  20.440  15.040
 3189DOPG   C3B60131   6.450  20.610  15.050
 3189DOPG   C4B60132   6.600  20.860  15.170
 3190DOPG   GL060133  25.730  24.020  14.740
 3190DOPG   PO460134  25.370  24.320  14.740
 3190DOPG   GL160135  24.930  24.090  14.540
 3190DOPG   GL260136  24.670  24.320  14.580
 3190DOPG   C1A60137  24.600  23.770  14.640
 3190DOPG   D2A60138  24.080  23.750  14.640
 3190DOPG   C3A60139  24.050  23.670  14.190
 3190DOPG   C4A60140  24.380  23.470  13.900
 3190DOPG   C1B60141  24.330  24.200  14.780
 3190DOPG   D2B60142  23.960  24.240  14.600
 3190DOPG   C3B60143  23.670  24.100  14.360
 3190DOPG   C4B60144  23.310  24.070  14.050
 3191DOPG   GL060145  20.340  20.050   6.370
 3191DOPG   PO460146  19.930  20.200   6.510
 3191DOPG   GL160147  19.860  20.340   6.900
 3191DOPG   GL260148  19.870  20.690   6.850
 3191DOPG   C1A60149  19.920  20.260   7.320
 3191DOPG   D2A60150  20.190  20.190   7.630
 3191DOPG   C3A60151  20.490  19.980   7.850
 3191DOPG   C4A60152  20.760  19.610   7.950
 3191DOPG   C1B60153  19.840  20.890   7.180
 3191DOPG   D2B60154  19.820  21.130   7.590
 3191DOPG   C3B60155  19.350  21.170   7.710
 3191DOPG   C4B60156  19.030  20.950   7.760
 3192DOPG   GL060157  22.320  17.610  17.020
 3192DOPG   PO460158  21.970  17.500  17.060
 3192DOPG   GL160159  21.840  17.800  16.800
 3192DOPG   GL260160  22.110  17.970  16.750
 3192DOPG   C1A60161  21.650  18.210  16.910
 3192DOPG   D2A60162  21.660  18.680  16.610
 3192DOPG   C3A60163  21.280  18.850  16.390
 3192DOPG   C4A60164  21.060  19.020  16.130
 3192DOPG   C1B60165  21.800  18.190  16.430
 3192DOPG   D2B60166  21.490  18.400  16.240
 3192DOPG   C3B60167  21.270  18.380  16.610
 3192DOPG   C4B60168  20.960  18.230  17.040
 3193DOPG   GL060169   6.220  23.910  17.520
 3193DOPG   PO460170   5.850  23.990  17.330
 3193DOPG   GL160171   6.170  23.930  16.930
 3193DOPG   GL260172   6.330  24.050  16.710
 3193DOPG   C1A60173   6.450  23.570  16.780
 3193DOPG   D2A60174   6.520  23.120  16.850
 3193DOPG   C3A60175   6.730  22.830  16.760
 3193DOPG   C4A60176   7.090  22.940  16.420
 3193DOPG   C1B60177   6.650  23.860  16.370
 3193DOPG   D2B60178   7.110  23.760  16.190
 3193DOPG   C3B60179   7.420  23.810  15.970
 3193DOPG   C4B60180   7.690  23.560  15.680
 3194DOPG   GL060181  12.110  25.290  12.640
 3194DOPG   PO460182  12.070  24.890  12.410
 3194DOPG   GL160183  12.490  25.060  12.280
 3194DOPG   GL260184  12.610  25.270  12.570
 3194DOPG   C1A60185  12.780  24.960  11.930
 3194DOPG   D2A60186  12.890  24.920  11.460
 3194DOPG   C3A60187  13.090  24.980  11.250
 3194DOPG   C4A60188  13.290  24.810  10.920
 3194DOPG   C1B60189  12.960  24.990  12.550
 3194DOPG   D2B60190  13.380  25.020  12.650
 3194DOPG   C3B60191  13.760  24.730  12.440
 3194DOPG   C4B60192  14.140  24.880  12.420
 3195DOPG   GL060193  11.720  22.280  15.670
 3195DOPG   PO460194  11.960  22.670  16.040
 3195DOPG   GL160195  12.250  22.860  15.710
 3195DOPG   GL260196  12.000  23.000  15.480
 3195DOPG   C1A60197  12.540  23.060  15.320
 3195DOPG   D2A60198  12.950  22.970  15.430
 3195DOPG   C3A60199  13.300  22.710  15.100
 3195DOPG   C4A60200  13.300  22.300  14.890
 3195DOPG   C1B60201  11.890  22.600  15.230
 3195DOPG   D2B60202  11.980  22.070  15.140
 3195DOPG   C3B60203  12.380  22.030  15.040
 3195DOPG   C4B60204  12.830  22.100  14.890
 3196DOPG   GL060205  12.700  20.670  18.350
 3196DOPG   PO460206  13.260  20.620  18.440
 3196DOPG   GL160207  13.470  20.930  18.120
 3196DOPG   GL260208  13.720  20.950  18.080
 3196DOPG   C1A60209  13.570  20.990  17.630
 3196DOPG   D2A60210  13.590  21.340  17.300
 3196DOPG   C3A60211  13.910  21.220  17.030
 3196DOPG   C4A60212  14.070  21.020  16.800
 3196DOPG   C1B60213  13.800  20.600  17.970
 3196DOPG   D2B60214  13.910  20.570  17.560
 3196DOPG   C3B60215  14.080  20.080  17.390
 3196DOPG   C4B60216  13.920  19.770  17.100
 3197DOPG   GL060217  12.780  24.950   9.180
 3197DOPG   PO460218  12.470  24.610   9.260
 3197DOPG   GL160219  12.890  24.520   9.480
 3197DOPG   GL260220  12.910  24.320   9.550
 3197DOPG   C1A60221  13.360  24.550   9.540
 3197DOPG   D2A60222  13.590  24.860   9.750
 3197DOPG   C3A60223  13.720  24.890  10.170
 3197DOPG   C4A60224  13.810  25.230  10.490
 3197DOPG   C1B60225  13.260  24.090   9.690
 3197DOPG   D2B60226  13.570  23.750   9.830
 3197DOPG   C3B60227  14.020  23.470   9.900
 3197DOPG   C4B60228  14.380  23.170   9.890
 3198DOPG   GL060229  22.680  16.940  10.240
 3198DOPG   PO460230  22.340  16.940  10.550
 3198DOPG   GL160231  22.080  17.170  10.860
 3198DOPG   GL260232  21.790  17.240  10.690
 3198DOPG   C1A60233  21.760  17.350  11.190
 3198DOPG   D2A60234  21.540  17.490  11.440
 3198DOPG   C3A60235  21.660  17.960  11.460
 3198DOPG   C4A60236  21.610  18.400  11.570
 3198DOPG   C1B60237  21.810  17.620  10.750
 3198DOPG   D2B60238  21.550  17.900  10.520
 3198DOPG   C3B60239  21.070  18.040  10.760
 3198DOPG   C4B60240  20.700  18.240  10.980
 3199DOPG   GL060241  19.740  23.160   7.160
 3199DOPG   PO460242  20.150  23.310   7.320
 3199DOPG   GL160243  19.990  23.030   7.580
 3199DOPG   GL260244  20.250  22.790   7.520
 3199DOPG   C1A60245  19.600  22.860   7.770
 3199DOPG   D2A60246  19.420  22.450   7.730
 3199DOPG   C3A60247  19.010  22.400   7.620
 3199DOPG   C4A60248  18.900  22.310   7.160
 3199DOPG   C1B60249  20.040  22.510   7.780
 3199DOPG   D2B60250  19.660  22.520   8.140
 3199DOPG   C3B60251  19.700  22.240   8.470
 3199DOPG   C4B60252  19.640  22.250   8.910
 3200DOPG   GL060253  23.230  23.930  18.460
 3200DOPG   PO460254  22.750  24.200  18.310
 3200DOPG   GL160255  22.660  24.290  17.860
 3200DOPG   GL260256  22.790  24.150  17.670
 3200DOPG   C1A60257  22.440  24.390  17.430
 3200DOPG   D2A60258  22.390  24.440  17.020
 3200DOPG   C3A60259  22.080  24.530  16.700
 3200DOPG   C4A60260  21.800  24.840  16.460
 3200DOPG   C1B60261  22.620  23.960  17.280
 3200DOPG   D2B60262  22.700  24.130  16.890
 3200DOPG   C3B60263  22.800  23.830  16.550
 3200DOPG   C4B60264  22.890  24.020  16.250
 3201DOPG   GL060265  10.220  30.260  10.100
 3201DOPG   PO460266  10.040  30.540   9.720
 3201DOPG   GL160267  10.000  30.070   9.700
 3201DOPG   GL260268  10.280  29.880   9.600
 3201DOPG   C1A60269   9.850  29.760  10.060
 3201DOPG   D2A60270   9.980  29.340  10.170
 3201DOPG   C3A60271  10.310  29.090  10.290
 3201DOPG   C4A60272  10.600  28.760  10.250
 3201DOPG   C1B60273  10.460  29.450   9.640
 3201DOPG   D2B60274  10.670  29.170   9.950
 3201DOPG   C3B60275  11.110  29.020  10.050
 3201DOPG   C4B60276  11.190  28.590  10.180
 3202DOPG   GL060277  27.280  15.150   8.480
 3202DOPG   PO460278  26.790  15.310   8.470
 3202DOPG   GL160279  26.370  15.530   8.680
 3202DOPG   GL260280  26.330  15.800   8.530
 3202DOPG   C1A60281  26.120  15.630   9.000
 3202DOPG   D2A60282  25.650  15.770   9.000
 3202DOPG   C3A60283  25.260  15.720   9.250
 3202DOPG   C4A60284  25.070  15.630   9.740
 3202DOPG   C1B60285  26.050  15.970   8.430
 3202DOPG   D2B60286  25.710  16.290   8.350
 3202DOPG   C3B60287  25.600  16.770   8.580
 3202DOPG   C4B60288  25.210  16.930   8.350
 3203DOPG   GL060289   8.340  21.840  11.530
 3203DOPG   PO460290   8.520  22.290  11.570
 3203DOPG   GL160291   8.140  22.290  11.410
 3203DOPG   GL260292   7.900  22.390  11.540
 3203DOPG   C1A60293   7.990  22.090  11.080
 3203DOPG   D2A60294   7.700  22.190  10.950
 3203DOPG   C3A60295   7.390  22.160  11.240
 3203DOPG   C4A60296   7.680  21.970  11.550
 3203DOPG   C1B60297   7.500  22.590  11.560
 3203DOPG   D2B60298   7.100  22.540  11.510
 3203DOPG   C3B60299   7.020  22.450  11.080
 3203DOPG   C4B60300   7.010  22.150  10.820
 3204DOPG   GL060301  17.270  21.540   6.220
 3204DOPG   PO460302  17.510  21.090   6.290
 3204DOPG   GL160303  17.630  21.320   6.580
 3204DOPG   GL260304  17.750  21.090   6.820
 3204DOPG   C1A60305  18.050  21.500   6.710
 3204DOPG   D2A60306  18.200  21.790   7.070
 3204DOPG   C3A60307  18.030  22.070   7.360
 3204DOPG   C4A60308  17.890  22.440   7.260
 3204DOPG   C1B60309  18.060  21.050   6.990
 3204DOPG   D2B60310  18.440  20.820   6.890
 3204DOPG   C3B60311  18.670  20.880   7.260
 3204DOPG   C4B60312  18.740  20.590   7.510
 3205DOPG   GL060313  11.370  11.640   7.560
 3205DOPG   PO460314  11.530  12.080   7.320
 3205DOPG   GL160315  12.030  12.000   7.600
 3205DOPG   GL260316  12.220  11.750   7.660
 3205DOPG   C1A60317  12.340  12.210   7.770
 3205DOPG   D2A60318  12.680  12.450   7.930
 3205DOPG   C3A60319  13.090  12.460   8.030
 3205DOPG   C4A60320  13.450  12.360   7.920
 3205DOPG   C1B60321  12.570  11.760   7.710
 3205DOPG   D2B60322  13.000  11.640   7.510
 3205DOPG   C3B60323  13.310  11.960   7.490
 3205DOPG   C4B60324  13.780  12.020   7.670
 3206DOPG   GL060325  21.270  24.730   7.440
 3206DOPG   PO460326  20.990  25.080   7.400
 3206DOPG   GL160327  20.800  24.850   7.760
 3206DOPG   GL260328  20.580  24.650   7.660
 3206DOPG   C1A60329  20.960  24.590   8.190
 3206DOPG   D2A60330  20.740  24.610   8.570
 3206DOPG   C3A60331  20.790  24.670   8.950
 3206DOPG   C4A60332  20.820  24.460   9.500
 3206DOPG   C1B60333  20.810  24.290   7.630
 3206DOPG   D2B60334  21.180  24.310   7.810
 3206DOPG   C3B60335  21.380  23.850   7.700
 3206DOPG   C4B60336  21.440  23.430   7.820
 3207DOPG   GL060337  16.920  25.030   6.750
 3207DOPG   PO460338  17.140  24.710   7.040
 3207DOPG   GL160339  17.030  24.360   7.160
 3207DOPG   GL260340  16.610  24.300   7.340
 3207DOPG   C1A60341  16.960  23.910   7.380
 3207DOPG   D2A60342  17.240  23.520   7.640
 3207DOPG   C3A60343  17.140  23.220   7.910
 3207DOPG   C4A60344  17.360  23.470   8.140
 3207DOPG   C1B60345  16.270  24.350   7.590
 3207DOPG   D2B60346  15.980  24.480   7.870
 3207DOPG   C3B60347  15.840  24.140   8.190
 3207DOPG   C4B60348  16.030  23.830   8.300
 3208DOPG   GL060349  12.840  21.000   8.240
 3208DOPG   PO460350  12.950  20.940   8.650
 3208DOPG   GL160351  13.020  21.150   9.040
 3208DOPG   GL260352  13.150  20.800   9.130
 3208DOPG   C1A60353  12.890  21.020   9.460
 3208DOPG   D2A60354  12.870  21.190   9.880
 3208DOPG   C3A60355  13.100  21.000  10.190
 3208DOPG   C4A60356  13.080  20.800  10.600
 3208DOPG   C1B60357  13.540  20.810   9.460
 3208DOPG   D2B60358  13.970  20.850   9.640
 3208DOPG   C3B60359  14.080  21.310   9.790
 3208DOPG   C4B60360  14.160  21.730   9.930
 3209DOPG   GL060361   6.510  27.250  12.280
 3209DOPG   PO460362   6.840  27.200  12.550
 3209DOPG   GL160363   7.280  27.260  12.720
 3209DOPG   GL260364   7.350  27.240  13.120
 3209DOPG   C1A60365   7.730  26.980  12.830
 3209DOPG   D2A60366   8.010  26.620  13.030
 3209DOPG   C3A60367   8.350  26.350  12.930
 3209DOPG   C4A60368   8.490  25.950  12.720
 3209DOPG   C1B60369   7.570  26.990  13.330
 3209DOPG   D2B60370   7.920  26.790  13.450
 3209DOPG   C3B60371   8.120  26.640  13.770
 3209DOPG   C4B60372   8.570  26.440  13.860
 3210DOPG   GL060373  13.770  25.800  10.290
 3210DOPG   PO460374  13.960  25.780   9.810
 3210DOPG   GL160375  14.240  25.550   9.950
 3210DOPG   GL260376  14.180  25.470  10.230
 3210DOPG   C1A60377  14.440  25.160   9.950
 3210DOPG   D2A60378  14.750  24.770  10.050
 3210DOPG   C3A60379  14.610  24.470  10.380
 3210DOPG   C4A60380  14.730  24.220  10.780
 3210DOPG   C1B60381  14.410  25.510  10.560
 3210DOPG   D2B60382  14.930  25.460  10.670
 3210DOPG   C3B60383  15.190  25.090  10.540
 3210DOPG   C4B60384  15.590  25.230  10.450
 3211DOPG   GL060385   8.700  21.530   4.740
 3211DOPG   PO460386   8.340  21.740   4.620
 3211DOPG   GL160387   8.470  21.970   4.920
 3211DOPG   GL260388   8.580  21.780   5.180
 3211DOPG   C1A60389   8.680  22.260   4.940
 3211DOPG   D2A60390   9.150  22.150   4.830
 3211DOPG   C3A60391   9.400  22.030   5.140
 3211DOPG   C4A60392   9.820  22.020   5.260
 3211DOPG   C1B60393   8.880  21.990   5.440
 3211DOPG   D2B60394   9.190  21.920   5.630
 3211DOPG   C3B60395   9.520  22.160   5.700
 3211DOPG   C4B60396   9.900  22.100   5.900
 3212DOPG   GL060397  15.230  17.870  18.850
 3212DOPG   PO460398  15.040  18.030  18.520
 3212DOPG   GL160399  15.050  18.340  18.210
 3212DOPG   GL260400  15.230  18.400  18.100
 3212DOPG   C1A60401  14.730  18.640  17.940
 3212DOPG   D2A60402  14.370  18.540  17.660
 3212DOPG   C3A60403  14.260  18.980  17.510
 3212DOPG   C4A60404  14.140  19.280  17.230
 3212DOPG   C1B60405  15.220  18.570  17.770
 3212DOPG   D2B60406  15.480  18.710  17.440
 3212DOPG   C3B60407  15.280  19.130  17.330
 3212DOPG   C4B60408  15.290  19.280  16.900
 3213DOPG   GL060409  22.200  16.030  14.370
 3213DOPG   PO460410  21.920  15.680  14.400
 3213DOPG   GL160411  21.670  16.000  14.400
 3213DOPG   GL260412  21.810  16.280  14.620
 3213DOPG   C1A60413  21.400  16.250  14.190
 3213DOPG   D2A60414  21.180  16.640  14.070
 3213DOPG   C3A60415  21.190  17.000  13.850
 3213DOPG   C4A60416  20.890  17.150  13.530
 3213DOPG   C1B60417  21.640  16.600  14.400
 3213DOPG   D2B60418  21.400  16.960  14.540
 3213DOPG   C3B60419  21.000  17.030  14.340
 3213DOPG   C4B60420  20.580  17.120  14.240
 3214DOPG   GL060421  10.600  15.990  18.760
 3214DOPG   PO460422  10.990  15.790  18.890
 3214DOPG   GL160423  11.160  15.690  19.260
 3214DOPG   GL260424  11.360  15.440  19.230
 3214DOPG   C1A60425  11.260  15.620  19.710
 3214DOPG   D2A60426  11.560  15.510  20.100
 3214DOPG   C3A60427  11.450  15.710  20.480
 3214DOPG   C4A60428  11.360  15.950  20.860
 3214DOPG   C1B60429  10.980  15.200  19.320
 3214DOPG   D2B60430  10.830  14.910  19.610
 3214DOPG   C3B60431  11.140  14.740  19.970
 3214DOPG   C4B60432  11.440  14.930  20.190
 3215DOPG   GL060433  24.120  18.380  15.460
 3215DOPG   PO460434  23.710  18.520  15.560
 3215DOPG   GL160435  23.570  18.880  15.660
 3215DOPG   GL260436  23.350  18.930  15.930
 3215DOPG   C1A60437  23.370  19.330  15.570
 3215DOPG   D2A60438  23.020  19.540  15.260
 3215DOPG   C3A60439  22.850  19.920  15.430
 3215DOPG   C4A60440  22.480  20.250  15.530
 3215DOPG   C1B60441  22.980  18.880  15.680
 3215DOPG   D2B60442  23.020  18.990  15.280
 3215DOPG   C3B60443  23.380  19.200  15.120
 3215DOPG   C4B60444  23.780  19.340  14.890
 3216DOPG   GL060445  18.770  14.460  15.080
 3216DOPG   PO460446  18.500  14.650  15.530
 3216DOPG   GL160447  18.520  14.940  15.320
 3216DOPG   GL260448  18.200  15.060  15.250
 3216DOPG   C1A60449  18.610  15.300  15.130
 3216DOPG   D2A60450  18.470  15.680  14.840
 3216DOPG   C3A60451  18.760  15.950  14.650
 3216DOPG   C4A60452  18.930  16.340  14.610
 3216DOPG   C1B60453  17.790  15.280  15.090
 3216DOPG   D2B60454  17.540  15.570  15.030
 3216DOPG   C3B60455  17.760  15.850  15.040
 3216DOPG   C4B60456  18.110  16.080  15.000
 3217DOPG   GL060457  18.030   8.580   7.430
 3217DOPG   PO460458  18.260   8.890   7.720
 3217DOPG   GL160459  18.000   9.240   7.820
 3217DOPG   GL260460  17.850   9.460   7.690
 3217DOPG   C1A60461  17.600   9.290   8.090
 3217DOPG   D2A60462  17.260   9.320   8.020
 3217DOPG   C3A60463  17.080   9.740   8.080
 3217DOPG   C4A60464  16.910  10.090   8.370
 3217DOPG   C1B60465  17.850   9.910   7.400
 3217DOPG   D2B60466  17.760  10.310   7.440
 3217DOPG   C3B60467  17.640  10.470   7.870
 3217DOPG   C4B60468  17.920  10.400   8.320
 3218DOPG   GL060469  14.830  16.360   8.070
 3218DOPG   PO460470  14.650  16.280   8.520
 3218DOPG   GL160471  14.350  16.480   8.900
 3218DOPG   GL260472  14.040  16.670   8.960
 3218DOPG   C1A60473  14.120  16.290   9.300
 3218DOPG   D2A60474  14.000  16.240   9.690
 3218DOPG   C3A60475  13.680  16.050   9.850
 3218DOPG   C4A60476  13.320  15.850   9.750
 3218DOPG   C1B60477  13.770  16.700   9.330
 3218DOPG   D2B60478  13.450  16.900   9.590
 3218DOPG   C3B60479  13.190  17.210   9.750
 3218DOPG   C4B60480  12.820  17.480   9.680
 3219DOPG   GL060481  17.300  16.330   8.100
 3219DOPG   PO460482  16.960  16.210   8.410
 3219DOPG   GL160483  17.120  16.670   8.400
 3219DOPG   GL260484  16.970  16.940   8.290
 3219DOPG   C1A60485  17.440  17.010   8.580
 3219DOPG   D2A60486  17.490  17.370   8.680
 3219DOPG   C3A60487  17.290  17.550   9.090
 3219DOPG   C4A60488  17.280  17.430   9.550
 3219DOPG   C1B60489  16.950  16.850   8.810
 3219DOPG   D2B60490  17.190  17.040   9.160
 3219DOPG   C3B60491  17.560  17.150   9.080
 3219DOPG   C4B60492  17.870  17.410   9.250
 3220DOPG   GL060493  22.530  16.090  15.530
 3220DOPG   PO460494  22.120  16.390  15.690
 3220DOPG   GL160495  21.740  16.570  15.520
 3220DOPG   GL260496  21.920  16.620  15.190
 3220DOPG   C1A60497  21.430  16.380  15.320
 3220DOPG   D2A60498  21.400  16.410  14.820
 3220DOPG   C3A60499  21.010  16.670  14.730
 3220DOPG   C4A60500  20.610  16.660  14.720
 3220DOPG   C1B60501  21.570  16.840  14.960
 3220DOPG   D2B60502  21.170  17.140  14.950
 3220DOPG   C3B60503  20.780  17.150  14.760
 3220DOPG   C4B60504  20.390  17.300  14.620
 3221DOPG   GL060505   9.970  14.110  11.860
 3221DOPG   PO460506   9.980  14.150  11.410
 3221DOPG   GL160507  10.410  14.260  11.560
 3221DOPG   GL260508  10.560  14.370  11.910
 3221DOPG   C1A60509  10.880  14.090  11.690
 3221DOPG   D2A60510  11.060  14.270  11.940
 3221DOPG   C3A60511  11.370  14.540  12.020
 3221DOPG   C4A60512  11.790  14.590  11.960
 3221DOPG   C1B60513  10.390  13.980  12.020
 3221DOPG   D2B60514  10.250  13.800  12.330
 3221DOPG   C3B60515  10.580  13.640  12.590
 3221DOPG   C4B60516  11.020  13.480  12.580
 3222DOPG   GL060517  17.070  23.320   5.810
 3222DOPG   PO460518  17.190  23.510   6.130
 3222DOPG   GL160519  17.350  23.400   6.560
 3222DOPG   GL260520  17.560  23.170   6.520
 3222DOPG   C1A60521  17.700  23.670   6.730
 3222DOPG   D2A60522  17.790  23.930   7.120
 3222DOPG   C3A60523  17.600  23.910   7.560
 3222DOPG   C4A60524  17.820  23.700   7.910
 3222DOPG   C1B60525  17.860  23.010   6.700
 3222DOPG   D2B60526  18.180  22.780   6.870
 3222DOPG   C3B60527  18.370  22.740   7.290
 3222DOPG   C4B60528  18.630  22.940   7.510
 3223DOPG   GL060529  18.130  17.850   7.300
 3223DOPG   PO460530  18.240  17.560   7.680
 3223DOPG   GL160531  18.550  17.830   7.930
 3223DOPG   GL260532  18.480  17.570   8.200
 3223DOPG   C1A60533  18.790  18.200   7.940
 3223DOPG   D2A60534  19.030  18.400   8.190
 3223DOPG   C3A60535  19.280  18.650   8.370
 3223DOPG   C4A60536  19.370  18.650   8.820
 3223DOPG   C1B60537  18.350  17.450   8.580
 3223DOPG   D2B60538  18.360  17.480   9.050
 3223DOPG   C3B60539  18.360  17.820   9.330
 3223DOPG   C4B60540  18.460  18.170   9.600
 3224DOPG   GL060541  17.240  11.790   3.720
 3224DOPG   PO460542  17.400  12.160   3.560
 3224DOPG   GL160543  17.230  12.210   3.920
 3224DOPG   GL260544  17.500  12.430   3.980
 3224DOPG   C1A60545  17.400  12.210   4.460
 3224DOPG   D2A60546  17.470  12.320   4.850
 3224DOPG   C3A60547  17.330  12.720   4.860
 3224DOPG   C4A60548  17.340  13.200   4.880
 3224DOPG   C1B60549  17.280  12.710   3.770
 3224DOPG   D2B60550  17.190  13.090   3.760
 3224DOPG   C3B60551  16.850  13.370   3.960
 3224DOPG   C4B60552  16.430  13.310   4.120
 3225DOPG   GL060553  19.220  21.890  19.060
 3225DOPG   PO460554  19.510  21.710  19.330
 3225DOPG   GL160555  19.670  21.540  18.900
 3225DOPG   GL260556  19.530  21.170  19.020
 3225DOPG   C1A60557  19.640  21.520  18.590
 3225DOPG   D2A60558  19.630  21.300  18.270
 3225DOPG   C3A60559  19.490  21.440  17.940
 3225DOPG   C4A60560  19.150  21.390  17.570
 3225DOPG   C1B60561  19.270  21.240  18.690
 3225DOPG   D2B60562  19.210  21.660  18.350
 3225DOPG   C3B60563  19.550  21.930  18.200
 3225DOPG   C4B60564  19.970  21.850  18.270
 3226DOPG   GL060565  24.050  22.450   9.680
 3226DOPG   PO460566  23.750  22.460   9.750
 3226DOPG   GL160567  23.560  22.600  10.150
 3226DOPG   GL260568  23.690  22.930  10.170
 3226DOPG   C1A60569  23.150  22.750  10.130
 3226DOPG   D2A60570  22.790  22.890  10.160
 3226DOPG   C3A60571  22.630  23.190   9.820
 3226DOPG   C4A60572  22.480  23.590   9.690
 3226DOPG   C1B60573  23.610  23.320  10.420
 3226DOPG   D2B60574  23.320  23.640  10.540
 3226DOPG   C3B60575  23.030  23.670  10.260
 3226DOPG   C4B60576  22.770  23.870   9.950
 3227DOPG   GL060577  13.270  14.990   7.040
 3227DOPG   PO460578  13.670  14.800   7.160
 3227DOPG   GL160579  13.410  14.480   6.850
 3227DOPG   GL260580  13.210  14.400   7.120
 3227DOPG   C1A60581  13.620  14.220   6.670
 3227DOPG   D2A60582  13.770  13.920   6.360
 3227DOPG   C3A60583  13.800  13.470   6.360
 3227DOPG   C4A60584  14.070  13.020   6.350
 3227DOPG   C1B60585  12.950  14.230   6.870
 3227DOPG   D2B60586  12.600  14.000   6.680
 3227DOPG   C3B60587  12.140  14.000   6.830
 3227DOPG   C4B60588  11.810  13.980   6.690
 3228DOPG   GL060589  11.380  23.320  10.250
 3228DOPG   PO460590  11.720  23.050  10.110
 3228DOPG   GL160591  12.010  22.840  10.370
 3228DOPG   GL260592  11.850  22.550  10.340
 3228DOPG   C1A60593  12.340  22.620  10.580
 3228DOPG   D2A60594  12.660  22.430  10.460
 3228DOPG   C3A60595  12.920  22.190  10.760
 3228DOPG   C4A60596  13.230  22.010  11.050
 3228DOPG   C1B60597  11.940  22.290  10.690
 3228DOPG   D2B60598  12.320  22.110  10.820
 3228DOPG   C3B60599  12.590  22.220  11.170
 3228DOPG   C4B60600  12.740  21.930  11.350
 3229DOPG   GL060601  25.280  22.820  11.250
 3229DOPG   PO460602  24.950  23.020  10.960
 3229DOPG   GL160603  24.650  22.690  11.130
 3229DOPG   GL260604  24.850  22.750  11.530
 3229DOPG   C1A60605  24.340  22.230  11.150
 3229DOPG   D2A60606  24.300  21.910  11.510
 3229DOPG   C3A60607  24.000  21.880  11.940
 3229DOPG   C4A60608  23.930  22.000  12.330
 3229DOPG   C1B60609  24.570  23.190  11.610
 3229DOPG   D2B60610  24.150  23.240  11.680
 3229DOPG   C3B60611  24.110  23.650  11.920
 3229DOPG   C4B60612  23.700  23.720  12.270
 3230DOPG   GL060613  21.070  27.820   9.080
 3230DOPG   PO460614  21.270  27.490   9.200
 3230DOPG   GL160615  21.400  27.120   9.420
 3230DOPG   GL260616  21.420  26.870   9.360
 3230DOPG   C1A60617  21.240  27.100   9.900
 3230DOPG   D2A60618  21.100  27.090  10.290
 3230DOPG   C3A60619  20.870  26.750  10.300
 3230DOPG   C4A60620  20.570  26.460  10.230
 3230DOPG   C1B60621  21.580  26.590   9.680
 3230DOPG   D2B60622  21.740  26.300   9.990
 3230DOPG   C3B60623  22.170  26.260   9.880
 3230DOPG   C4B60624  22.320  26.160   9.460
 3231DOPG   GL060625  19.780  14.930  12.000
 3231DOPG   PO460626  20.240  14.810  12.000
 3231DOPG   GL160627  20.250  15.230  12.190
 3231DOPG   GL260628  20.440  15.320  11.950
 3231DOPG   C1A60629  20.230  15.620  12.520
 3231DOPG   D2A60630  20.350  15.880  12.840
 3231DOPG   C3A60631  20.060  16.190  12.860
 3231DOPG   C4A60632  19.700  16.270  12.900
 3231DOPG   C1B60633  20.440  15.700  12.000
 3231DOPG   D2B60634  20.420  16.080  12.260
 3231DOPG   C3B60635  20.530  16.390  11.960
 3231DOPG   C4B60636  20.750  16.150  11.630
 3232DOPG   GL060637  13.670  13.950  14.520
 3232DOPG   PO460638  14.020  14.000  14.730
 3232DOPG   GL160639  13.960  14.370  14.580
 3232DOPG   GL260640  14.250  14.430  14.650
 3232DOPG   C1A60641  13.980  14.770  14.330
 3232DOPG   D2A60642  14.030  15.250  14.260
 3232DOPG   C3A60643  14.170  15.590  14.480
 3232DOPG   C4A60644  14.440  15.850  14.490
 3232DOPG   C1B60645  14.670  14.720  14.760
 3232DOPG   D2B60646  15.030  14.620  14.530
 3232DOPG   C3B60647  15.010  14.830  14.190
 3232DOPG   C4B60648  14.780  15.160  13.890
 3233DOPG   GL060649  23.890  15.340   4.630
 3233DOPG   PO460650  23.620  15.060   4.390
 3233DOPG   GL160651  23.360  15.240   4.820
 3233DOPG   GL260652  23.040  15.200   4.560
 3233DOPG   C1A60653  23.260  15.280   5.180
 3233DOPG   D2A60654  23.080  15.360   5.530
 3233DOPG   C3A60655  22.750  15.530   5.740
 3233DOPG   C4A60656  22.360  15.590   6.010
 3233DOPG   C1B60657  23.010  15.570   4.900
 3233DOPG   D2B60658  23.230  15.820   5.270
 3233DOPG   C3B60659  23.240  15.850   5.680
 3233DOPG   C4B60660  23.240  15.920   6.080
 3234DOPG   GL060661  10.840  17.090  18.220
 3234DOPG   PO460662  10.380  17.260  18.190
 3234DOPG   GL160663  10.050  17.200  18.420
 3234DOPG   GL260664  10.040  17.010  18.720
 3234DOPG   C1A60665   9.550  17.290  18.450
 3234DOPG   D2A60666   9.130  17.390  18.270
 3234DOPG   C3A60667   8.720  17.210  18.330
 3234DOPG   C4A60668   8.500  17.110  18.570
 3234DOPG   C1B60669  10.090  16.650  19.120
 3234DOPG   D2B60670  10.340  16.550  19.550
 3234DOPG   C3B60671  10.520  16.150  19.670
 3234DOPG   C4B60672  10.960  16.030  19.730
 3235DOPG   GL060673  14.370  19.250  19.330
 3235DOPG   PO460674  14.200  18.880  19.030
 3235DOPG   GL160675  14.270  19.130  18.760
 3235DOPG   GL260676  14.040  18.950  18.540
 3235DOPG   C1A60677  14.180  19.470  18.390
 3235DOPG   D2A60678  14.210  19.810  18.310
 3235DOPG   C3A60679  14.020  19.820  17.910
 3235DOPG   C4A60680  13.810  19.560  17.550
 3235DOPG   C1B60681  14.310  19.070  18.160
 3235DOPG   D2B60682  14.670  19.140  17.820
 3235DOPG   C3B60683  14.810  18.860  17.480
 3235DOPG   C4B60684  15.000  18.880  17.060
 3236DOPG   GL060685  11.170  10.260   9.550
 3236DOPG   PO460686  11.390  10.290   9.980
 3236DOPG   GL160687  11.710  10.270  10.100
 3236DOPG   GL260688  11.980  10.180   9.970
 3236DOPG   C1A60689  12.010  10.580  10.190
 3236DOPG   D2A60690  12.420  10.710  10.190
 3236DOPG   C3A60691  12.600  10.830  10.530
 3236DOPG   C4A60692  12.710  11.200  10.800
 3236DOPG   C1B60693  12.330  10.240  10.290
 3236DOPG   D2B60694  12.570  10.000  10.490
 3236DOPG   C3B60695  12.360  10.000  10.880
 3236DOPG   C4B60696  12.150   9.910  11.300
 3237DOPG   GL060697  14.950  23.260  18.540
 3237DOPG   PO460698  14.520  23.280  18.460
 3237DOPG   GL160699  14.740  23.170  18.060
 3237DOPG   GL260700  14.580  23.360  17.910
 3237DOPG   C1A60701  15.150  23.330  17.890
 3237DOPG   D2A60702  15.640  23.440  17.980
 3237DOPG   C3A60703  15.990  23.340  17.850
 3237DOPG   C4A60704  16.110  23.050  17.730
 3237DOPG   C1B60705  14.790  23.270  17.550
 3237DOPG   D2B60706  15.020  22.900  17.550
 3237DOPG   C3B60707  15.120  22.530  17.300
 3237DOPG   C4B60708  15.280  22.470  16.890
 3238DOPG   GL060709  18.090  29.080  14.480
 3238DOPG   PO460710  17.750  28.780  14.290
 3238DOPG   GL160711  17.800  28.360  14.260
 3238DOPG   GL260712  17.690  28.180  14.000
 3238DOPG   C1A60713  17.720  27.930  14.450
 3238DOPG   D2A60714  17.690  27.420  14.580
 3238DOPG   C3A60715  17.570  27.000  14.300
 3238DOPG   C4A60716  17.490  26.640  14.260
 3238DOPG   C1B60717  17.700  27.780  13.910
 3238DOPG   D2B60718  17.300  27.750  13.710
 3238DOPG   C3B60719  17.050  27.290  13.650
 3238DOPG   C4B60720  16.810  26.920  13.530
 3239DOPG   GL060721  24.320  32.230  16.240
 3239DOPG   PO460722  24.040  32.450  15.950
 3239DOPG   GL160723  23.680  32.430  15.780
 3239DOPG   GL260724  23.510  32.340  16.010
 3239DOPG   C1A60725  23.390  32.220  15.510
 3239DOPG   D2A60726  23.380  31.910  15.300
 3239DOPG   C3A60727  23.020  31.620  15.440
 3239DOPG   C4A60728  22.540  31.540  15.250
 3239DOPG   C1B60729  23.200  32.080  16.020
 3239DOPG   D2B60730  23.170  31.670  15.960
 3239DOPG   C3B60731  23.520  31.460  15.750
 3239DOPG   C4B60732  23.680  31.490  15.330
 3240DOPG   GL060733  13.490  13.310  12.550
 3240DOPG   PO460734  13.450  13.390  12.110
 3240DOPG   GL160735  13.150  13.520  11.780
 3240DOPG   GL260736  13.380  13.650  11.490
 3240DOPG   C1A60737  12.850  13.780  11.700
 3240DOPG   D2A60738  12.460  14.060  11.750
 3240DOPG   C3A60739  12.310  14.410  12.000
 3240DOPG   C4A60740  12.110  14.330  12.380
 3240DOPG   C1B60741  13.230  14.020  11.330
 3240DOPG   D2B60742  12.990  14.260  11.380
 3240DOPG   C3B60743  12.650  14.420  11.220
 3240DOPG   C4B60744  12.250  14.450  11.010
 3241DOPG   GL060745  12.640  11.800   4.570
 3241DOPG   PO460746  12.730  11.710   5.000
 3241DOPG   GL160747  13.080  12.030   5.030
 3241DOPG   GL260748  13.510  12.000   5.000
 3241DOPG   C1A60749  13.090  12.450   5.080
 3241DOPG   D2A60750  12.900  12.900   5.270
 3241DOPG   C3A60751  12.800  13.140   5.010
 3241DOPG   C4A60752  12.590  13.290   4.640
 3241DOPG   C1B60753  13.580  12.390   5.160
 3241DOPG   D2B60754  13.760  12.710   5.310
 3241DOPG   C3B60755  14.020  12.710   5.710
 3241DOPG   C4B60756  14.170  13.070   5.850
 3242DOPG   GL060757  24.510  20.090  15.570
 3242DOPG   PO460758  24.790  20.390  15.400
 3242DOPG   GL160759  24.500  20.680  15.410
 3242DOPG   GL260760  24.200  20.560  15.500
 3242DOPG   C1A60761  24.150  20.990  15.180
 3242DOPG   D2A60762  23.720  21.020  15.120
 3242DOPG   C3A60763  23.360  21.060  14.790
 3242DOPG   C4A60764  22.980  21.150  14.780
 3242DOPG   C1B60765  24.000  20.490  15.080
 3242DOPG   D2B60766  23.950  20.260  14.730
 3242DOPG   C3B60767  23.980  19.840  14.990
 3242DOPG   C4B60768  23.800  19.630  15.320
 3243DOPG   GL060769  11.120  21.380  16.550
 3243DOPG   PO460770  11.560  21.520  16.580
 3243DOPG   GL160771  11.850  21.200  16.410
 3243DOPG   GL260772  11.780  21.170  16.140
 3243DOPG   C1A60773  12.020  20.770  16.350
 3243DOPG   D2A60774  11.980  20.490  16.030
 3243DOPG   C3A60775  12.180  20.770  15.650
 3243DOPG   C4A60776  12.390  21.110  15.390
 3243DOPG   C1B60777  12.230  21.130  16.020
 3243DOPG   D2B60778  12.660  20.990  15.840
 3243DOPG   C3B60779  12.750  20.680  15.490
 3243DOPG   C4B60780  12.570  20.370  15.300
 3244DOPG   GL060781  19.140  15.360  10.200
 3244DOPG   PO460782  19.370  15.490   9.780
 3244DOPG   GL160783  19.440  15.820  10.050
 3244DOPG   GL260784  19.260  15.980  10.360
 3244DOPG   C1A60785  19.300  16.270   9.780
 3244DOPG   D2A60786  19.160  16.660  10.000
 3244DOPG   C3A60787  18.840  16.740  10.240
 3244DOPG   C4A60788  18.670  17.090  10.530
 3244DOPG   C1B60789  19.350  16.430  10.390
 3244DOPG   D2B60790  19.390  16.750  10.560
 3244DOPG   C3B60791  19.320  16.660  11.090
 3244DOPG   C4B60792  19.380  16.350  11.370
 3245DOPG   GL060793  11.300  20.710  10.010
 3245DOPG   PO460794  10.830  20.840   9.950
 3245DOPG   GL160795  10.910  20.640  10.340
 3245DOPG   GL260796  10.930  20.780  10.450
 3245DOPG   C1A60797  11.090  20.210  10.330
 3245DOPG   D2A60798  11.210  19.880  10.660
 3245DOPG   C3A60799  11.280  19.400  10.690
 3245DOPG   C4A60800  11.360  19.040  10.890
 3245DOPG   C1B60801  11.350  20.590  10.690
 3245DOPG   D2B60802  11.630  20.670  11.010
 3245DOPG   C3B60803  11.880  20.410  11.150
 3245DOPG   C4B60804  11.880  20.090  11.260
 3246DOPG   GL060805  19.050  11.530   3.610
 3246DOPG   PO460806  19.130  11.880   3.900
 3246DOPG   GL160807  18.910  12.110   4.110
 3246DOPG   GL260808  18.610  12.240   3.990
 3246DOPG   C1A60809  18.790  12.290   4.460
 3246DOPG   D2A60810  18.980  12.760   4.570
 3246DOPG   C3A60811  19.220  12.730   5.060
 3246DOPG   C4A60812  19.300  12.550   5.480
 3246DOPG   C1B60813  18.480  12.590   4.170
 3246DOPG   D2B60814  18.410  12.710   4.610
 3246DOPG   C3B60815  18.190  12.980   4.800
 3246DOPG   C4B60816  18.270  13.380   5.020
 3247DOPG   GL060817  13.090  25.460  11.000
 3247DOPG   PO460818  13.210  25.930  10.910
 3247DOPG   GL160819  13.570  25.720  10.900
 3247DOPG   GL260820  13.600  25.710  11.200
 3247DOPG   C1A60821  13.980  25.630  10.720
 3247DOPG   D2A60822  14.300  25.400  11.000
 3247DOPG   C3A60823  14.640  25.060  10.850
 3247DOPG   C4A60824  14.810  24.810  10.630
 3247DOPG   C1B60825  13.680  25.240  11.010
 3247DOPG   D2B60826  13.710  24.800  10.670
 3247DOPG   C3B60827  13.710  24.420  10.820
 3247DOPG   C4B60828  13.810  24.130  10.960
 3248DOPG   GL060829   6.160  19.630   8.320
 3248DOPG   PO460830   6.520  19.470   8.570
 3248DOPG   GL160831   6.880  19.590   8.750
 3248DOPG   GL260832   7.030  19.400   8.920
 3248DOPG   C1A60833   7.140  19.890   8.580
 3248DOPG   D2A60834   7.490  20.270   8.700
 3248DOPG   C3A60835   7.890  20.310   8.520
 3248DOPG   C4A60836   8.230  20.260   8.420
 3248DOPG   C1B60837   7.030  19.820   9.140
 3248DOPG   D2B60838   7.000  20.240   9.310
 3248DOPG   C3B60839   7.460  20.290   9.250
 3248DOPG   C4B60840   7.820  20.150   9.490
 3249DOPG   GL060841  19.730  26.560  17.860
 3249DOPG   PO460842  19.890  26.970  17.610
 3249DOPG   GL160843  19.650  26.900  17.260
 3249DOPG   GL260844  19.950  26.900  17.110
 3249DOPG   C1A60845  19.440  26.610  16.930
 3249DOPG   D2A60846  19.090  26.430  16.540
 3249DOPG   C3A60847  19.190  26.040  16.290
 3249DOPG   C4A60848  19.450  25.700  16.450
 3249DOPG   C1B60849  19.870  26.850  16.680
 3249DOPG   D2B60850  19.530  26.600  16.370
 3249DOPG   C3B60851  19.660  26.160  16.450
 3249DOPG   C4B60852  19.900  25.840  16.260
 3250DOPG   GL060853  14.940  22.570  18.780
 3250DOPG   PO460854  15.300  22.710  18.870
 3250DOPG   GL160855  15.260  22.600  18.400
 3250DOPG   GL260856  15.330  22.930  18.340
 3250DOPG   C1A60857  15.200  22.530  17.890
 3250DOPG   D2A60858  14.960  22.230  17.660
 3250DOPG   C3A60859  15.130  21.900  17.530
 3250DOPG   C4A60860  15.220  21.870  17.180
 3250DOPG   C1B60861  15.570  22.930  18.000
 3250DOPG   D2B60862  15.790  22.600  17.780
 3250DOPG   C3B60863  16.080  22.520  17.480
 3250DOPG   C4B60864  16.350  22.470  17.120
 3251DOPG   GL060865  21.930  15.160  14.590
 3251DOPG   PO460866  21.750  15.050  14.190
 3251DOPG   GL160867  21.640  15.430  14.050
 3251DOPG   GL260868  21.620  15.700  13.830
 3251DOPG   C1A60869  21.240  15.650  14.170
 3251DOPG   D2A60870  20.970  15.550  14.390
 3251DOPG   C3A60871  20.630  15.880  14.310
 3251DOPG   C4A60872  20.460  16.290  14.450
 3251DOPG   C1B60873  21.450  16.060  13.720
 3251DOPG   D2B60874  21.640  16.430  13.580
 3251DOPG   C3B60875  21.660  16.800  13.860
 3251DOPG   C4B60876  21.700  17.070  14.130
 3252DOPG   GL060877  22.250  11.840   6.090
 3252DOPG   PO460878  22.230  12.040   5.740
 3252DOPG   GL160879  22.270  12.300   6.090
 3252DOPG   GL260880  21.940  12.410   6.000
 3252DOPG   C1A60881  22.080  12.430   6.560
 3252DOPG   D2A60882  22.040  12.690   6.920
 3252DOPG   C3A60883  22.250  12.660   7.250
 3252DOPG   C4A60884  22.480  12.900   7.650
 3252DOPG   C1B60885  21.630  12.430   6.340
 3252DOPG   D2B60886  21.490  12.650   6.820
 3252DOPG   C3B60887  21.390  12.270   7.130
 3252DOPG   C4B60888  21.000  12.280   7.270
 3253DOPG   GL060889  21.850  28.320  15.850
 3253DOPG   PO460890  21.710  27.890  15.910
 3253DOPG   GL160891  21.360  27.640  15.670
 3253DOPG   GL260892  21.050  27.720  15.680
 3253DOPG   C1A60893  21.250  27.310  15.310
 3253DOPG   D2A60894  20.860  27.240  15.070
 3253DOPG   C3A60895  20.730  26.840  14.820
 3253DOPG   C4A60896  20.450  26.460  14.610
 3253DOPG   C1B60897  20.760  27.370  15.610
 3253DOPG   D2B60898  20.460  27.130  15.350
 3253DOPG   C3B60899  20.330  27.270  14.930
 3253DOPG   C4B60900  20.250  26.990  14.520
 3254DOPG   GL060901  11.620  19.140   7.780
 3254DOPG   PO460902  11.530  19.440   8.020
 3254DOPG   GL160903  11.120  19.200   8.070
 3254DOPG   GL260904  11.150  18.890   8.310
 3254DOPG   C1A60905  10.790  19.010   8.010
 3254DOPG   D2A60906  10.540  18.650   8.010
 3254DOPG   C3A60907  10.100  18.780   8.020
 3254DOPG   C4A60908   9.750  18.710   8.030
 3254DOPG   C1B60909  10.790  18.630   8.480
 3254DOPG   D2B60910  10.480  18.320   8.460
 3254DOPG   C3B60911  10.050  18.330   8.370
 3254DOPG   C4B60912   9.610  18.430   8.400
 3255DOPG   GL060913  30.450  22.590  15.300
 3255DOPG   PO460914  30.510  22.430  14.850
 3255DOPG   GL160915  30.050  22.390  14.930
 3255DOPG   GL260916  29.890  22.210  15.230
 3255DOPG   C1A60917  29.630  22.260  14.730
 3255DOPG   D2A60918  29.220  22.090  14.470
 3255DOPG   C3A60919  28.850  22.290  14.420
 3255DOPG   C4A60920  28.460  22.470  14.410
 3255DOPG   C1B60921  29.530  22.290  15.370
 3255DOPG   D2B60922  29.260  22.590  15.450
 3255DOPG   C3B60923  29.090  23.090  15.440
 3255DOPG   C4B60924  28.660  23.230  15.390
 3256DOPG   GL060925  20.650  26.530   7.230
 3256DOPG   PO460926  20.880  26.290   7.170
 3256DOPG   GL160927  21.070  26.400   6.770
 3256DOPG   GL260928  20.980  26.200   6.600
 3256DOPG   C1A60929  21.400  26.680   6.660
 3256DOPG   D2A60930  21.440  26.990   6.390
 3256DOPG   C3A60931  21.560  27.090   5.850
 3256DOPG   C4A60932  21.340  27.070   5.460
 3256DOPG   C1B60933  20.930  26.610   6.370
 3256DOPG   D2B60934  21.100  26.760   6.010
 3256DOPG   C3B60935  21.140  26.470   5.700
 3256DOPG   C4B60936  21.000  26.090   5.680
 3257DOPG   GL060937  23.650  27.460  15.000
 3257DOPG   PO460938  23.790  27.070  14.970
 3257DOPG   GL160939  23.670  26.790  14.640
 3257DOPG   GL260940  23.770  26.480  14.620
 3257DOPG   C1A60941  23.310  26.650  14.430
 3257DOPG   D2A60942  22.960  26.720  14.370
 3257DOPG   C3A60943  22.770  26.770  13.930
 3257DOPG   C4A60944  23.100  26.960  13.610
 3257DOPG   C1B60945  23.500  26.110  14.560
 3257DOPG   D2B60946  23.340  25.980  14.280
 3257DOPG   C3B60947  23.350  25.540  14.350
 3257DOPG   C4B60948  23.350  25.030  14.360
 3258DOPG   GL060949  10.960  21.040   8.340
 3258DOPG   PO460950  10.850  21.180   8.030
 3258DOPG   GL160951  10.460  21.230   7.810
 3258DOPG   GL260952  10.120  21.140   8.020
 3258DOPG   C1A60953  10.370  21.260   7.330
 3258DOPG   D2A60954  10.140  21.610   7.070
 3258DOPG   C3A60955   9.780  21.870   6.960
 3258DOPG   C4A60956   9.590  21.850   6.700
 3258DOPG   C1B60957   9.880  21.160   7.680
 3258DOPG   D2B60958   9.750  21.320   7.280
 3258DOPG   C3B60959   9.420  21.590   7.240
 3258DOPG   C4B60960   9.190  21.970   6.960
 3259DOPG   GL060961   9.780  17.350  16.920
 3259DOPG   PO460962  10.050  17.800  16.690
 3259DOPG   GL160963   9.760  17.500  16.400
 3259DOPG   GL260964   9.710  17.540  16.040
 3259DOPG   C1A60965   9.320  17.320  16.240
 3259DOPG   D2A60966   8.900  17.260  15.990
 3259DOPG   C3A60967   8.880  16.870  15.890
 3259DOPG   C4A60968   9.100  16.560  15.760
 3259DOPG   C1B60969   9.430  17.470  15.720
 3259DOPG   D2B60970   9.110  17.520  15.400
 3259DOPG   C3B60971   8.670  17.290  15.570
 3259DOPG   C4B60972   8.440  17.250  16.000
 3260DOPG   GL060973  13.300  26.850  13.460
 3260DOPG   PO460974  13.440  26.420  13.430
 3260DOPG   GL160975  13.730  26.240  13.280
 3260DOPG   GL260976  14.030  26.420  13.380
 3260DOPG   C1A60977  13.970  25.830  13.130
 3260DOPG   D2A60978  14.240  25.570  13.440
 3260DOPG   C3A60979  14.660  25.380  13.330
 3260DOPG   C4A60980  14.990  25.190  13.420
 3260DOPG   C1B60981  14.280  26.080  13.550
 3260DOPG   D2B60982  14.520  25.800  13.780
 3260DOPG   C3B60983  14.620  25.470  14.050
 3260DOPG   C4B60984  15.020  25.610  13.970
 3261DOPG   GL060985  22.140  17.350  16.510
 3261DOPG   PO460986  22.610  17.300  16.430
 3261DOPG   GL160987  22.410  17.740  16.380
 3261DOPG   GL260988  22.450  17.960  16.170
 3261DOPG   C1A60989  21.950  17.720  16.170
 3261DOPG   D2A60990  21.620  17.710  16.110
 3261DOPG   C3A60991  21.420  17.780  16.450
 3261DOPG   C4A60992  21.240  17.910  16.790
 3261DOPG   C1B60993  22.130  18.270  16.070
 3261DOPG   D2B60994  21.760  18.320  15.840
 3261DOPG   C3B60995  21.350  18.130  15.800
 3261DOPG   C4B60996  21.070  18.080  16.120
 3262DOPG   GL060997  20.770  27.980  16.740
 3262DOPG   PO460998  20.710  28.190  16.370
 3262DOPG   GL160999  20.530  27.840  16.180
 3262DOPG   GL261000  20.570  27.840  15.830
 3262DOPG   C1A61001  20.600  27.430  16.100
 3262DOPG   D2A61002  20.690  26.950  16.180
 3262DOPG   C3A61003  20.650  26.750  15.800
 3262DOPG   C4A61004  21.070  26.450  15.740
 3262DOPG   C1B61005  20.220  27.640  15.690
 3262DOPG   D2B61006  20.090  27.440  15.400
 3262DOPG   C3B61007  19.910  27.160  15.270
 3262DOPG   C4B61008  19.660  26.820  15.330
 3263DOPG   GL061009  15.930  26.110   7.380
 3263DOPG   PO461010  16.110  26.540   7.370
 3263DOPG   GL161011  16.260  26.970   7.320
 3263DOPG   GL261012  16.040  27.240   7.540
 3263DOPG   C1A61013  16.160  27.170   6.960
 3263DOPG   D2A61014  15.920  27.650   6.950
 3263DOPG   C3A61015  16.090  28.070   6.810
 3263DOPG   C4A61016  16.170  28.450   6.710
 3263DOPG   C1B61017  15.640  27.350   7.250
 3263DOPG   D2B61018  15.230  27.520   7.150
 3263DOPG   C3B61019  15.020  27.610   6.770
 3263DOPG   C4B61020  14.730  27.860   6.540
 3264DOPG   GL061021  20.910  15.010  15.220
 3264DOPG   PO461022  20.910  15.330  15.150
 3264DOPG   GL161023  20.880  15.610  14.920
 3264DOPG   GL261024  20.590  15.520  14.770
 3264DOPG   C1A61025  20.730  15.970  14.750
 3264DOPG   D2A61026  20.970  16.280  14.440
 3264DOPG   C3A61027  20.710  16.630  14.210
 3264DOPG   C4A61028  20.220  16.740  14.220
 3264DOPG   C1B61029  20.200  15.850  14.570
 3264DOPG   D2B61030  20.090  15.960  14.250
 3264DOPG   C3B61031  19.670  16.010  14.280
 3264DOPG   C4B61032  19.290  16.310  14.250
 3265DOPG   GL061033  19.840  23.650  20.080
 3265DOPG   PO461034  19.850  23.830  19.700
 3265DOPG   GL161035  19.840  23.740  19.270
 3265DOPG   GL261036  19.610  23.960  19.040
 3265DOPG   C1A61037  20.000  23.720  18.840
 3265DOPG   D2A61038  20.140  23.360  18.670
 3265DOPG   C3A61039  20.410  23.180  18.410
 3265DOPG   C4A61040  20.750  23.070  18.740
 3265DOPG   C1B61041  19.670  24.020  18.660
 3265DOPG   D2B61042  19.720  23.910  18.220
 3265DOPG   C3B61043  19.550  23.770  17.910
 3265DOPG   C4B61044  19.570  23.840  17.520
 3266DOPG   GL061045  12.050  16.990   1.900
 3266DOPG   PO461046  11.630  17.270   2.080
 3266DOPG   GL161047  11.930  17.220   2.370
 3266DOPG   GL261048  11.800  17.510   2.570
 3266DOPG   C1A61049  12.200  17.220   2.710
 3266DOPG   D2A61050  12.060  17.330   3.070
 3266DOPG   C3A61051  12.360  17.470   3.320
 3266DOPG   C4A61052  12.460  17.590   3.700
 3266DOPG   C1B61053  11.900  17.960   2.670
 3266DOPG   D2B61054  12.180  18.250   2.730
 3266DOPG   C3B61055  12.680  18.180   2.840
 3266DOPG   C4B61056  13.070  17.890   2.810
 3267DOPG   GL061057  10.760  18.370  16.470
 3267DOPG   PO461058  11.120  18.270  16.270
 3267DOPG   GL161059  11.320  18.560  16.030
 3267DOPG   GL261060  11.200  18.650  15.820
 3267DOPG   C1A61061  11.730  18.730  15.820
 3267DOPG   D2A61062  12.260  18.630  15.610
 3267DOPG   C3A61063  12.590  18.940  15.370
 3267DOPG   C4A61064  12.730  18.830  14.910
 3267DOPG   C1B61065  11.460  18.600  15.420
 3267DOPG   D2B61066  11.430  18.730  15.060
 3267DOPG   C3B61067  11.760  18.640  14.740
 3267DOPG   C4B61068  11.660  18.830  14.430
 3268DOPG   GL061069  12.250  24.490  14.250
 3268DOPG   PO461070  12.390  24.700  13.930
 3268DOPG   GL161071  12.740  24.620  13.690
 3268DOPG   GL261072  12.530  24.510  13.450
 3268DOPG   C1A61073  13.060  24.370  13.830
 3268DOPG   D2A61074  13.170  24.050  13.900
 3268DOPG   C3A61075  13.330  23.910  13.680
 3268DOPG   C4A61076  13.720  23.980  13.360
 3268DOPG   C1B61077  12.680  24.120  13.530
 3268DOPG   D2B61078  13.030  23.850  13.280
 3268DOPG   C3B61079  13.150  24.150  13.030
 3268DOPG   C4B61080  13.420  24.530  12.930
 3269DOPG   GL061081  15.390  14.710   7.080
 3269DOPG   PO461082  15.740  14.510   7.230
 3269DOPG   GL161083  15.690  14.340   6.930
 3269DOPG   GL261084  15.550  13.970   6.980
 3269DOPG   C1A61085  15.590  14.220   6.510
 3269DOPG   D2A61086  15.390  13.920   6.280
 3269DOPG   C3A61087  15.160  14.200   6.030
 3269DOPG   C4A61088  15.180  14.310   5.630
 3269DOPG   C1B61089  15.620  13.670   6.700
 3269DOPG   D2B61090  15.640  13.290   6.420
 3269DOPG   C3B61091  15.290  13.420   6.220
 3269DOPG   C4B61092  15.220  13.650   5.870
 3270DOPG   GL061093  25.640  31.270   8.550
 3270DOPG   PO461094  25.650  31.150   8.810
 3270DOPG   GL161095  25.320  30.860   9.030
 3270DOPG   GL261096  25.380  30.540   8.940
 3270DOPG   C1A61097  25.030  30.750   9.420
 3270DOPG   D2A61098  24.720  30.430   9.460
 3270DOPG   C3A61099  24.320  30.470   9.630
 3270DOPG   C4A61100  24.280  30.810   9.930
 3270DOPG   C1B61101  25.130  30.280   9.190
 3270DOPG   D2B61102  24.960  29.890   9.280
 3270DOPG   C3B61103  25.020  29.580   9.060
 3270DOPG   C4B61104  25.210  29.220   9.290
 3271DOPG   GL061105  25.720  17.030   5.380
 3271DOPG   PO461106  25.400  17.030   4.950
 3271DOPG   GL161107  24.990  17.090   5.200
 3271DOPG   GL261108  24.710  17.020   5.350
 3271DOPG   C1A61109  24.950  17.340   5.610
 3271DOPG   D2A61110  24.830  17.610   5.850
 3271DOPG   C3A61111  24.500  17.770   6.170
 3271DOPG   C4A61112  24.080  17.810   6.240
 3271DOPG   C1B61113  24.380  16.920   5.550
 3271DOPG   D2B61114  24.060  16.940   5.920
 3271DOPG   C3B61115  23.770  17.210   5.860
 3271DOPG   C4B61116  23.650  17.660   6.040
 3272DOPG   GL061117   6.300  19.610  19.460
 3272DOPG   PO461118   6.690  19.340  19.650
 3272DOPG   GL161119   6.900  19.640  19.370
 3272DOPG   GL261120   6.710  19.870  19.370
 3272DOPG   C1A61121   7.310  19.690  19.190
 3272DOPG   D2A61122   7.670  19.720  19.200
 3272DOPG   C3A61123   7.970  19.650  18.890
 3272DOPG   C4A61124   8.330  19.470  18.680
 3272DOPG   C1B61125   7.070  20.150  19.090
 3272DOPG   D2B61126   7.290  20.570  19.270
 3272DOPG   C3B61127   7.720  20.750  19.330
 3272DOPG   C4B61128   7.980  21.150  19.430
 3273DOPG   GL061129  20.560  23.410   2.300
 3273DOPG   PO461130  20.780  23.050   2.030
 3273DOPG   GL161131  20.790  22.940   2.450
 3273DOPG   GL261132  20.880  22.590   2.400
 3273DOPG   C1A61133  20.720  22.800   2.930
 3273DOPG   D2A61134  20.810  23.040   3.270
 3273DOPG   C3A61135  20.990  22.860   3.640
 3273DOPG   C4A61136  21.180  22.870   4.060
 3273DOPG   C1B61137  21.090  22.480   2.790
 3273DOPG   D2B61138  21.230  22.640   3.190
 3273DOPG   C3B61139  21.440  22.630   3.590
 3273DOPG   C4B61140  21.380  22.380   4.060
 3274DOPG   GL061141  20.710  14.340  13.070
 3274DOPG   PO461142  20.690  14.410  13.560
 3274DOPG   GL161143  20.360  14.780  13.520
 3274DOPG   GL261144  20.100  14.800  13.370
 3274DOPG   C1A61145  20.380  15.260  13.410
 3274DOPG   D2A61146  20.620  15.650  13.460
 3274DOPG   C3A61147  20.420  15.960  13.830
 3274DOPG   C4A61148  20.460  16.280  13.920
 3274DOPG   C1B61149  19.860  15.160  13.370
 3274DOPG   D2B61150  19.790  15.490  13.540
 3274DOPG   C3B61151  19.530  15.620  13.860
 3274DOPG   C4B61152  19.380  15.520  14.260
 3275DOPG   GL061153   9.490  16.810  11.150
 3275DOPG   PO461154   9.710  17.170  11.200
 3275DOPG   GL161155   9.720  17.600  11.140
 3275DOPG   GL261156   9.520  17.720  10.900
 3275DOPG   C1A61157   9.800  17.990  11.290
 3275DOPG   D2A61158   9.740  18.510  11.270
 3275DOPG   C3A61159   9.440  18.680  11.620
 3275DOPG   C4A61160   9.070  18.440  11.890
 3275DOPG   C1B61161   9.300  18.030  11.150
 3275DOPG   D2B61162   9.220  18.460  11.270
 3275DOPG   C3B61163   9.200  18.850  11.070
 3275DOPG   C4B61164   9.190  19.240  10.800
 3276DOPG   GL061165  19.290  18.530   6.950
 3276DOPG   PO461166  18.840  18.620   6.870
 3276DOPG   GL161167  18.780  18.660   7.290
 3276DOPG   GL261168  18.810  18.900   7.350
 3276DOPG   C1A61169  18.690  18.650   7.750
 3276DOPG   D2A61170  18.920  18.840   8.020
 3276DOPG   C3A61171  18.720  18.730   8.460
 3276DOPG   C4A61172  18.600  18.410   8.820
 3276DOPG   C1B61173  18.410  19.190   7.330
 3276DOPG   D2B61174  18.120  19.460   7.520
 3276DOPG   C3B61175  18.190  19.710   7.760
 3276DOPG   C4B61176  18.320  20.010   7.930
 3277DOPG   GL061177  14.750  20.620   7.970
 3277DOPG   PO461178  14.640  20.860   7.600
 3277DOPG   GL161179  14.740  21.110   7.870
 3277DOPG   GL261180  14.580  21.460   7.810
 3277DOPG   C1A61181  14.560  21.050   8.280
 3277DOPG   D2A61182  14.440  21.000   8.670
 3277DOPG   C3A61183  14.520  21.090   9.060
 3277DOPG   C4A61184  14.810  21.330   9.310
 3277DOPG   C1B61185  14.480  21.630   8.230
 3277DOPG   D2B61186  14.570  21.490   8.660
 3277DOPG   C3B61187  14.880  21.240   8.760
 3277DOPG   C4B61188  15.150  20.820   8.590
 3278DOPG   GL061189  22.800  27.310  10.000
 3278DOPG   PO461190  22.730  27.100  10.400
 3278DOPG   GL161191  22.330  26.910  10.520
 3278DOPG   GL261192  22.450  26.600  10.640
 3278DOPG   C1A61193  21.900  26.970  10.610
 3278DOPG   D2A61194  21.510  26.850  10.650
 3278DOPG   C3A61195  21.390  27.010  11.050
 3278DOPG   C4A61196  21.360  26.660  11.420
 3278DOPG   C1B61197  22.120  26.260  10.790
 3278DOPG   D2B61198  21.820  25.910  10.770
 3278DOPG   C3B61199  21.810  25.870  11.230
 3278DOPG   C4B61200  21.910  25.870  11.610
 3279DOPG   GL061201  13.670  13.380  10.490
 3279DOPG   PO461202  13.940  13.050  10.690
 3279DOPG   GL161203  13.730  12.920  10.340
 3279DOPG   GL261204  13.720  13.020  10.070
 3279DOPG   C1A61205  13.470  12.590  10.140
 3279DOPG   D2A61206  13.140  12.440  10.110
 3279DOPG   C3A61207  12.900  12.570   9.800
 3279DOPG   C4A61208  12.520  12.730   9.600
 3279DOPG   C1B61209  13.270  13.110  10.290
 3279DOPG   D2B61210  12.830  12.940  10.420
 3279DOPG   C3B61211  12.450  13.330  10.410
 3279DOPG   C4B61212  12.110  13.630  10.400
 3280DOPG   GL061213  14.810  22.830   7.030
 3280DOPG   PO461214  14.890  22.480   7.360
 3280DOPG   GL161215  14.890  22.330   7.880
 3280DOPG   GL261216  14.760  22.510   8.160
 3280DOPG   C1A61217  15.000  22.090   8.260
 3280DOPG   D2A61218  15.430  21.990   8.470
 3280DOPG   C3A61219  15.650  21.920   8.770
 3280DOPG   C4A61220  15.940  21.690   8.710
 3280DOPG   C1B61221  15.070  22.850   8.320
 3280DOPG   D2B61222  15.340  23.070   8.680
 3280DOPG   C3B61223  15.830  22.940   8.750
 3280DOPG   C4B61224  16.240  22.660   8.710
 3281DOPG   GL061225  20.060  30.780  20.850
 3281DOPG   PO461226  20.160  30.900  20.410
 3281DOPG   GL161227  19.840  30.760  20.330
 3281DOPG   GL261228  19.710  30.560  20.460
 3281DOPG   C1A61229  19.950  30.250  20.150
 3281DOPG   D2A61230  19.760  29.830  20.010
 3281DOPG   C3A61231  19.290  29.810  19.900
 3281DOPG   C4A61232  19.010  30.020  19.690
 3281DOPG   C1B61233  19.430  30.140  20.280
 3281DOPG   D2B61234  19.380  29.750  20.440
 3281DOPG   C3B61235  19.000  29.770  20.660
 3281DOPG   C4B61236  18.760  29.480  20.610
 3282DOPG   GL061237  17.250  25.230  18.480
 3282DOPG   PO461238  17.110  25.550  18.220
 3282DOPG   GL161239  17.350  25.300  17.920
 3282DOPG   GL261240  17.190  25.250  17.600
 3282DOPG   C1A61241  17.420  24.840  17.690
 3282DOPG   D2A61242  17.560  24.600  17.320
 3282DOPG   C3A61243  17.240  24.380  17.380
 3282DOPG   C4A61244  16.790  24.370  17.350
 3282DOPG   C1B61245  17.060  24.890  17.380
 3282DOPG   D2B61246  17.090  24.610  16.970
 3282DOPG   C3B61247  17.460  24.420  16.740
 3282DOPG   C4B61248  17.880  24.530  16.470
 3283DOPG   GL061249  20.820  29.060  10.780
 3283DOPG   PO461250  21.130  29.440  10.700
 3283DOPG   GL161251  21.270  29.800  10.560
 3283DOPG   GL261252  21.350  30.030  10.650
 3283DOPG   C1A61253  21.220  29.870  10.180
 3283DOPG   D2A61254  21.450  30.030   9.800
 3283DOPG   C3A61255  21.270  30.080   9.420
 3283DOPG   C4A61256  21.050  30.430   9.490
 3283DOPG   C1B61257  21.430  30.260  10.340
 3283DOPG   D2B61258  21.630  30.510  10.030
 3283DOPG   C3B61259  21.400  30.680   9.690
 3283DOPG   C4B61260  21.490  31.100   9.310
 3284DOPG   GL061261  12.590  13.510   3.010
 3284DOPG   PO461262  12.630  13.930   3.000
 3284DOPG   GL161263  12.700  13.930   3.480
 3284DOPG   GL261264  12.640  14.170   3.420
 3284DOPG   C1A61265  12.930  14.130   3.880
 3284DOPG   D2A61266  12.880  14.460   4.210
 3284DOPG   C3A61267  13.030  14.560   4.610
 3284DOPG   C4A61268  12.750  14.690   5.030
 3284DOPG   C1B61269  12.840  14.530   3.650
 3284DOPG   D2B61270  13.140  14.920   3.740
 3284DOPG   C3B61271  13.450  15.240   3.550
 3284DOPG   C4B61272  13.310  15.780   3.360
 3285DOPG   GL061273  24.700  22.690   9.200
 3285DOPG   PO461274  25.010  22.580   9.190
 3285DOPG   GL161275  25.250  22.440   8.780
 3285DOPG   GL261276  25.200  22.250   8.580
 3285DOPG   C1A61277  25.700  22.400   8.670
 3285DOPG   D2A61278  25.850  22.340   8.190
 3285DOPG   C3A61279  25.650  22.220   7.800
 3285DOPG   C4A61280  25.780  22.210   7.360
 3285DOPG   C1B61281  25.370  22.060   8.170
 3285DOPG   D2B61282  25.540  21.720   7.980
 3285DOPG   C3B61283  25.460  21.310   7.770
 3285DOPG   C4B61284  25.650  20.930   7.910
 3286DOPG   GL061285  17.500  20.190   5.000
 3286DOPG   PO461286  17.880  20.090   4.820
 3286DOPG   GL161287  17.920  19.870   4.470
 3286DOPG   GL261288  17.730  20.090   4.280
 3286DOPG   C1A61289  18.130  19.840   4.130
 3286DOPG   D2A61290  18.320  19.750   3.670
 3286DOPG   C3A61291  18.720  19.960   3.680
 3286DOPG   C4A61292  19.030  19.850   4.060
 3286DOPG   C1B61293  17.690  20.240   3.740
 3286DOPG   D2B61294  17.810  20.190   3.310
 3286DOPG   C3B61295  17.940  20.410   3.050
 3286DOPG   C4B61296  18.220  20.420   2.750
 3287DOPG   GL061297  24.890  21.530  14.730
 3287DOPG   PO461298  25.100  21.360  15.140
 3287DOPG   GL161299  24.590  21.330  15.090
 3287DOPG   GL261300  24.440  21.520  15.370
 3287DOPG   C1A61301  24.250  21.330  14.700
 3287DOPG   D2A61302  23.950  21.040  14.580
 3287DOPG   C3A61303  23.710  20.720  14.660
 3287DOPG   C4A61304  23.520  20.370  15.020
 3287DOPG   C1B61305  24.340  21.710  15.010
 3287DOPG   D2B61306  24.060  21.760  14.750
 3287DOPG   C3B61307  23.840  21.500  14.890
 3287DOPG   C4B61308  23.490  21.450  15.130
 3288DOPG   GL061309   8.510  24.750   5.380
 3288DOPG   PO461310   8.240  24.420   5.370
 3288DOPG   GL161311   8.720  24.280   5.620
 3288DOPG   GL261312   8.630  23.910   5.780
 3288DOPG   C1A61313   9.120  24.300   5.730
 3288DOPG   D2A61314   9.540  24.280   5.580
 3288DOPG   C3A61315   9.850  24.410   5.700
 3288DOPG   C4A61316  10.010  24.770   5.790
 3288DOPG   C1B61317   9.010  23.670   5.690
 3288DOPG   D2B61318   9.390  23.490   5.920
 3288DOPG   C3B61319   9.660  23.170   6.050
 3288DOPG   C4B61320  10.060  23.230   6.060
 3289DOPG   GL061321  24.620  23.720   9.390
 3289DOPG   PO461322  24.850  23.640   9.090
 3289DOPG   GL161323  25.310  23.620   9.050
 3289DOPG   GL261324  25.250  23.370   8.900
 3289DOPG   C1A61325  25.740  23.740   8.810
 3289DOPG   D2A61326  26.000  24.020   8.550
 3289DOPG   C3A61327  26.370  24.100   8.720
 3289DOPG   C4A61328  26.540  23.870   9.120
 3289DOPG   C1B61329  25.380  23.300   8.440
 3289DOPG   D2B61330  25.790  23.290   8.170
 3289DOPG   C3B61331  25.840  23.220   7.760
 3289DOPG   C4B61332  25.860  23.170   7.330
 3290DOPG   GL061333  18.380  33.750   7.950
 3290DOPG   PO461334  18.360  33.480   8.370
 3290DOPG   GL161335  18.530  33.140   8.640
 3290DOPG   GL261336  18.620  33.230   8.950
 3290DOPG   C1A61337  18.420  32.730   8.650
 3290DOPG   D2A61338  18.280  32.390   8.500
 3290DOPG   C3A61339  18.380  32.240   8.020
 3290DOPG   C4A61340  18.340  32.130   7.530
 3290DOPG   C1B61341  18.660  32.880   9.080
 3290DOPG   D2B61342  18.520  32.510   9.080
 3290DOPG   C3B61343  18.840  32.170   9.240
 3290DOPG   C4B61344  19.240  32.040   9.500
 3291DOPG   GL061345  18.110  24.750  15.000
 3291DOPG   PO461346  18.190  24.400  15.340
 3291DOPG   GL161347  18.230  24.360  15.730
 3291DOPG   GL261348  18.370  24.110  15.890
 3291DOPG   C1A61349  17.910  24.360  16.000
 3291DOPG   D2A61350  17.470  24.470  16.190
 3291DOPG   C3A61351  17.050  24.380  16.270
 3291DOPG   C4A61352  16.810  24.300  16.620
 3291DOPG   C1B61353  18.380  24.470  16.190
 3291DOPG   D2B61354  18.340  24.620  16.670
 3291DOPG   C3B61355  18.070  24.920  16.780
 3291DOPG   C4B61356  17.720  24.820  16.880
 3292DOPG   GL061357  16.130  17.780  13.050
 3292DOPG   PO461358  16.330  17.670  12.770
 3292DOPG   GL161359  16.460  17.220  12.860
 3292DOPG   GL261360  16.410  17.000  13.060
 3292DOPG   C1A61361  16.730  16.850  12.700
 3292DOPG   D2A61362  17.020  16.540  12.490
 3292DOPG   C3A61363  16.690  16.220  12.440
 3292DOPG   C4A61364  16.630  15.830  12.610
 3292DOPG   C1B61365  16.180  16.690  13.330
 3292DOPG   D2B61366  15.710  16.740  13.470
 3292DOPG   C3B61367  15.700  16.370  13.800
 3292DOPG   C4B61368  15.740  15.930  13.730
 3293DOPG   GL061369   6.780  21.710   6.610
 3293DOPG   PO461370   6.860  21.250   6.700
 3293DOPG   GL161371   7.290  21.210   6.810
 3293DOPG   GL261372   7.400  21.510   6.840
 3293DOPG   C1A61373   7.760  21.040   6.760
 3293DOPG   D2A61374   8.230  20.970   6.940
 3293DOPG   C3A61375   8.630  21.130   7.100
 3293DOPG   C4A61376   8.930  21.520   7.330
 3293DOPG   C1B61377   7.180  21.680   7.170
 3293DOPG   D2B61378   7.220  21.810   7.580
 3293DOPG   C3B61379   7.580  21.870   7.740
 3293DOPG   C4B61380   8.040  21.730   7.690
 3294DOPG   GL061381   5.600  21.500   9.350
 3294DOPG   PO461382   5.730  21.050   9.270
 3294DOPG   GL161383   6.030  21.390   9.180
 3294DOPG   GL261384   6.010  21.550   8.900
 3294DOPG   C1A61385   6.440  21.570   9.260
 3294DOPG   D2A61386   6.740  21.460   9.560
 3294DOPG   C3A61387   7.080  21.250   9.370
 3294DOPG   C4A61388   7.220  21.190   8.990
 3294DOPG   C1B61389   6.320  22.020   9.030
 3294DOPG   D2B61390   6.580  22.110   9.300
 3294DOPG   C3B61391   7.020  21.930   9.550
 3294DOPG   C4B61392   7.160  21.610   9.700
 3295DOPG   GL061393  19.320  18.840  11.450
 3295DOPG   PO461394  19.300  18.710  11.910
 3295DOPG   GL161395  19.240  18.310  11.680
 3295DOPG   GL261396  19.380  18.310  11.460
 3295DOPG   C1A61397  19.050  17.800  11.480
 3295DOPG   D2A61398  19.410  17.580  11.400
 3295DOPG   C3A61399  19.060  17.220  11.100
 3295DOPG   C4A61400  19.130  17.220  10.670
 3295DOPG   C1B61401  19.260  18.160  11.210
 3295DOPG   D2B61402  19.030  17.840  11.010
 3295DOPG   C3B61403  19.110  17.720  10.630
 3295DOPG   C4B61404  18.900  18.050  10.360
 3296DOPG   GL061405  19.310  18.420  14.440
 3296DOPG   PO461406  19.050  18.270  14.080
 3296DOPG   GL161407  19.160  17.990  13.940
 3296DOPG   GL261408  19.450  17.910  14.160
 3296DOPG   C1A61409  19.250  17.490  13.900
 3296DOPG   D2A61410  19.540  17.160  13.980
 3296DOPG   C3A61411  19.710  16.800  14.160
 3296DOPG   C4A61412  19.930  16.360  13.940
 3296DOPG   C1B61413  19.800  17.690  14.130
 3296DOPG   D2B61414  20.260  17.510  14.180
 3296DOPG   C3B61415  20.580  17.670  14.340
 3296DOPG   C4B61416  20.760  17.960  14.470
 3297DOPG   GL061417  13.580  19.690  13.160
 3297DOPG   PO461418  13.260  19.460  13.180
 3297DOPG   GL161419  13.150  19.560  13.570
 3297DOPG   GL261420  12.870  19.770  13.570
 3297DOPG   C1A61421  12.800  19.360  13.810
 3297DOPG   D2A61422  12.580  19.120  14.000
 3297DOPG   C3A61423  12.110  19.140  14.070
 3297DOPG   C4A61424  11.670  18.960  13.930
 3297DOPG   C1B61425  12.770  20.250  13.680
 3297DOPG   D2B61426  12.720  20.490  14.020
 3297DOPG   C3B61427  12.770  20.220  14.320
 3297DOPG   C4B61428  12.610  19.870  14.510
 3298DOPG   GL061429   6.570  25.870  16.260
 3298DOPG   PO461430   6.630  26.190  16.690
 3298DOPG   GL161431   7.050  26.070  16.520
 3298DOPG   GL261432   7.200  26.030  16.740
 3298DOPG   C1A61433   7.050  25.840  16.130
 3298DOPG   D2A61434   7.200  25.820  15.700
 3298DOPG   C3A61435   7.230  25.560  15.300
 3298DOPG   C4A61436   7.570  25.270  14.990
 3298DOPG   C1B61437   7.410  25.600  17.040
 3298DOPG   D2B61438   7.730  25.320  17.110
 3298DOPG   C3B61439   8.080  25.190  16.840
 3298DOPG   C4B61440   8.400  25.020  16.760
 3299DOPG   GL061441   9.780  20.850  14.100
 3299DOPG   PO461442   9.500  20.950  13.800
 3299DOPG   GL161443   9.320  20.610  13.630
 3299DOPG   GL261444   8.990  20.550  13.510
 3299DOPG   C1A61445   9.350  20.210  13.360
 3299DOPG   D2A61446   9.510  19.890  13.070
 3299DOPG   C3A61447   9.670  19.380  13.200
 3299DOPG   C4A61448   9.760  19.310  13.680
 3299DOPG   C1B61449   8.550  20.390  13.610
 3299DOPG   D2B61450   8.220  20.140  13.680
 3299DOPG   C3B61451   7.800  20.070  13.460
 3299DOPG   C4B61452   7.460  19.950  13.620
 3300DOPG   GL061453  13.810  17.060  11.650
 3300DOPG   PO461454  13.870  16.910  12.080
 3300DOPG   GL161455  14.080  16.630  11.870
 3300DOPG   GL261456  14.240  16.570  12.150
 3300DOPG   C1A61457  14.160  16.210  11.660
 3300DOPG   D2A61458  14.060  15.900  11.310
 3300DOPG   C3A61459  13.640  15.820  11.290
 3300DOPG   C4A61460  13.360  15.940  11.560
 3300DOPG   C1B61461  14.240  16.150  12.320
 3300DOPG   D2B61462  14.210  15.790  12.600
 3300DOPG   C3B61463  14.540  15.820  12.940
 3300DOPG   C4B61464  14.430  15.960  13.330
 3301DOPG   GL061465  17.240  21.350  10.140
 3301DOPG   PO461466  16.950  21.110  10.070
 3301DOPG   GL161467  16.750  21.250   9.690
 3301DOPG   GL261468  16.920  21.070   9.380
 3301DOPG   C1A61469  16.320  21.280   9.490
 3301DOPG   D2A61470  15.900  21.370   9.350
 3301DOPG   C3A61471  15.540  21.050   9.310
 3301DOPG   C4A61472  15.180  21.080   9.090
 3301DOPG   C1B61473  17.380  20.930   9.190
 3301DOPG   D2B61474  17.810  20.680   9.050
 3301DOPG   C3B61475  17.790  20.310   8.680
 3301DOPG   C4B61476  17.880  20.000   8.370
 3302DOPG   GL061477  10.530  26.100  21.240
 3302DOPG   PO461478  10.890  25.910  21.130
 3302DOPG   GL161479  11.130  25.780  20.890
 3302DOPG   GL261480  10.950  25.780  20.580
 3302DOPG   C1A61481  11.260  25.340  20.830
 3302DOPG   D2A61482  11.510  25.020  20.640
 3302DOPG   C3A61483  12.020  25.080  20.530
 3302DOPG   C4A61484  12.370  25.160  20.380
 3302DOPG   C1B61485  11.250  25.490  20.370
 3302DOPG   D2B61486  11.700  25.210  20.180
 3302DOPG   C3B61487  12.110  25.330  19.950
 3302DOPG   C4B61488  12.460  25.210  19.710
 3303DOPG   GL061489  21.700  20.800   6.930
 3303DOPG   PO461490  21.520  20.920   7.330
 3303DOPG   GL161491  21.260  21.170   7.470
 3303DOPG   GL261492  21.520  21.400   7.350
 3303DOPG   C1A61493  20.780  21.280   7.670
 3303DOPG   D2A61494  20.720  21.490   8.020
 3303DOPG   C3A61495  20.710  21.270   8.410
 3303DOPG   C4A61496  20.470  21.420   8.650
 3303DOPG   C1B61497  21.390  21.660   7.670
 3303DOPG   D2B61498  21.010  21.800   7.790
 3303DOPG   C3B61499  20.900  22.080   7.910
 3303DOPG   C4B61500  20.720  22.260   8.250
 3304DOPG   GL061501  10.900  24.780  21.760
 3304DOPG   PO461502  11.300  24.850  21.970
 3304DOPG   GL161503  11.630  24.720  21.800
 3304DOPG   GL261504  11.660  24.420  21.840
 3304DOPG   C1A61505  11.950  24.830  21.480
 3304DOPG   D2A61506  12.180  25.160  21.420
 3304DOPG   C3A61507  12.410  25.260  21.080
 3304DOPG   C4A61508  12.240  25.560  20.820
 3304DOPG   C1B61509  11.760  24.310  21.430
 3304DOPG   D2B61510  12.030  24.340  21.010
 3304DOPG   C3B61511  12.380  24.310  20.880
 3304DOPG   C4B61512  12.800  24.470  20.910
 3305DOPG   GL061513   7.360  21.990   5.400
 3305DOPG   PO461514   7.310  21.730   5.760
 3305DOPG   GL161515   7.750  21.680   5.780
 3305DOPG   GL261516   8.020  21.720   5.570
 3305DOPG   C1A61517   8.090  21.490   6.100
 3305DOPG   D2A61518   8.190  21.370   6.540
 3305DOPG   C3A61519   8.390  21.500   6.820
 3305DOPG   C4A61520   8.520  21.750   7.150
 3305DOPG   C1B61521   8.450  21.770   5.660
 3305DOPG   D2B61522   8.820  21.550   5.840
 3305DOPG   C3B61523   9.230  21.530   5.970
 3305DOPG   C4B61524   9.490  21.840   6.200
 3306DOPG   GL061525  20.810  24.800  13.590
 3306DOPG   PO461526  21.240  24.890  13.850
 3306DOPG   GL161527  21.430  25.290  13.900
 3306DOPG   GL261528  21.440  25.450  14.180
 3306DOPG   C1A61529  21.700  25.540  13.660
 3306DOPG   D2A61530  22.120  25.600  13.580
 3306DOPG   C3A61531  22.480  25.550  13.220
 3306DOPG   C4A61532  22.610  25.390  12.820
 3306DOPG   C1B61533  21.610  25.790  14.210
 3306DOPG   D2B61534  21.750  26.150  14.250
 3306DOPG   C3B61535  22.040  26.330  14.090
 3306DOPG   C4B61536  22.390  26.380  13.780
 3307DOPG   GL061537  18.440  23.030  10.340
 3307DOPG   PO461538  18.870  23.140  10.420
 3307DOPG   GL161539  18.970  23.380  10.020
 3307DOPG   GL261540  18.920  23.330   9.720
 3307DOPG   C1A61541  19.220  23.760   9.870
 3307DOPG   D2A61542  19.370  23.990  10.160
 3307DOPG   C3A61543  19.590  24.390  10.010
 3307DOPG   C4A61544  20.000  24.560  10.090
 3307DOPG   C1B61545  19.010  23.570   9.390
 3307DOPG   D2B61546  19.210  23.580   9.010
 3307DOPG   C3B61547  19.380  23.270   8.630
 3307DOPG   C4B61548  19.510  22.980   8.240
 3308DOPG   GL061549  12.430  31.300  16.540
 3308DOPG   PO461550  12.040  31.160  16.470
 3308DOPG   GL161551  11.970  30.690  16.450
 3308DOPG   GL261552  11.670  30.760  16.190
 3308DOPG   C1A61553  11.970  30.310  16.360
 3308DOPG   D2A61554  11.810  30.010  16.550
 3308DOPG   C3A61555  11.880  29.660  16.260
 3308DOPG   C4A61556  12.010  29.360  15.930
 3308DOPG   C1B61557  12.030  30.680  15.920
 3308DOPG   D2B61558  12.230  30.460  15.630
 3308DOPG   C3B61559  12.450  30.060  15.640
 3308DOPG   C4B61560  12.820  30.040  15.910
 3309DOPG   GL061561  15.540  33.590  13.200
 3309DOPG   PO461562  15.290  33.460  13.560
 3309DOPG   GL161563  15.290  33.080  13.650
 3309DOPG   GL261564  15.040  32.970  13.830
 3309DOPG   C1A61565  15.520  32.760  13.460
 3309DOPG   D2A61566  15.760  32.690  13.010
 3309DOPG   C3A61567  16.150  32.440  13.030
 3309DOPG   C4A61568  16.490  32.150  12.980
 3309DOPG   C1B61569  15.240  32.650  14.060
 3309DOPG   D2B61570  15.500  32.160  13.930
 3309DOPG   C3B61571  15.470  31.710  13.910
 3309DOPG   C4B61572  15.280  31.490  13.550
 3310DOPG   GL061573  12.490   8.630  13.600
 3310DOPG   PO461574  12.120   8.490  13.340
 3310DOPG   GL161575  12.180   8.890  13.300
 3310DOPG   GL261576  12.110   9.140  13.090
 3310DOPG   C1A61577  12.480   9.310  13.380
 3310DOPG   D2A61578  12.480   9.670  13.500
 3310DOPG   C3A61579  12.170   9.770  13.760
 3310DOPG   C4A61580  11.910   9.860  14.090
 3310DOPG   C1B61581  12.240   9.410  12.950
 3310DOPG   D2B61582  12.390   9.810  12.850
 3310DOPG   C3B61583  12.750   9.900  12.940
 3310DOPG   C4B61584  13.090  10.040  12.930
 3311DOPG   GL061585   8.620  16.690   7.080
 3311DOPG   PO461586   9.060  16.710   7.120
 3311DOPG   GL161587   9.400  16.790   7.350
 3311DOPG   GL261588   9.650  16.620   7.590
 3311DOPG   C1A61589   9.710  16.950   7.260
 3311DOPG   D2A61590  10.130  16.980   7.350
 3311DOPG   C3A61591  10.280  17.270   7.710
 3311DOPG   C4A61592  10.130  17.130   8.130
 3311DOPG   C1B61593   9.830  17.030   7.750
 3311DOPG   D2B61594   9.780  17.480   7.850
 3311DOPG   C3B61595  10.100  17.680   8.020
 3311DOPG   C4B61596  10.400  17.860   8.320
 3312DOPG   GL061597  15.420  12.010  13.680
 3312DOPG   PO461598  15.030  11.760  13.490
 3312DOPG   GL161599  15.070  11.360  13.280
 3312DOPG   GL261600  14.860  11.210  12.990
 3312DOPG   C1A61601  15.280  10.960  13.250
 3312DOPG   D2A61602  15.240  10.480  13.280
 3312DOPG   C3A61603  15.020  10.200  12.910
 3312DOPG   C4A61604  14.870  10.090  12.490
 3312DOPG   C1B61605  15.050  10.800  12.840
 3312DOPG   D2B61606  14.760  10.700  12.620
 3312DOPG   C3B61607  14.440  10.350  12.450
 3312DOPG   C4B61608  14.150   9.920  12.480
 3313DOPG   GL061609   7.920  13.570  15.760
 3313DOPG   PO461610   8.100  13.210  16.000
 3313DOPG   GL161611   8.530  13.230  16.130
 3313DOPG   GL261612   8.430  13.190  16.440
 3313DOPG   C1A61613   8.910  13.020  16.240
 3313DOPG   D2A61614   9.320  13.240  16.370
 3313DOPG   C3A61615   9.680  12.960  16.350
 3313DOPG   C4A61616  10.130  12.980  16.210
 3313DOPG   C1B61617   8.810  13.370  16.540
 3313DOPG   D2B61618   9.150  13.420  16.840
 3313DOPG   C3B61619   9.380  13.730  16.620
 3313DOPG   C4B61620   9.750  13.500  16.440
 3314DOPG   GL061621  20.170  10.020   7.950
 3314DOPG   PO461622  20.110   9.920   7.530
 3314DOPG   GL161623  19.870  10.190   7.570
 3314DOPG   GL261624  19.460  10.100   7.570
 3314DOPG   C1A61625  19.960  10.480   7.820
 3314DOPG   D2A61626  20.050  10.890   7.850
 3314DOPG   C3A61627  19.680  11.000   7.800
 3314DOPG   C4A61628  19.350  11.430   7.980
 3314DOPG   C1B61629  19.450  10.480   7.750
 3314DOPG   D2B61630  19.190  10.730   7.590
 3314DOPG   C3B61631  19.070  11.180   7.730
 3314DOPG   C4B61632  19.060  11.620   7.580
 3315DOPG   GL061633   9.230  24.250  20.320
 3315DOPG   PO461634   9.450  24.430  20.720
 3315DOPG   GL161635   9.740  24.200  20.410
 3315DOPG   GL261636   9.710  24.320  19.990
 3315DOPG   C1A61637  10.070  23.910  20.380
 3315DOPG   D2A61638  10.050  23.600  20.000
 3315DOPG   C3A61639  10.000  23.330  19.620
 3315DOPG   C4A61640  10.200  23.310  19.260
 3315DOPG   C1B61641   9.970  24.630  19.820
 3315DOPG   D2B61642  10.090  24.910  19.580
 3315DOPG   C3B61643  10.330  24.860  19.330
 3315DOPG   C4B61644  10.660  25.020  19.060
 3316DOPG   GL061645   6.740  27.640  14.970
 3316DOPG   PO461646   6.870  27.210  14.870
 3316DOPG   GL161647   7.330  27.050  14.720
 3316DOPG   GL261648   7.680  27.120  14.910
 3316DOPG   C1A61649   7.800  26.900  14.490
 3316DOPG   D2A61650   7.830  26.840  14.120
 3316DOPG   C3A61651   7.850  27.180  13.960
 3316DOPG   C4A61652   7.820  27.480  14.300
 3316DOPG   C1B61653   8.070  27.030  14.920
 3316DOPG   D2B61654   8.430  26.900  15.140
 3316DOPG   C3B61655   8.350  26.400  15.140
 3316DOPG   C4B61656   8.480  26.130  14.710
 3317DOPG   GL061657  16.950  25.120   1.710
 3317DOPG   PO461658  16.770  24.970   1.430
 3317DOPG   GL161659  16.610  24.690   1.750
 3317DOPG   GL261660  16.540  24.800   2.040
 3317DOPG   C1A61661  16.650  24.290   2.030
 3317DOPG   D2A61662  16.740  23.890   2.280
 3317DOPG   C3A61663  16.440  23.540   2.290
 3317DOPG   C4A61664  16.070  23.360   2.420
 3317DOPG   C1B61665  16.660  24.700   2.460
 3317DOPG   D2B61666  16.910  24.890   2.790
 3317DOPG   C3B61667  16.990  24.530   3.030
 3317DOPG   C4B61668  17.110  24.130   3.310
 3318DOPG   GL061669  16.690  30.620  21.600
 3318DOPG   PO461670  17.020  30.530  21.350
 3318DOPG   GL161671  17.150  30.420  21.010
 3318DOPG   GL261672  16.990  30.600  20.800
 3318DOPG   C1A61673  17.210  30.090  20.670
 3318DOPG   D2A61674  17.040  29.910  20.290
 3318DOPG   C3A61675  16.750  30.180  20.070
 3318DOPG   C4A61676  16.680  30.160  19.670
 3318DOPG   C1B61677  17.040  30.460  20.380
 3318DOPG   D2B61678  17.220  30.230  19.970
 3318DOPG   C3B61679  17.080  29.870  19.820
 3318DOPG   C4B61680  16.960  29.680  19.400
 3319DOPG   GL061681  20.400  20.290  14.200
 3319DOPG   PO461682  20.720  20.180  14.430
 3319DOPG   GL161683  21.130  20.260  14.510
 3319DOPG   GL261684  21.230  20.490  14.510
 3319DOPG   C1A61685  21.620  20.070  14.520
 3319DOPG   D2A61686  21.920  20.240  14.690
 3319DOPG   C3A61687  22.280  20.230  14.390
 3319DOPG   C4A61688  22.370  20.170  14.040
 3319DOPG   C1B61689  21.540  20.590  14.830
 3319DOPG   D2B61690  21.810  20.440  15.150
 3319DOPG   C3B61691  22.190  20.270  15.130
 3319DOPG   C4B61692  22.490  20.060  14.860
 3320DOPG   GL061693   9.730  14.580   6.980
 3320DOPG   PO461694  10.190  14.770   6.860
 3320DOPG   GL161695  10.520  14.880   7.110
 3320DOPG   GL261696  10.610  14.890   7.510
 3320DOPG   C1A61697  10.950  15.100   7.080
 3320DOPG   D2A61698  11.370  15.190   6.890
 3320DOPG   C3A61699  11.740  15.040   7.060
 3320DOPG   C4A61700  12.230  15.060   7.050
 3320DOPG   C1B61701  10.990  15.120   7.560
 3320DOPG   D2B61702  11.370  15.140   7.460
 3320DOPG   C3B61703  11.650  15.500   7.590
 3320DOPG   C4B61704  11.990  15.630   7.810
 3321DOPG   GL061705  12.460  20.500   1.540
 3321DOPG   PO461706  12.350  20.880   1.590
 3321DOPG   GL161707  12.200  20.950   2.060
 3321DOPG   GL261708  11.930  20.790   2.170
 3321DOPG   C1A61709  12.250  20.970   2.510
 3321DOPG   D2A61710  12.290  21.330   2.880
 3321DOPG   C3A61711  12.610  21.700   3.000
 3321DOPG   C4A61712  12.790  21.620   3.420
 3321DOPG   C1B61713  11.790  20.840   2.540
 3321DOPG   D2B61714  11.430  20.830   2.840
 3321DOPG   C3B61715  11.520  20.580   3.230
 3321DOPG   C4B61716  11.600  20.000   3.330
 3322DOPG   GL061717  12.040  17.990  12.620
 3322DOPG   PO461718  12.310  17.750  12.980
 3322DOPG   GL161719  12.230  17.710  13.390
 3322DOPG   GL261720  12.380  17.470  13.540
 3322DOPG   C1A61721  11.890  17.750  13.720
 3322DOPG   D2A61722  11.580  17.890  14.060
 3322DOPG   C3A61723  11.370  17.960  14.400
 3322DOPG   C4A61724  11.080  17.760  14.580
 3322DOPG   C1B61725  12.080  17.300  13.780
 3322DOPG   D2B61726  11.690  16.930  13.740
 3322DOPG   C3B61727  11.410  16.950  14.100
 3322DOPG   C4B61728  11.100  16.850  14.370
 3323DOPG   GL061729  15.260   8.500   8.170
 3323DOPG   PO461730  15.720   8.630   8.370
 3323DOPG   GL161731  16.200   8.730   8.400
 3323DOPG   GL261732  16.410   8.820   8.690
 3323DOPG   C1A61733  16.490   9.110   8.320
 3323DOPG   D2A61734  16.660   9.550   8.350
 3323DOPG   C3A61735  17.090   9.550   8.600
 3323DOPG   C4A61736  17.420   9.630   8.510
 3323DOPG   C1B61737  16.730   9.130   8.810
 3323DOPG   D2B61738  17.000   9.470   9.060
 3323DOPG   C3B61739  16.840   9.730   9.310
 3323DOPG   C4B61740  16.450   9.990   9.420
 3324DOPG   GL061741  15.480  12.960  15.760
 3324DOPG   PO461742  15.320  12.580  16.030
 3324DOPG   GL161743  15.190  12.300  16.410
 3324DOPG   GL261744  15.060  11.930  16.200
 3324DOPG   C1A61745  15.370  12.010  16.690
 3324DOPG   D2A61746  15.740  11.850  17.010
 3324DOPG   C3A61747  15.830  11.620  17.360
 3324DOPG   C4A61748  15.470  11.490  17.510
 3324DOPG   C1B61749  15.330  11.630  16.150
 3324DOPG   D2B61750  15.600  11.210  16.200
 3324DOPG   C3B61751  15.550  10.840  16.260
 3324DOPG   C4B61752  15.760  10.660  16.690
 3325DOPG   GL061753  24.090  13.170   5.950
 3325DOPG   PO461754  23.950  13.310   6.280
 3325DOPG   GL161755  23.610  13.480   6.260
 3325DOPG   GL261756  23.570  13.570   6.570
 3325DOPG   C1A61757  23.180  13.520   6.200
 3325DOPG   D2A61758  22.790  13.510   6.410
 3325DOPG   C3A61759  22.490  13.680   6.230
 3325DOPG   C4A61760  22.180  13.720   6.130
 3325DOPG   C1B61761  23.140  13.770   6.670
 3325DOPG   D2B61762  23.060  14.240   6.940
 3325DOPG   C3B61763  22.740  14.580   6.810
 3325DOPG   C4B61764  22.320  14.840   6.770
 3326DOPG   GL061765  10.450  21.170   3.100
 3326DOPG   PO461766  10.320  21.420   3.420
 3326DOPG   GL161767  10.570  21.270   3.750
 3326DOPG   GL261768  10.920  21.200   3.650
 3326DOPG   C1A61769  10.780  21.240   4.110
 3326DOPG   D2A61770  10.480  21.200   4.430
 3326DOPG   C3A61771  10.440  21.390   4.750
 3326DOPG   C4A61772  10.170  21.410   5.080
 3326DOPG   C1B61773  11.240  21.130   3.920
 3326DOPG   D2B61774  11.560  21.330   3.980
 3326DOPG   C3B61775  11.720  21.600   4.310
 3326DOPG   C4B61776  12.000  21.920   4.330
 3327DOPG   GL061777   6.840  15.040  15.880
 3327DOPG   PO461778   7.190  15.070  15.830
 3327DOPG   GL161779   7.380  15.430  15.980
 3327DOPG   GL261780   7.440  15.480  16.380
 3327DOPG   C1A61781   7.650  15.870  15.900
 3327DOPG   D2A61782   8.010  16.140  15.810
 3327DOPG   C3A61783   8.300  16.150  16.060
 3327DOPG   C4A61784   8.720  15.950  16.120
 3327DOPG   C1B61785   7.810  15.510  16.290
 3327DOPG   D2B61786   8.100  15.670  16.050
 3327DOPG   C3B61787   8.060  15.560  15.640
 3327DOPG   C4B61788   7.810  15.750  15.360
 3328DOPG   GL061789  11.850  21.620   9.680
 3328DOPG   PO461790  11.490  21.370   9.660
 3328DOPG   GL161791  11.660  21.120  10.040
 3328DOPG   GL261792  11.650  21.240  10.360
 3328DOPG   C1A61793  12.110  21.120  10.310
 3328DOPG   D2A61794  12.260  20.850  10.530
 3328DOPG   C3A61795  12.670  21.090  10.460
 3328DOPG   C4A61796  12.920  21.410  10.460
 3328DOPG   C1B61797  11.790  20.730  10.480
 3328DOPG   D2B61798  11.700  20.430  10.130
 3328DOPG   C3B61799  11.620  20.080  10.350
 3328DOPG   C4B61800  11.640  20.150  10.750
 3329DOPG   GL061801   7.070  24.610  17.800
 3329DOPG   PO461802   6.640  24.420  17.670
 3329DOPG   GL161803   6.690  24.040  17.470
 3329DOPG   GL261804   6.610  23.930  17.170
 3329DOPG   C1A61805   7.000  23.800  17.470
 3329DOPG   D2A61806   7.070  23.330  17.530
 3329DOPG   C3A61807   7.440  23.110  17.420
 3329DOPG   C4A61808   7.920  23.080  17.500
 3329DOPG   C1B61809   6.870  23.840  16.940
 3329DOPG   D2B61810   7.260  24.000  16.680
 3329DOPG   C3B61811   7.650  23.860  16.800
 3329DOPG   C4B61812   7.960  23.610  16.720
 3330DOPG   GL061813  15.540  23.510  13.210
 3330DOPG   PO461814  15.840  23.450  13.630
 3330DOPG   GL161815  15.430  23.370  13.760
 3330DOPG   GL261816  15.360  23.020  13.850
 3330DOPG   C1A61817  15.290  23.600  14.080
 3330DOPG   D2A61818  15.140  23.820  14.290
 3330DOPG   C3A61819  14.910  23.540  14.420
 3330DOPG   C4A61820  14.920  23.240  14.820
 3330DOPG   C1B61821  15.000  23.100  14.050
 3330DOPG   D2B61822  14.610  23.130  14.400
 3330DOPG   C3B61823  14.440  23.490  14.520
 3330DOPG   C4B61824  14.600  23.740  14.810
 3331DOPG   GL061825  11.970  18.170  13.040
 3331DOPG   PO461826  11.790  18.460  13.070
 3331DOPG   GL161827  11.520  18.280  13.180
 3331DOPG   GL261828  11.290  18.290  13.450
 3331DOPG   C1A61829  11.530  17.880  13.330
 3331DOPG   D2A61830  11.260  17.800  13.700
 3331DOPG   C3A61831  10.880  17.640  13.630
 3331DOPG   C4A61832  10.530  17.450  13.690
 3331DOPG   C1B61833  11.640  18.360  13.630
 3331DOPG   D2B61834  11.980  18.170  13.580
 3331DOPG   C3B61835  12.090  18.140  14.000
 3331DOPG   C4B61836  11.850  18.130  14.470
 3332DOPG   GL061837   9.900  17.940   3.320
 3332DOPG   PO461838  10.090  17.730   3.490
 3332DOPG   GL161839  10.470  17.900   3.680
 3332DOPG   GL261840  10.450  17.890   3.890
 3332DOPG   C1A61841  10.860  18.140   3.620
 3332DOPG   D2A61842  11.070  18.210   3.230
 3332DOPG   C3A61843  11.510  18.200   3.100
 3332DOPG   C4A61844  11.750  18.450   2.780
 3332DOPG   C1B61845  10.750  17.800   4.130
 3332DOPG   D2B61846  11.210  17.830   4.080
 3332DOPG   C3B61847  11.620  17.910   4.180
 3332DOPG   C4B61848  11.790  18.060   4.530
 3333DOPG   GL061849  16.140  26.490   8.200
 3333DOPG   PO461850  16.430  26.230   8.410
 3333DOPG   GL161851  16.520  26.160   8.840
 3333DOPG   GL261852  16.630  25.860   8.800
 3333DOPG   C1A61853  16.360  26.040   9.230
 3333DOPG   D2A61854  16.170  26.030   9.620
 3333DOPG   C3A61855  16.230  25.700   9.900
 3333DOPG   C4A61856  16.490  25.470  10.170
 3333DOPG   C1B61857  16.420  25.500   8.930
 3333DOPG   D2B61858  16.570  25.330   9.230
 3333DOPG   C3B61859  16.560  25.500   9.590
 3333DOPG   C4B61860  16.720  25.830   9.920
 3334DOPG   GL061861  17.620  23.930  11.130
 3334DOPG   PO461862  17.230  23.790  11.150
 3334DOPG   GL161863  17.320  24.220  10.850
 3334DOPG   GL261864  17.420  24.160  10.510
 3334DOPG   C1A61865  17.170  24.670  10.560
 3334DOPG   D2A61866  16.950  24.650  10.120
 3334DOPG   C3A61867  16.620  24.350  10.000
 3334DOPG   C4A61868  16.430  24.090  10.380
 3334DOPG   C1B61869  17.480  24.420  10.170
 3334DOPG   D2B61870  17.550  24.720   9.830
 3334DOPG   C3B61871  17.570  25.130   9.650
 3334DOPG   C4B61872  17.730  25.160   9.210
 3335DOPG   GL061873  16.220  14.360  10.510
 3335DOPG   PO461874  15.980  14.650  10.300
 3335DOPG   GL161875  15.970  14.940  10.630
 3335DOPG   GL261876  15.820  15.060  11.020
 3335DOPG   C1A61877  16.280  15.180  10.770
 3335DOPG   D2A61878  16.370  15.540  10.890
 3335DOPG   C3A61879  16.140  15.790  10.790
 3335DOPG   C4A61880  15.870  15.970  10.580
 3335DOPG   C1B61881  15.540  15.290  11.340
 3335DOPG   D2B61882  15.390  15.760  11.340
 3335DOPG   C3B61883  15.540  16.120  11.370
 3335DOPG   C4B61884  15.830  16.340  11.460
 3336DOPG   GL061885  13.910  23.110  18.640
 3336DOPG   PO461886  13.740  23.160  19.080
 3336DOPG   GL161887  13.520  23.230  19.490
 3336DOPG   GL261888  13.440  23.510  19.660
 3336DOPG   C1A61889  13.400  23.020  19.780
 3336DOPG   D2A61890  13.460  23.000  20.210
 3336DOPG   C3A61891  13.320  23.240  20.600
 3336DOPG   C4A61892  13.360  23.520  20.940
 3336DOPG   C1B61893  13.410  23.910  19.980
 3336DOPG   D2B61894  13.280  24.200  20.210
 3336DOPG   C3B61895  13.230  24.640  20.350
 3336DOPG   C4B61896  13.000  24.880  20.740
 3337DOPG   GL061897  13.350   8.290  12.440
 3337DOPG   PO461898  13.340   8.070  12.760
 3337DOPG   GL161899  13.590   8.370  12.890
 3337DOPG   GL261900  13.530   8.640  12.830
 3337DOPG   C1A61901  13.920   8.650  13.060
 3337DOPG   D2A61902  14.170   9.040  13.110
 3337DOPG   C3A61903  14.370   9.440  13.200
 3337DOPG   C4A61904  14.550   9.820  13.290
 3337DOPG   C1B61905  13.790   8.970  12.480
 3337DOPG   D2B61906  14.180   8.900  12.260
 3337DOPG   C3B61907  14.370   9.220  12.040
 3337DOPG   C4B61908  14.170   9.660  11.910
 3338DOPG   GL061909  11.740  23.950  12.230
 3338DOPG   PO461910  11.880  24.090  11.820
 3338DOPG   GL161911  11.710  23.590  11.850
 3338DOPG   GL261912  11.900  23.520  11.690
 3338DOPG   C1A61913  11.940  23.120  11.930
 3338DOPG   D2A61914  11.820  22.830  12.180
 3338DOPG   C3A61915  12.070  22.510  12.370
 3338DOPG   C4A61916  12.330  22.260  12.530
 3338DOPG   C1B61917  12.250  23.610  11.990
 3338DOPG   D2B61918  12.310  24.010  12.180
 3338DOPG   C3B61919  12.120  24.140  12.540
 3338DOPG   C4B61920  12.300  24.380  12.810
 3339DOPG   GL061921  16.570  20.380  10.500
 3339DOPG   PO461922  16.290  20.550  10.250
 3339DOPG   GL161923  16.230  20.400   9.910
 3339DOPG   GL261924  16.010  20.220   9.970
 3339DOPG   C1A61925  16.120  20.410   9.490
 3339DOPG   D2A61926  16.050  20.390   9.000
 3339DOPG   C3A61927  16.330  20.510   8.760
 3339DOPG   C4A61928  16.810  20.470   8.640
 3339DOPG   C1B61929  15.650  20.340   9.730
 3339DOPG   D2B61930  15.270  20.310   9.910
 3339DOPG   C3B61931  15.100  20.130  10.280
 3339DOPG   C4B61932  15.040  20.220  10.680
 3340DOPG   GL061933  16.510   9.860  19.590
 3340DOPG   PO461934  16.910   9.740  19.370
 3340DOPG   GL161935  16.760  10.100  19.200
 3340DOPG   GL261936  16.510   9.960  19.030
 3340DOPG   C1A61937  16.860  10.330  18.930
 3340DOPG   D2A61938  16.700  10.620  18.550
 3340DOPG   C3A61939  16.880  11.050  18.440
 3340DOPG   C4A61940  16.920  11.350  18.650
 3340DOPG   C1B61941  16.520  10.170  18.620
 3340DOPG   D2B61942  16.510  10.280  18.200
 3340DOPG   C3B61943  16.530  10.680  18.080
 3340DOPG   C4B61944  16.500  11.100  18.100
 3341DOPG   GL061945  18.150  20.310  10.330
 3341DOPG   PO461946  17.720  20.420  10.280
 3341DOPG   GL161947  17.840  20.330   9.880
 3341DOPG   GL261948  18.060  20.370   9.710
 3341DOPG   C1A61949  17.760  20.000   9.550
 3341DOPG   D2A61950  17.700  20.080   9.080
 3341DOPG   C3A61951  17.320  19.930   8.930
 3341DOPG   C4A61952  16.950  19.920   8.680
 3341DOPG   C1B61953  18.090  20.350   9.280
 3341DOPG   D2B61954  18.230  20.500   8.750
 3341DOPG   C3B61955  18.370  20.330   8.260
 3341DOPG   C4B61956  18.570  20.530   7.940
 3342DOPG   GL061957  12.450  19.070  13.220
 3342DOPG   PO461958  12.590  19.060  12.860
 3342DOPG   GL161959  12.270  19.420  12.690
 3342DOPG   GL261960  12.320  19.640  12.700
 3342DOPG   C1A61961  11.970  19.360  12.410
 3342DOPG   D2A61962  11.760  19.310  11.990
 3342DOPG   C3A61963  11.450  19.390  11.610
 3342DOPG   C4A61964  10.980  19.660  11.520
 3342DOPG   C1B61965  12.220  19.980  13.050
 3342DOPG   D2B61966  11.990  20.220  13.220
 3342DOPG   C3B61967  11.840  20.490  13.510
 3342DOPG   C4B61968  11.950  20.780  13.860
 3343DOPG   GL061969  20.650  13.460  12.520
 3343DOPG   PO461970  20.580  13.180  12.870
 3343DOPG   GL161971  20.670  12.770  12.960
 3343DOPG   GL261972  20.870  12.750  13.040
 3343DOPG   C1A61973  20.760  12.310  12.860
 3343DOPG   D2A61974  20.830  11.800  13.030
 3343DOPG   C3A61975  21.160  11.490  12.890
 3343DOPG   C4A61976  21.290  11.180  12.720
 3343DOPG   C1B61977  21.220  12.580  12.960
 3343DOPG   D2B61978  21.350  12.280  12.680
 3343DOPG   C3B61979  21.060  12.050  12.340
 3343DOPG   C4B61980  20.770  11.790  12.000
 3344DOPG   GL061981  17.730  30.110   3.800
 3344DOPG   PO461982  17.840  29.710   3.680
 3344DOPG   GL161983  17.930  29.390   4.050
 3344DOPG   GL261984  18.200  29.160   4.050
 3344DOPG   C1A61985  17.820  29.340   4.540
 3344DOPG   D2A61986  17.870  29.560   4.960
 3344DOPG   C3A61987  17.550  29.690   5.210
 3344DOPG   C4A61988  17.170  29.950   5.170
 3344DOPG   C1B61989  18.490  28.850   4.200
 3344DOPG   D2B61990  18.640  28.600   4.500
 3344DOPG   C3B61991  18.450  28.210   4.660
 3344DOPG   C4B61992  18.280  27.850   4.890
 3345DOPG   GL061993   7.030  15.630  19.660
 3345DOPG   PO461994   6.850  15.950  19.420
 3345DOPG   GL161995   7.130  16.070  19.220
 3345DOPG   GL261996   7.230  16.400  19.290
 3345DOPG   C1A61997   7.420  16.050  18.780
 3345DOPG   D2A61998   7.830  15.930  18.600
 3345DOPG   C3A61999   8.250  16.110  18.590
 3345DOPG   C4A62000   8.570  16.430  18.610
 3345DOPG   C1B62001   7.550  16.220  19.340
 3345DOPG   D2B62002   7.910  16.130  19.010
 3345DOPG   C3B62003   8.240  16.390  19.020
 3345DOPG   C4B62004   8.560  16.620  19.190
 3346DOPG   GL062005  12.940  19.960  12.960
 3346DOPG   PO462006  13.280  20.050  13.290
 3346DOPG   GL162007  13.350  20.120  13.710
 3346DOPG   GL262008  13.640  20.140  13.940
 3346DOPG   C1A62009  13.260  20.420  14.120
 3346DOPG   D2A62010  13.250  20.950  14.010
 3346DOPG   C3A62011  12.990  21.040  13.720
 3346DOPG   C4A62012  12.640  21.160  13.520
 3346DOPG   C1B62013  13.390  19.950  14.200
 3346DOPG   D2B62014  13.080  19.890  14.560
 3346DOPG   C3B62015  12.920  19.440  14.360
 3346DOPG   C4B62016  12.830  19.160  14.530
 3347DOPG   GL062017  15.970  24.170  24.010
 3347DOPG   PO462018  16.230  24.580  24.030
 3347DOPG   GL162019  16.390  24.360  23.740
 3347DOPG   GL262020  16.450  24.050  23.640
 3347DOPG   C1A62021  16.230  24.390  23.300
 3347DOPG   D2A62022  16.450  24.280  22.950
 3347DOPG   C3A62023  16.240  24.240  22.580
 3347DOPG   C4A62024  16.000  24.030  22.150
 3347DOPG   C1B62025  16.730  24.110  23.330
 3347DOPG   D2B62026  16.970  24.080  22.990
 3347DOPG   C3B62027  16.760  24.010  22.530
 3347DOPG   C4B62028  16.800  23.720  22.150
 3348DOPG   GL062029  18.960  17.790  12.960
 3348DOPG   PO462030  18.640  17.730  13.310
 3348DOPG   GL162031  18.780  17.330  13.330
 3348DOPG   GL262032  19.030  17.400  13.430
 3348DOPG   C1A62033  18.790  16.880  13.320
 3348DOPG   D2A62034  19.080  16.530  13.060
 3348DOPG   C3A62035  19.410  16.630  12.790
 3348DOPG   C4A62036  19.720  16.800  12.610
 3348DOPG   C1B62037  19.220  17.040  13.170
 3348DOPG   D2B62038  19.430  16.710  13.320
 3348DOPG   C3B62039  19.840  16.910  13.530
 3348DOPG   C4B62040  20.090  17.170  13.840
 3349DOPG   GL062041  19.620  29.410   4.230
 3349DOPG   PO462042  20.000  29.380   4.090
 3349DOPG   GL162043  20.000  28.890   4.250
 3349DOPG   GL262044  20.080  28.640   4.110
 3349DOPG   C1A62045  19.870  28.670   4.590
 3349DOPG   D2A62046  19.720  28.200   4.700
 3349DOPG   C3A62047  19.880  27.870   4.750
 3349DOPG   C4A62048  19.680  27.510   4.750
 3349DOPG   C1B62049  20.420  28.500   4.370
 3349DOPG   D2B62050  20.820  28.430   4.650
 3349DOPG   C3B62051  20.880  28.290   5.080
 3349DOPG   C4B62052  21.210  27.970   5.210
 3350DOPG   GL062053  20.670  24.720  15.140
 3350DOPG   PO462054  20.960  24.640  14.880
 3350DOPG   GL162055  21.180  24.820  15.310
 3350DOPG   GL262056  21.320  24.500  15.590
 3350DOPG   C1A62057  21.180  25.090  15.740
 3350DOPG   D2A62058  21.300  25.500  15.850
 3350DOPG   C3A62059  21.730  25.590  15.800
 3350DOPG   C4A62060  21.960  25.760  15.700
 3350DOPG   C1B62061  21.200  24.590  15.960
 3350DOPG   D2B62062  21.210  24.720  16.350
 3350DOPG   C3B62063  20.950  25.040  16.470
 3350DOPG   C4B62064  20.690  24.880  16.440
 3351DOPG   GL062065  16.450  22.830  11.030
 3351DOPG   PO462066  16.710  23.180  10.820
 3351DOPG   GL162067  16.670  23.280  10.430
 3351DOPG   GL262068  16.360  23.340  10.360
 3351DOPG   C1A62069  16.580  23.070  10.000
 3351DOPG   D2A62070  16.460  22.930   9.550
 3351DOPG   C3A62071  16.310  22.550   9.340
 3351DOPG   C4A62072  16.060  22.280   9.420
 3351DOPG   C1B62073  16.010  23.590  10.110
 3351DOPG   D2B62074  15.770  23.840   9.980
 3351DOPG   C3B62075  15.440  24.090  10.210
 3351DOPG   C4B62076  15.140  24.420  10.070
 3352DOPG   GL062077  28.440  24.800  20.320
 3352DOPG   PO462078  28.140  24.670  19.950
 3352DOPG   GL162079  27.900  24.400  19.700
 3352DOPG   GL262080  27.970  24.120  19.440
 3352DOPG   C1A62081  27.420  24.420  19.690
 3352DOPG   D2A62082  27.070  24.430  19.560
 3352DOPG   C3A62083  26.710  24.640  19.620
 3352DOPG   C4A62084  26.580  25.050  19.500
 3352DOPG   C1B62085  27.740  24.480  19.240
 3352DOPG   D2B62086  27.470  24.820  19.230
 3352DOPG   C3B62087  27.590  25.110  18.840
 3352DOPG   C4B62088  27.380  25.410  18.650
 3353DOPG   GL062089  10.730  16.690  12.560
 3353DOPG   PO462090  10.690  16.380  12.190
 3353DOPG   GL162091  10.840  16.150  12.520
 3353DOPG   GL262092  10.780  15.820  12.500
 3353DOPG   C1A62093  11.110  15.850  12.850
 3353DOPG   D2A62094  11.510  15.810  12.980
 3353DOPG   C3A62095  11.750  15.850  12.570
 3353DOPG   C4A62096  12.040  15.710  12.350
 3353DOPG   C1B62097  11.210  15.810  12.420
 3353DOPG   D2B62098  11.540  16.010  12.060
 3353DOPG   C3B62099  11.750  15.660  11.830
 3353DOPG   C4B62100  11.520  15.440  11.540
 3354DOPG   GL062101  14.780  18.630  14.540
 3354DOPG   PO462102  14.760  18.960  14.300
 3354DOPG   GL162103  14.500  19.090  14.630
 3354DOPG   GL262104  14.690  19.310  14.910
 3354DOPG   C1A62105  14.250  18.940  14.940
 3354DOPG   D2A62106  14.230  18.940  15.360
 3354DOPG   C3A62107  14.060  18.700  15.690
 3354DOPG   C4A62108  13.910  18.580  16.120
 3354DOPG   C1B62109  14.490  19.320  15.260
 3354DOPG   D2B62110  14.180  19.320  15.610
 3354DOPG   C3B62111  14.350  19.520  15.900
 3354DOPG   C4B62112  14.510  19.730  16.240
 3355DOPG   GL062113  17.180  17.970  12.710
 3355DOPG   PO462114  17.170  17.620  12.380
 3355DOPG   GL162115  17.340  17.160  12.300
 3355DOPG   GL262116  17.260  16.960  12.560
 3355DOPG   C1A62117  17.640  17.070  12.070
 3355DOPG   D2A62118  18.020  16.940  11.780
 3355DOPG   C3A62119  18.330  16.650  11.870
 3355DOPG   C4A62120  18.680  16.410  11.840
 3355DOPG   C1B62121  17.660  16.700  12.550
 3355DOPG   D2B62122  18.020  16.460  12.630
 3355DOPG   C3B62123  17.770  16.450  13.040
 3355DOPG   C4B62124  17.540  16.130  13.460
 3356DOPG   GL062125  21.070  16.740   8.720
 3356DOPG   PO462126  20.910  16.470   9.120
 3356DOPG   GL162127  20.880  16.570   9.550
 3356DOPG   GL262128  21.010  16.930   9.630
 3356DOPG   C1A62129  20.800  16.660  10.000
 3356DOPG   D2A62130  20.690  16.970  10.360
 3356DOPG   C3A62131  20.400  17.370  10.390
 3356DOPG   C4A62132  20.110  17.710  10.270
 3356DOPG   C1B62133  20.630  17.020   9.610
 3356DOPG   D2B62134  20.410  17.070   9.930
 3356DOPG   C3B62135  19.930  17.210  10.080
 3356DOPG   C4B62136  19.620  17.450  10.410
 3357DOPG   GL062137  20.570  33.850  15.300
 3357DOPG   PO462138  20.330  33.540  15.440
 3357DOPG   GL162139  20.050  33.280  15.250
 3357DOPG   GL262140  19.750  33.180  15.350
 3357DOPG   C1A62141  20.140  32.760  15.170
 3357DOPG   D2A62142  19.820  32.390  15.270
 3357DOPG   C3A62143  19.470  32.330  15.050
 3357DOPG   C4A62144  19.120  32.200  15.220
 3357DOPG   C1B62145  19.610  32.840  15.150
 3357DOPG   D2B62146  19.840  32.570  14.790
 3357DOPG   C3B62147  20.010  32.130  14.900
 3357DOPG   C4B62148  19.750  31.770  14.950
 3358DOPG   GL062149  21.790  21.550  14.550
 3358DOPG   PO462150  21.350  21.380  14.660
 3358DOPG   GL162151  21.450  21.230  15.060
 3358DOPG   GL262152  21.720  21.040  14.870
 3358DOPG   C1A62153  21.660  21.220  15.480
 3358DOPG   D2A62154  21.800  20.880  15.670
 3358DOPG   C3A62155  22.030  20.490  15.590
 3358DOPG   C4A62156  21.940  20.040  15.500
 3358DOPG   C1B62157  21.970  20.870  15.120
 3358DOPG   D2B62158  22.350  20.720  15.240
 3358DOPG   C3B62159  22.690  20.590  15.020
 3358DOPG   C4B62160  23.110  20.670  15.050
 3359DOPG   GL062161  14.090  19.590  13.150
 3359DOPG   PO462162  14.110  19.410  13.670
 3359DOPG   GL162163  13.810  19.350  14.060
 3359DOPG   GL262164  13.790  19.610  14.260
 3359DOPG   C1A62165  13.470  19.400  14.490
 3359DOPG   D2A62166  13.410  19.390  14.850
 3359DOPG   C3A62167  13.090  19.610  14.930
 3359DOPG   C4A62168  12.750  19.910  15.020
 3359DOPG   C1B62169  13.770  19.740  14.740
 3359DOPG   D2B62170  13.560  19.650  15.190
 3359DOPG   C3B62171  13.700  19.430  15.590
 3359DOPG   C4B62172  13.800  19.100  15.820
 3360DOPG   GL062173  15.440  20.580  11.460
 3360DOPG   PO462174  15.230  20.980  11.570
 3360DOPG   GL162175  14.980  20.780  11.290
 3360DOPG   GL262176  15.160  20.670  10.910
 3360DOPG   C1A62177  14.690  20.510  11.100
 3360DOPG   D2A62178  14.450  20.140  10.990
 3360DOPG   C3A62179  14.110  20.170  10.830
 3360DOPG   C4A62180  13.950  20.480  10.580
 3360DOPG   C1B62181  14.830  20.840  10.620
 3360DOPG   D2B62182  14.700  21.200  10.480
 3360DOPG   C3B62183  14.290  21.300  10.520
 3360DOPG   C4B62184  13.920  21.480  10.270
 3361DOPG   GL062185   6.220  21.490  18.960
 3361DOPG   PO462186   6.270  21.930  18.670
 3361DOPG   GL162187   6.570  21.800  18.490
 3361DOPG   GL262188   6.490  21.770  18.190
 3361DOPG   C1A62189   6.970  21.700  18.350
 3361DOPG   D2A62190   7.190  21.250  18.400
 3361DOPG   C3A62191   7.360  20.930  18.600
 3361DOPG   C4A62192   7.670  20.660  18.850
 3361DOPG   C1B62193   6.640  21.340  18.140
 3361DOPG   D2B62194   7.020  20.990  17.910
 3361DOPG   C3B62195   7.390  20.880  17.660
 3361DOPG   C4B62196   7.760  20.560  17.400
 3362DOPG   GL062197  10.760  13.670   5.680
 3362DOPG   PO462198  11.100  13.410   5.850
 3362DOPG   GL162199  11.180  13.690   6.130
 3362DOPG   GL262200  10.980  13.910   6.080
 3362DOPG   C1A62201  11.650  13.790   6.140
 3362DOPG   D2A62202  11.920  14.200   6.220
 3362DOPG   C3A62203  12.250  14.320   6.470
 3362DOPG   C4A62204  12.430  14.780   6.600
 3362DOPG   C1B62205  11.320  14.200   6.270
 3362DOPG   D2B62206  11.430  14.500   6.140
 3362DOPG   C3B62207  11.480  14.780   6.400
 3362DOPG   C4B62208  11.720  14.640   6.790
 3363DOPG   GL062209  15.540  22.740  11.350
 3363DOPG   PO462210  15.530  22.320  11.200
 3363DOPG   GL162211  15.180  22.440  11.090
 3363DOPG   GL262212  15.200  22.770  10.950
 3363DOPG   C1A62213  14.800  22.490  10.910
 3363DOPG   D2A62214  14.420  22.280  10.970
 3363DOPG   C3A62215  14.240  22.160  10.710
 3363DOPG   C4A62216  13.980  22.380  10.460
 3363DOPG   C1B62217  14.840  22.900  10.700
 3363DOPG   D2B62218  14.650  22.940  10.330
 3363DOPG   C3B62219  14.370  23.380  10.390
 3363DOPG   C4B62220  13.840  23.480  10.330
 3364DOPG   GL062221  21.240  23.030  13.040
 3364DOPG   PO462222  21.550  23.230  12.950
 3364DOPG   GL162223  21.860  23.170  12.810
 3364DOPG   GL262224  22.140  23.350  12.820
 3364DOPG   C1A62225  22.100  22.990  12.480
 3364DOPG   D2A62226  22.450  22.930  12.350
 3364DOPG   C3A62227  22.800  23.240  12.410
 3364DOPG   C4A62228  23.040  23.620  12.210
 3364DOPG   C1B62229  22.420  23.550  12.500
 3364DOPG   D2B62230  22.660  24.070  12.370
 3364DOPG   C3B62231  22.820  24.160  11.990
 3364DOPG   C4B62232  22.680  23.940  11.580
 3365DOPG   GL062233  14.980   8.850  17.900
 3365DOPG   PO462234  15.350   8.860  17.790
 3365DOPG   GL162235  15.310   9.280  17.890
 3365DOPG   GL262236  15.370   9.430  18.190
 3365DOPG   C1A62237  15.090   9.610  17.700
 3365DOPG   D2A62238  14.730   9.790  17.480
 3365DOPG   C3A62239  14.660   9.750  17.140
 3365DOPG   C4A62240  14.760   9.700  16.730
 3365DOPG   C1B62241  15.490   9.770  17.980
 3365DOPG   D2B62242  15.800  10.040  17.800
 3365DOPG   C3B62243  15.970   9.910  17.320
 3365DOPG   C4B62244  16.010  10.380  17.080
 3366DOPG   GL062245  13.610  31.810   8.310
 3366DOPG   PO462246  13.410  31.530   8.460
 3366DOPG   GL162247  13.420  31.300   8.830
 3366DOPG   GL262248  13.740  31.270   8.670
 3366DOPG   C1A62249  13.250  31.330   9.180
 3366DOPG   D2A62250  12.960  31.270   9.590
 3366DOPG   C3A62251  12.610  31.010   9.700
 3366DOPG   C4A62252  12.350  30.850  10.000
 3366DOPG   C1B62253  13.790  30.860   8.450
 3366DOPG   D2B62254  14.040  30.580   8.160
 3366DOPG   C3B62255  14.190  30.270   8.430
 3366DOPG   C4B62256  14.300  29.900   8.710
 3367DOPG   GL062257  21.500  22.640  15.190
 3367DOPG   PO462258  21.330  22.300  14.960
 3367DOPG   GL162259  21.800  22.160  15.060
 3367DOPG   GL262260  21.760  22.190  15.340
 3367DOPG   C1A62261  22.150  22.030  14.870
 3367DOPG   D2A62262  22.560  21.800  14.840
 3367DOPG   C3A62263  22.610  21.420  14.620
 3367DOPG   C4A62264  22.670  21.110  14.330
 3367DOPG   C1B62265  22.150  22.060  15.430
 3367DOPG   D2B62266  22.530  22.130  15.220
 3367DOPG   C3B62267  22.600  22.650  14.990
 3367DOPG   C4B62268  23.130  22.910  14.920
 3368DOPG   GL062269  16.310  23.560  13.400
 3368DOPG   PO462270  16.410  23.840  13.730
 3368DOPG   GL162271  15.970  23.970  13.590
 3368DOPG   GL262272  15.870  24.350  13.420
 3368DOPG   C1A62273  15.530  24.070  13.580
 3368DOPG   D2A62274  15.100  24.220  13.500
 3368DOPG   C3A62275  14.700  24.360  13.690
 3368DOPG   C4A62276  14.530  24.610  13.930
 3368DOPG   C1B62277  15.550  24.400  13.190
 3368DOPG   D2B62278  15.150  24.340  13.010
 3368DOPG   C3B62279  14.830  24.220  13.130
 3368DOPG   C4B62280  14.390  24.380  13.200
 3369DOPG   GL062281   7.300  15.090  14.740
 3369DOPG   PO462282   7.170  15.330  15.010
 3369DOPG   GL162283   7.250  15.770  15.150
 3369DOPG   GL262284   7.300  15.830  15.490
 3369DOPG   C1A62285   7.640  15.980  14.930
 3369DOPG   D2A62286   7.830  15.840  14.570
 3369DOPG   C3A62287   8.210  16.000  14.440
 3369DOPG   C4A62288   8.430  16.450  14.300
 3369DOPG   C1B62289   7.610  16.190  15.490
 3369DOPG   D2B62290   7.900  16.230  15.260
 3369DOPG   C3B62291   8.000  16.370  14.790
 3369DOPG   C4B62292   7.590  16.380  14.600
 3370DOPG   GL062293  18.070  23.000   9.880
 3370DOPG   PO462294  18.500  23.020   9.750
 3370DOPG   GL162295  18.360  23.330   9.550
 3370DOPG   GL262296  18.470  23.560   9.510
 3370DOPG   C1A62297  18.220  23.640   9.080
 3370DOPG   D2A62298  18.020  24.070   8.950
 3370DOPG   C3A62299  17.910  24.230   8.650
 3370DOPG   C4A62300  17.630  24.370   8.710
 3370DOPG   C1B62301  18.590  23.900   9.340
 3370DOPG   D2B62302  18.990  24.210   9.010
 3370DOPG   C3B62303  19.360  24.070   9.090
 3370DOPG   C4B62304  19.530  23.780   9.340
 3371DOPG   GL062305  17.330   7.370  12.980
 3371DOPG   PO462306  17.150   7.710  13.300
 3371DOPG   GL162307  17.100   8.130  13.150
 3371DOPG   GL262308  17.310   8.240  12.870
 3371DOPG   C1A62309  17.120   8.530  13.190
 3371DOPG   D2A62310  17.300   8.970  13.130
 3371DOPG   C3A62311  17.190   9.370  13.320
 3371DOPG   C4A62312  16.970   9.750  13.120
 3371DOPG   C1B62313  17.300   8.630  12.660
 3371DOPG   D2B62314  17.070   8.940  12.590
 3371DOPG   C3B62315  17.000   9.210  12.820
 3371DOPG   C4B62316  16.770   9.530  12.750
 3372DOPG   GL062317  26.860  15.870  19.760
 3372DOPG   PO462318  26.610  16.170  19.380
 3372DOPG   GL162319  26.460  16.330  19.070
 3372DOPG   GL262320  26.330  15.990  18.970
 3372DOPG   C1A62321  25.980  16.410  18.920
 3372DOPG   D2A62322  25.710  16.310  18.560
 3372DOPG   C3A62323  25.790  16.030  18.230
 3372DOPG   C4A62324  25.560  15.660  18.040
 3372DOPG   C1B62325  25.830  15.950  18.890
 3372DOPG   D2B62326  25.390  15.960  18.740
 3372DOPG   C3B62327  25.210  16.070  18.310
 3372DOPG   C4B62328  24.840  16.250  18.140
 3373DOPG   GL062329  12.140  26.670  12.920
 3373DOPG   PO462330  12.160  27.040  12.530
 3373DOPG   GL162331  11.850  27.230  12.400
 3373DOPG   GL262332  11.900  27.550  12.290
 3373DOPG   C1A62333  11.580  27.460  12.740
 3373DOPG   D2A62334  11.520  27.970  12.890
 3373DOPG   C3A62335  11.310  28.250  12.730
 3373DOPG   C4A62336  11.070  28.500  12.890
 3373DOPG   C1B62337  11.480  27.790  12.320
 3373DOPG   D2B62338  11.240  28.180  12.260
 3373DOPG   C3B62339  11.130  28.510  11.870
 3373DOPG   C4B62340  10.980  28.380  11.450
 3374DOPG   GL062341   7.410  13.760  19.410
 3374DOPG   PO462342   7.530  14.150  19.320
 3374DOPG   GL162343   7.770  14.390  19.420
 3374DOPG   GL262344   7.960  14.330  19.090
 3374DOPG   C1A62345   8.060  14.470  19.710
 3374DOPG   D2A62346   8.310  14.860  19.840
 3374DOPG   C3A62347   8.370  15.180  19.490
 3374DOPG   C4A62348   8.650  15.300  19.330
 3374DOPG   C1B62349   8.270  14.110  18.860
 3374DOPG   D2B62350   8.730  14.070  18.820
 3374DOPG   C3B62351   9.100  13.940  18.580
 3374DOPG   C4B62352   9.230  13.760  18.220
 3375DOPG   GL062353  17.630  27.930   3.200
 3375DOPG   PO462354  17.780  28.230   3.370
 3375DOPG   GL162355  17.660  28.070   3.700
 3375DOPG   GL262356  17.340  27.990   3.630
 3375DOPG   C1A62357  17.600  27.880   4.190
 3375DOPG   D2A62358  17.660  27.350   4.310
 3375DOPG   C3A62359  17.710  27.240   4.640
 3375DOPG   C4A62360  17.670  26.970   4.950
 3375DOPG   C1B62361  16.980  27.770   3.860
 3375DOPG   D2B62362  16.690  27.710   4.150
 3375DOPG   C3B62363  16.790  27.630   4.600
 3375DOPG   C4B62364  16.920  27.780   5.040
 3376DOPG   GL062365  14.540  15.970  17.180
 3376DOPG   PO462366  14.880  16.260  17.210
 3376DOPG   GL162367  15.200  16.710  17.120
 3376DOPG   GL262368  14.900  16.850  17.030
 3376DOPG   C1A62369  15.380  16.830  16.750
 3376DOPG   D2A62370  15.280  16.820  16.340
 3376DOPG   C3A62371  15.230  17.170  16.140
 3376DOPG   C4A62372  15.130  17.530  15.980
 3376DOPG   C1B62373  14.890  17.080  16.730
 3376DOPG   D2B62374  14.790  17.330  16.280
 3376DOPG   C3B62375  14.650  17.620  15.990
 3376DOPG   C4B62376  14.300  17.760  15.650
 3377DOPG   GL062377  17.570   8.350   7.590
 3377DOPG   PO462378  17.340   8.790   7.590
 3377DOPG   GL162379  17.120   8.870   7.970
 3377DOPG   GL262380  16.790   9.100   7.850
 3377DOPG   C1A62381  17.060   8.990   8.320
 3377DOPG   D2A62382  17.390   9.050   8.770
 3377DOPG   C3A62383  17.700   8.990   9.110
 3377DOPG   C4A62384  17.860   9.210   9.410
 3377DOPG   C1B62385  17.060   9.310   7.580
 3377DOPG   D2B62386  17.410   9.470   7.500
 3377DOPG   C3B62387  17.470   9.820   7.760
 3377DOPG   C4B62388  17.170  10.190   7.900
 3378DOPG   GL062389   9.760  11.070  11.910
 3378DOPG   PO462390  10.160  11.210  12.160
 3378DOPG   GL162391  10.640  11.340  12.200
 3378DOPG   GL262392  10.690  11.260  11.900
 3378DOPG   C1A62393  11.050  11.500  12.190
 3378DOPG   D2A62394  11.390  11.610  12.460
 3378DOPG   C3A62395  11.450  11.900  12.320
 3378DOPG   C4A62396  11.700  12.080  12.080
 3378DOPG   C1B62397  10.960  11.420  11.610
 3378DOPG   D2B62398  11.260  11.600  11.310
 3378DOPG   C3B62399  11.780  11.650  11.470
 3378DOPG   C4B62400  12.190  11.650  11.660
 3379DOPG   GL062401   5.610  24.410  15.840
 3379DOPG   PO462402   6.040  24.390  15.770
 3379DOPG   GL162403   6.150  24.130  15.380
 3379DOPG   GL262404   6.220  23.870  15.560
 3379DOPG   C1A62405   6.580  24.230  15.410
 3379DOPG   D2A62406   7.050  24.250  15.400
 3379DOPG   C3A62407   7.360  24.580  15.440
 3379DOPG   C4A62408   7.770  24.600  15.700
 3379DOPG   C1B62409   6.560  23.730  15.200
 3379DOPG   D2B62410   6.990  23.660  15.120
 3379DOPG   C3B62411   7.290  23.800  15.170
 3379DOPG   C4B62412   7.520  24.050  15.470
 3380DOPG   GL062413  16.340  27.710  17.120
 3380DOPG   PO462414  16.070  27.490  17.520
 3380DOPG   GL162415  15.920  27.850  17.790
 3380DOPG   GL262416  15.650  27.780  17.840
 3380DOPG   C1A62417  15.940  28.140  18.110
 3380DOPG   D2A62418  15.720  28.430  18.340
 3380DOPG   C3A62419  15.620  28.360  18.700
 3380DOPG   C4A62420  15.280  28.350  18.960
 3380DOPG   C1B62421  15.550  27.820  18.160
 3380DOPG   D2B62422  15.310  28.130  18.420
 3380DOPG   C3B62423  15.180  28.480  18.450
 3380DOPG   C4B62424  15.120  28.750  18.720
 3381DOPG   GL062425   7.180  27.660  11.270
 3381DOPG   PO462426   7.050  27.650  11.650
 3381DOPG   GL162427   7.370  27.320  11.550
 3381DOPG   GL262428   7.710  27.480  11.510
 3381DOPG   C1A62429   7.610  27.070  11.260
 3381DOPG   D2A62430   7.740  26.680  11.110
 3381DOPG   C3A62431   7.520  26.290  11.100
 3381DOPG   C4A62432   7.510  25.880  10.800
 3381DOPG   C1B62433   8.060  27.230  11.750
 3381DOPG   D2B62434   8.180  26.980  12.000
 3381DOPG   C3B62435   8.190  26.580  11.920
 3381DOPG   C4B62436   8.590  26.300  11.950
 3382DOPG   GL062437  16.070  24.510  12.400
 3382DOPG   PO462438  16.060  24.270  12.810
 3382DOPG   GL162439  16.030  24.670  13.050
 3382DOPG   GL262440  16.140  24.940  12.830
 3382DOPG   C1A62441  15.970  25.000  13.360
 3382DOPG   D2A62442  15.670  25.230  13.460
 3382DOPG   C3A62443  15.440  25.130  13.780
 3382DOPG   C4A62444  15.290  25.210  14.180
 3382DOPG   C1B62445  15.890  25.040  12.560
 3382DOPG   D2B62446  15.530  25.340  12.460
 3382DOPG   C3B62447  15.200  25.230  12.630
 3382DOPG   C4B62448  14.880  25.130  12.960
 3383DOPG   GL062449  13.320  16.780   1.210
 3383DOPG   PO462450  13.580  17.130   1.380
 3383DOPG   GL162451  13.630  17.180   1.890
 3383DOPG   GL262452  14.040  17.070   1.800
 3383DOPG   C1A62453  13.900  16.830   2.170
 3383DOPG   D2A62454  13.940  16.470   2.480
 3383DOPG   C3A62455  14.320  16.570   2.760
 3383DOPG   C4A62456  14.780  16.910   2.750
 3383DOPG   C1B62457  14.030  17.320   2.190
 3383DOPG   D2B62458  13.940  17.660   2.440
 3383DOPG   C3B62459  13.610  17.650   2.780
 3383DOPG   C4B62460  13.560  17.940   3.080
 3384DOPG   GL062461  15.720  18.370  13.620
 3384DOPG   PO462462  15.600  18.180  14.060
 3384DOPG   GL162463  15.620  17.840  14.290
 3384DOPG   GL262464  15.760  17.520  14.140
 3384DOPG   C1A62465  15.700  17.810  14.670
 3384DOPG   D2A62466  15.510  17.610  15.070
 3384DOPG   C3A62467  15.640  17.380  15.500
 3384DOPG   C4A62468  15.700  17.120  15.920
 3384DOPG   C1B62469  15.610  17.330  14.480
 3384DOPG   D2B62470  15.620  16.900  14.620
 3384DOPG   C3B62471  15.320  16.650  14.630
 3384DOPG   C4B62472  14.970  16.330  14.450
 3385DOPG   GL062473  16.580  23.660  10.700
 3385DOPG   PO462474  16.990  23.640  10.500
 3385DOPG   GL162475  16.940  23.990  10.240
 3385DOPG   GL262476  16.910  24.230  10.440
 3385DOPG   C1A62477  17.120  24.160   9.910
 3385DOPG   D2A62478  17.000  24.500   9.590
 3385DOPG   C3A62479  16.630  24.800   9.700
 3385DOPG   C4A62480  16.280  25.140   9.750
 3385DOPG   C1B62481  16.540  24.520  10.540
 3385DOPG   D2B62482  16.340  24.890  10.720
 3385DOPG   C3B62483  15.890  24.890  10.930
 3385DOPG   C4B62484  15.410  24.760  10.890
 3386DOPG   GL062485  25.570  23.420  11.790
 3386DOPG   PO462486  25.230  23.590  11.910
 3386DOPG   GL162487  25.140  23.300  12.270
 3386DOPG   GL262488  25.030  23.470  12.470
 3386DOPG   C1A62489  24.850  22.990  12.260
 3386DOPG   D2A62490  24.550  22.710  12.030
 3386DOPG   C3A62491  24.180  22.970  12.060
 3386DOPG   C4A62492  23.960  23.250  12.240
 3386DOPG   C1B62493  24.620  23.700  12.530
 3386DOPG   D2B62494  24.170  23.680  12.420
 3386DOPG   C3B62495  23.920  23.820  12.830
 3386DOPG   C4B62496  23.650  23.680  13.050
 3387DOPG   GL062497  14.940  20.740  14.930
 3387DOPG   PO462498  14.690  20.450  14.670
 3387DOPG   GL162499  14.550  20.420  15.030
 3387DOPG   GL262500  14.790  20.350  15.380
 3387DOPG   C1A62501  14.210  20.390  15.270
 3387DOPG   D2A62502  13.960  20.410  15.620
 3387DOPG   C3A62503  13.580  20.830  15.620
 3387DOPG   C4A62504  13.620  21.190  15.580
 3387DOPG   C1B62505  14.600  20.590  15.650
 3387DOPG   D2B62506  14.400  20.580  16.080
 3387DOPG   C3B62507  14.630  20.670  16.430
 3387DOPG   C4B62508  14.620  20.950  16.780
 3388DOPG   GL062509   9.950  21.220  16.850
 3388DOPG   PO462510   9.840  21.000  17.140
 3388DOPG   GL162511   9.560  21.120  17.440
 3388DOPG   GL262512   9.640  21.390  17.630
 3388DOPG   C1A62513   9.170  21.080  17.480
 3388DOPG   D2A62514   8.760  20.870  17.470
 3388DOPG   C3A62515   8.590  21.180  17.520
 3388DOPG   C4A62516   8.460  21.460  17.800
 3388DOPG   C1B62517   9.280  21.590  17.470
 3388DOPG   D2B62518   8.920  21.580  17.610
 3388DOPG   C3B62519   8.990  21.430  18.010
 3388DOPG   C4B62520   9.370  21.490  18.300
 3389DOPG   GL062521  19.260  20.270  12.020
 3389DOPG   PO462522  19.710  20.070  12.030
 3389DOPG   GL162523  20.170  20.050  12.010
 3389DOPG   GL262524  20.270  19.990  11.740
 3389DOPG   C1A62525  20.690  19.820  11.910
 3389DOPG   D2A62526  20.960  19.560  11.670
 3389DOPG   C3A62527  21.050  19.170  11.520
 3389DOPG   C4A62528  21.170  18.690  11.590
 3389DOPG   C1B62529  20.430  19.670  11.440
 3389DOPG   D2B62530  20.780  19.460  11.180
 3389DOPG   C3B62531  20.700  19.190  10.830
 3389DOPG   C4B62532  20.220  19.060  10.750
 3390DOPG   GL062533  12.190  18.630   1.710
 3390DOPG   PO462534  12.140  19.060   1.500
 3390DOPG   GL162535  12.500  19.200   1.720
 3390DOPG   GL262536  12.700  19.450   1.530
 3390DOPG   C1A62537  12.520  19.390   2.080
 3390DOPG   D2A62538  12.370  19.670   2.290
 3390DOPG   C3A62539  12.300  19.510   2.660
 3390DOPG   C4A62540  12.490  19.160   2.710
 3390DOPG   C1B62541  12.830  19.690   1.820
 3390DOPG   D2B62542  13.170  19.920   2.120
 3390DOPG   C3B62543  13.580  19.850   2.070
 3390DOPG   C4B62544  13.950  19.620   2.120
 3391DOPG   GL062545  16.090  22.640  14.290
 3391DOPG   PO462546  15.660  22.670  14.190
 3391DOPG   GL162547  15.210  22.690  14.280
 3391DOPG   GL262548  15.280  23.020  14.500
 3391DOPG   C1A62549  14.840  22.690  14.510
 3391DOPG   D2A62550  14.410  22.590  14.460
 3391DOPG   C3A62551  14.010  22.490  14.810
 3391DOPG   C4A62552  13.770  22.580  15.110
 3391DOPG   C1B62553  15.410  23.070  14.920
 3391DOPG   D2B62554  15.400  23.120  15.460
 3391DOPG   C3B62555  15.540  23.330  15.810
 3391DOPG   C4B62556  15.890  23.330  16.010
 3392DOPG   GL062557  19.850  24.290  11.880
 3392DOPG   PO462558  19.980  24.690  11.590
 3392DOPG   GL162559  20.290  24.990  11.530
 3392DOPG   GL262560  20.270  25.290  11.450
 3392DOPG   C1A62561  20.560  24.910  11.090
 3392DOPG   D2A62562  20.700  25.180  10.840
 3392DOPG   C3A62563  21.080  25.200  10.570
 3392DOPG   C4A62564  21.080  25.380  10.060
 3392DOPG   C1B62565  20.670  25.260  11.410
 3392DOPG   D2B62566  20.840  25.760  11.390
 3392DOPG   C3B62567  20.840  25.970  10.950
 3392DOPG   C4B62568  20.710  26.230  10.690
 3393DOPG   GL062569  24.090  20.020  10.850
 3393DOPG   PO462570  23.670  19.980  10.650
 3393DOPG   GL162571  23.440  20.280  10.440
 3393DOPG   GL262572  23.530  20.510  10.260
 3393DOPG   C1A62573  22.970  20.260  10.240
 3393DOPG   D2A62574  22.680  20.520  10.270
 3393DOPG   C3A62575  22.580  20.670  10.730
 3393DOPG   C4A62576  22.560  21.070  10.860
 3393DOPG   C1B62577  23.160  20.720  10.220
 3393DOPG   D2B62578  23.000  20.800   9.870
 3393DOPG   C3B62579  22.560  20.820   9.910
 3393DOPG   C4B62580  22.230  20.950  10.320
 3394DOPG   GL062581  19.860  25.040  11.320
 3394DOPG   PO462582  19.520  25.310  11.410
 3394DOPG   GL162583  19.360  25.570  11.250
 3394DOPG   GL262584  19.020  25.660  11.270
 3394DOPG   C1A62585  19.440  26.070  11.020
 3394DOPG   D2A62586  19.830  26.400  10.890
 3394DOPG   C3A62587  20.060  26.600  11.150
 3394DOPG   C4A62588  20.450  26.760  11.220
 3394DOPG   C1B62589  19.080  25.560  10.830
 3394DOPG   D2B62590  19.080  25.510  10.490
 3394DOPG   C3B62591  19.400  25.850  10.300
 3394DOPG   C4B62592  19.540  26.310  10.410
 3395DOPG   GL062593   8.990  22.420  14.690
 3395DOPG   PO462594   8.660  22.290  14.370
 3395DOPG   GL162595   8.420  22.690  14.440
 3395DOPG   GL262596   8.450  22.850  14.700
 3395DOPG   C1A62597   8.010  22.960  14.460
 3395DOPG   D2A62598   7.600  23.040  14.410
 3395DOPG   C3A62599   7.540  22.690  14.560
 3395DOPG   C4A62600   7.500  22.510  15.080
 3395DOPG   C1B62601   8.200  23.270  14.800
 3395DOPG   D2B62602   7.800  23.480  14.830
 3395DOPG   C3B62603   7.400  23.430  14.720
 3395DOPG   C4B62604   7.130  23.690  14.410
 3396DOPG   GL062605   5.370  18.970  15.500
 3396DOPG   PO462606   5.480  18.810  15.150
 3396DOPG   GL162607   5.840  18.880  15.190
 3396DOPG   GL262608   6.060  18.660  15.350
 3396DOPG   C1A62609   6.220  19.000  15.040
 3396DOPG   D2A62610   6.670  19.110  14.820
 3396DOPG   C3A62611   6.760  19.390  14.350
 3396DOPG   C4A62612   6.480  19.690  14.110
 3396DOPG   C1B62613   6.430  18.540  15.210
 3396DOPG   D2B62614   6.880  18.680  15.430
 3396DOPG   C3B62615   7.180  18.980  15.240
 3396DOPG   C4B62616   7.590  18.940  15.110
 3397DOPG   GL062617  20.530  27.560  16.600
 3397DOPG   PO462618  20.560  27.620  17.060
 3397DOPG   GL162619  20.450  27.160  16.920
 3397DOPG   GL262620  20.430  26.900  16.990
 3397DOPG   C1A62621  20.220  27.080  16.420
 3397DOPG   D2A62622  19.810  26.970  16.190
 3397DOPG   C3A62623  19.720  26.590  15.890
 3397DOPG   C4A62624  19.870  26.350  15.520
 3397DOPG   C1B62625  20.390  26.670  16.630
 3397DOPG   D2B62626  20.160  26.570  16.280
 3397DOPG   C3B62627  20.110  26.290  15.960
 3397DOPG   C4B62628  19.890  25.940  15.760
 3398DOPG   GL062629  16.090  24.580  18.080
 3398DOPG   PO462630  15.720  24.600  18.090
 3398DOPG   GL162631  15.490  24.340  17.970
 3398DOPG   GL262632  15.440  24.340  17.610
 3398DOPG   C1A62633  15.570  23.900  17.790
 3398DOPG   D2A62634  15.450  23.470  17.540
 3398DOPG   C3A62635  15.630  23.120  17.490
 3398DOPG   C4A62636  16.060  22.980  17.240
 3398DOPG   C1B62637  15.360  24.110  17.270
 3398DOPG   D2B62638  15.600  23.810  17.040
 3398DOPG   C3B62639  15.740  23.440  17.000
 3398DOPG   C4B62640  16.020  23.290  16.590
 3399DOPG   GL062641  12.030  24.990   3.190
 3399DOPG   PO462642  12.500  24.970   3.100
 3399DOPG   GL162643  12.730  24.730   3.280
 3399DOPG   GL262644  12.920  24.920   3.410
 3399DOPG   C1A62645  12.800  24.350   3.470
 3399DOPG   D2A62646  12.900  24.280   3.950
 3399DOPG   C3A62647  12.660  24.050   4.120
 3399DOPG   C4A62648  12.320  23.710   3.970
 3399DOPG   C1B62649  12.910  25.170   3.830
 3399DOPG   D2B62650  13.130  25.200   4.330
 3399DOPG   C3B62651  13.440  25.090   4.270
 3399DOPG   C4B62652  13.640  24.650   4.480
 3400DOPG   GL062653   9.460  26.800   6.380
 3400DOPG   PO462654   9.590  26.420   6.030
 3400DOPG   GL162655   9.810  26.290   6.380
 3400DOPG   GL262656   9.920  26.050   6.350
 3400DOPG   C1A62657  10.200  26.390   6.530
 3400DOPG   D2A62658  10.480  26.550   6.860
 3400DOPG   C3A62659  10.450  26.960   7.020
 3400DOPG   C4A62660  10.570  27.350   6.990
 3400DOPG   C1B62661  10.180  25.850   6.600
 3400DOPG   D2B62662  10.550  25.720   6.850
 3400DOPG   C3B62663  10.920  25.680   6.670
 3400DOPG   C4B62664  11.280  25.500   6.580
 3401DOPG   GL062665  18.050  18.450  13.830
 3401DOPG   PO462666  18.270  18.280  14.140
 3401DOPG   GL162667  18.630  17.950  14.300
 3401DOPG   GL262668  18.880  18.010  14.520
 3401DOPG   C1A62669  18.720  17.550  14.260
 3401DOPG   D2A62670  19.080  17.260  14.300
 3401DOPG   C3A62671  19.540  17.410  14.480
 3401DOPG   C4A62672  19.890  17.230  14.360
 3401DOPG   C1B62673  19.120  17.680  14.590
 3401DOPG   D2B62674  19.130  17.340  14.900
 3401DOPG   C3B62675  19.560  17.290  15.110
 3401DOPG   C4B62676  19.800  17.480  15.460
 3402DOPG   GL062677   4.650  20.110  14.770
 3402DOPG   PO462678   4.770  20.390  14.520
 3402DOPG   GL162679   5.060  20.680  14.390
 3402DOPG   GL262680   5.410  20.490  14.330
 3402DOPG   C1A62681   5.410  20.950  14.660
 3402DOPG   D2A62682   5.480  21.290  14.710
 3402DOPG   C3A62683   5.930  21.350  14.800
 3402DOPG   C4A62684   6.300  21.090  14.690
 3402DOPG   C1B62685   5.790  20.600  14.160
 3402DOPG   D2B62686   6.180  20.670  14.140
 3402DOPG   C3B62687   6.430  20.580  14.480
 3402DOPG   C4B62688   6.740  20.810  14.680
 3403DOPG   GL062689  10.020  16.420  22.580
 3403DOPG   PO462690  10.090  16.770  22.720
 3403DOPG   GL162691  10.370  16.990  22.380
 3403DOPG   GL262692  10.250  16.750  22.230
 3403DOPG   C1A62693  10.630  17.310  22.170
 3403DOPG   D2A62694  10.840  17.400  21.730
 3403DOPG   C3A62695  11.200  17.300  21.430
 3403DOPG   C4A62696  11.500  17.580  21.240
 3403DOPG   C1B62697  10.440  16.970  21.780
 3403DOPG   D2B62698  10.530  17.110  21.300
 3403DOPG   C3B62699  10.410  16.820  20.990
 3403DOPG   C4B62700  10.030  16.610  20.790
 3404DOPG   GL062701   5.380  20.120   9.200
 3404DOPG   PO462702   5.760  19.960   9.340
 3404DOPG   GL162703   6.170  20.040   9.410
 3404DOPG   GL262704   6.370  19.800   9.430
 3404DOPG   C1A62705   6.500  20.340   9.480
 3404DOPG   D2A62706   6.820  20.470   9.660
 3404DOPG   C3A62707   7.200  20.190   9.720
 3404DOPG   C4A62708   7.400  19.870   9.490
 3404DOPG   C1B62709   6.850  19.800   9.650
 3404DOPG   D2B62710   7.220  19.620   9.910
 3404DOPG   C3B62711   7.560  19.370   9.860
 3404DOPG   C4B62712   7.630  18.780   9.750
 3405DOPG   GL062713  11.870  12.510   4.350
 3405DOPG   PO462714  12.010  12.310   4.630
 3405DOPG   GL162715  12.230  12.630   4.750
 3405DOPG   GL262716  12.470  12.830   4.650
 3405DOPG   C1A62717  12.490  12.640   5.160
 3405DOPG   D2A62718  12.460  12.820   5.570
 3405DOPG   C3A62719  12.320  12.490   5.830
 3405DOPG   C4A62720  12.640  12.190   5.970
 3405DOPG   C1B62721  12.840  12.670   4.800
 3405DOPG   D2B62722  13.280  12.860   4.940
 3405DOPG   C3B62723  13.420  13.050   5.280
 3405DOPG   C4B62724  13.420  13.510   5.490
 3406DOPG   GL062725  10.770  13.350   6.240
 3406DOPG   PO462726  10.860  13.490   6.660
 3406DOPG   GL162727  11.090  13.840   6.600
 3406DOPG   GL262728  10.850  14.230   6.540
 3406DOPG   C1A62729  11.340  14.100   6.790
 3406DOPG   D2A62730  11.650  14.240   7.100
 3406DOPG   C3A62731  11.700  14.230   7.590
 3406DOPG   C4A62732  12.110  14.300   7.820
 3406DOPG   C1B62733  10.920  14.540   6.290
 3406DOPG   D2B62734  10.930  14.380   5.790
 3406DOPG   C3B62735  11.350  14.380   5.620
 3406DOPG   C4B62736  11.640  14.620   5.650
 3407DOPG   GL062737  22.490  20.170   2.770
 3407DOPG   PO462738  22.370  20.020   2.320
 3407DOPG   GL162739  22.060  19.910   2.640
 3407DOPG   GL262740  21.860  19.700   2.620
 3407DOPG   C1A62741  22.190  19.800   3.000
 3407DOPG   D2A62742  21.990  19.790   3.390
 3407DOPG   C3A62743  22.070  19.600   3.870
 3407DOPG   C4A62744  22.140  19.210   4.160
 3407DOPG   C1B62745  21.670  19.800   2.860
 3407DOPG   D2B62746  21.450  19.920   3.230
 3407DOPG   C3B62747  21.050  20.150   3.300
 3407DOPG   C4B62748  20.810  20.460   3.470
 3408DOPG   GL062749  18.150  21.440   5.710
 3408DOPG   PO462750  18.200  21.780   6.060
 3408DOPG   GL162751  18.510  21.580   6.410
 3408DOPG   GL262752  18.810  21.410   6.390
 3408DOPG   C1A62753  18.450  21.260   6.750
 3408DOPG   D2A62754  18.410  21.280   7.260
 3408DOPG   C3A62755  18.410  21.710   7.550
 3408DOPG   C4A62756  18.180  22.020   7.890
 3408DOPG   C1B62757  18.910  21.710   6.740
 3408DOPG   D2B62758  18.690  21.860   7.110
 3408DOPG   C3B62759  18.880  21.880   7.520
 3408DOPG   C4B62760  19.380  21.980   7.480
 3409DOPG   GL062761  20.200  24.720  14.410
 3409DOPG   PO462762  20.130  24.990  14.110
 3409DOPG   GL162763  20.070  25.320  14.450
 3409DOPG   GL262764  19.940  25.120  14.690
 3409DOPG   C1A62765  19.920  25.680  14.500
 3409DOPG   D2A62766  19.900  26.050  14.740
 3409DOPG   C3A62767  20.000  26.500  15.060
 3409DOPG   C4A62768  20.190  26.840  15.040
 3409DOPG   C1B62769  20.000  25.530  15.020
 3409DOPG   D2B62770  20.020  26.000  15.210
 3409DOPG   C3B62771  20.390  26.030  15.410
 3409DOPG   C4B62772  20.640  26.210  15.650
 3410DOPG   GL062773  20.780  22.510  11.030
 3410DOPG   PO462774  20.690  22.240  11.420
 3410DOPG   GL162775  21.020  21.940  11.200
 3410DOPG   GL262776  21.330  21.650  11.140
 3410DOPG   C1A62777  21.120  21.920  10.790
 3410DOPG   D2A62778  21.410  21.620  10.630
 3410DOPG   C3A62779  21.070  21.410  10.410
 3410DOPG   C4A62780  20.690  21.330  10.310
 3410DOPG   C1B62781  21.600  21.460  11.260
 3410DOPG   D2B62782  22.090  21.450  11.260
 3410DOPG   C3B62783  22.490  21.680  11.020
 3410DOPG   C4B62784  22.500  22.000  10.880
 3411DOPG   GL062785  17.520  21.980  10.220
 3411DOPG   PO462786  17.490  21.950   9.760
 3411DOPG   GL162787  17.280  22.130   9.470
 3411DOPG   GL262788  17.490  22.220   9.280
 3411DOPG   C1A62789  17.010  22.390   9.370
 3411DOPG   D2A62790  16.800  22.810   9.190
 3411DOPG   C3A62791  16.710  22.800   8.780
 3411DOPG   C4A62792  16.440  23.060   8.530
 3411DOPG   C1B62793  17.380  22.490   9.050
 3411DOPG   D2B62794  17.270  22.730   8.750
 3411DOPG   C3B62795  17.450  23.020   8.460
 3411DOPG   C4B62796  17.710  23.140   8.050
 3412DOPG   GL062797  18.610  22.190  16.250
 3412DOPG   PO462798  18.780  22.440  15.930
 3412DOPG   GL162799  18.690  22.780  16.230
 3412DOPG   GL262800  18.700  23.130  16.110
 3412DOPG   C1A62801  18.340  22.920  16.520
 3412DOPG   D2A62802  18.110  23.070  16.840
 3412DOPG   C3A62803  18.170  23.360  17.040
 3412DOPG   C4A62804  18.190  23.490  17.450
 3412DOPG   C1B62805  18.880  23.380  16.530
 3412DOPG   D2B62806  19.350  23.600  16.680
 3412DOPG   C3B62807  19.510  23.460  17.080
 3412DOPG   C4B62808  19.400  23.350  17.440
 3413DOPG   GL062809  20.740  20.840  15.700
 3413DOPG   PO462810  20.690  21.280  15.450
 3413DOPG   GL162811  21.040  21.150  15.450
 3413DOPG   GL262812  21.260  21.450  15.490
 3413DOPG   C1A62813  21.310  20.980  15.780
 3413DOPG   D2A62814  21.500  20.640  16.010
 3413DOPG   C3A62815  21.900  20.560  16.170
 3413DOPG   C4A62816  22.120  20.450  16.540
 3413DOPG   C1B62817  21.330  21.530  15.840
 3413DOPG   D2B62818  21.410  21.750  16.250
 3413DOPG   C3B62819  21.840  21.790  16.350
 3413DOPG   C4B62820  22.140  21.470  16.480
 3414DOPG   GL062821  18.900  20.860  10.270
 3414DOPG   PO462822  18.930  20.660   9.950
 3414DOPG   GL162823  18.950  20.460   9.520
 3414DOPG   GL262824  18.650  20.420   9.630
 3414DOPG   C1A62825  19.060  20.360   9.110
 3414DOPG   D2A62826  19.420  20.030   8.950
 3414DOPG   C3A62827  19.540  20.210   8.620
 3414DOPG   C4A62828  19.530  20.510   8.220
 3414DOPG   C1B62829  18.550  20.390   9.250
 3414DOPG   D2B62830  18.650  20.260   8.800
 3414DOPG   C3B62831  18.880  20.020   8.750
 3414DOPG   C4B62832  19.050  19.700   8.950
 3415DOPG   GL062833  12.100  20.330  17.200
 3415DOPG   PO462834  12.310  20.530  17.580
 3415DOPG   GL162835  12.680  20.570  17.570
 3415DOPG   GL262836  12.780  20.920  17.450
 3415DOPG   C1A62837  12.920  20.500  17.290
 3415DOPG   D2A62838  13.190  20.410  16.910
 3415DOPG   C3A62839  13.200  20.170  16.480
 3415DOPG   C4A62840  13.510  19.900  16.210
 3415DOPG   C1B62841  13.230  20.920  17.240
 3415DOPG   D2B62842  13.670  20.800  17.180
 3415DOPG   C3B62843  13.670  20.630  16.840
 3415DOPG   C4B62844  13.790  20.300  16.540
 3416DOPG   GL062845  14.770  14.270  14.690
 3416DOPG   PO462846  14.900  14.110  14.290
 3416DOPG   GL162847  14.630  14.540  14.310
 3416DOPG   GL262848  14.330  14.450  14.160
 3416DOPG   C1A62849  14.590  15.010  14.350
 3416DOPG   D2A62850  14.640  15.440  14.250
 3416DOPG   C3A62851  14.320  15.570  13.960
 3416DOPG   C4A62852  14.240  15.600  13.590
 3416DOPG   C1B62853  14.280  14.900  13.980
 3416DOPG   D2B62854  14.080  15.110  13.750
 3416DOPG   C3B62855  13.710  14.970  13.620
 3416DOPG   C4B62856  13.410  14.900  13.220
 3417DOPG   GL062857  18.460  20.570  10.030
 3417DOPG   PO462858  18.660  20.320  10.450
 3417DOPG   GL162859  18.810  20.140  10.080
 3417DOPG   GL262860  19.130  20.100   9.980
 3417DOPG   C1A62861  18.910  19.980   9.580
 3417DOPG   D2A62862  19.310  19.930   9.450
 3417DOPG   C3A62863  19.520  19.540   9.390
 3417DOPG   C4A62864  19.570  19.550   8.860
 3417DOPG   C1B62865  19.500  20.200   9.770
 3417DOPG   D2B62866  19.630  20.350   9.360
 3417DOPG   C3B62867  19.890  20.220   9.080
 3417DOPG   C4B62868  20.040  19.780   9.050
 3418DOPG   GL062869  21.560  22.870  13.990
 3418DOPG   PO462870  21.900  23.100  13.920
 3418DOPG   GL162871  22.240  23.250  13.900
 3418DOPG   GL262872  22.490  23.030  13.990
 3418DOPG   C1A62873  22.640  23.550  14.120
 3418DOPG   D2A62874  23.040  23.440  14.200
 3418DOPG   C3A62875  23.320  23.710  14.470
 3418DOPG   C4A62876  23.620  23.890  14.860
 3418DOPG   C1B62877  22.850  23.230  13.760
 3418DOPG   D2B62878  23.070  23.550  13.610
 3418DOPG   C3B62879  22.910  23.910  13.820
 3418DOPG   C4B62880  22.820  24.260  13.980
 3419DOPG   GL062881  13.940  19.020  11.990
 3419DOPG   PO462882  14.000  18.850  11.560
 3419DOPG   GL162883  14.100  19.070  11.180
 3419DOPG   GL262884  14.370  19.270  11.210
 3419DOPG   C1A62885  14.030  19.000  10.750
 3419DOPG   D2A62886  14.270  18.630  10.470
 3419DOPG   C3A62887  14.320  18.210  10.510
 3419DOPG   C4A62888  14.000  17.970  10.810
 3419DOPG   C1B62889  14.560  18.940  10.970
 3419DOPG   D2B62890  14.910  18.810  10.930
 3419DOPG   C3B62891  15.180  19.030  10.600
 3419DOPG   C4B62892  15.110  19.060  10.180
 3420DOPG   GL062893  20.700  27.780   2.970
 3420DOPG   PO462894  20.810  27.850   3.360
 3420DOPG   GL162895  20.670  27.460   3.580
 3420DOPG   GL262896  20.680  27.170   3.330
 3420DOPG   C1A62897  20.410  27.230   4.000
 3420DOPG   D2A62898  20.660  26.980   4.280
 3420DOPG   C3A62899  20.600  26.950   4.720
 3420DOPG   C4A62900  20.380  26.780   5.060
 3420DOPG   C1B62901  20.870  27.030   3.700
 3420DOPG   D2B62902  21.140  27.010   4.010
 3420DOPG   C3B62903  21.090  26.730   4.400
 3420DOPG   C4B62904  21.050  26.660   4.770
 3421DOPG   GL062905  17.000  23.240  15.390
 3421DOPG   PO462906  16.630  23.110  15.110
 3421DOPG   GL162907  16.450  23.210  15.440
 3421DOPG   GL262908  16.490  23.450  15.470
 3421DOPG   C1A62909  16.470  23.160  15.870
 3421DOPG   D2A62910  16.510  23.060  16.290
 3421DOPG   C3A62911  16.520  23.530  16.470
 3421DOPG   C4A62912  16.920  23.880  16.400
 3421DOPG   C1B62913  16.160  23.770  15.370
 3421DOPG   D2B62914  15.790  23.670  15.520
 3421DOPG   C3B62915  15.440  23.900  15.390
 3421DOPG   C4B62916  15.010  23.930  15.260
 3422DOPG   GL062917  21.140  14.660  14.350
 3422DOPG   PO462918  20.760  14.810  14.410
 3422DOPG   GL162919  20.600  15.180  14.210
 3422DOPG   GL262920  20.330  15.400  14.360
 3422DOPG   C1A62921  20.700  15.560  13.980
 3422DOPG   D2A62922  20.930  15.800  13.820
 3422DOPG   C3A62923  20.990  16.200  13.870
 3422DOPG   C4A62924  20.780  16.620  13.770
 3422DOPG   C1B62925  20.090  15.510  13.960
 3422DOPG   D2B62926  19.930  15.900  13.740
 3422DOPG   C3B62927  19.660  15.910  13.390
 3422DOPG   C4B62928  19.360  15.890  13.110
 3423DOPG   GL062929  21.140  22.730  12.450
 3423DOPG   PO462930  21.530  22.710  12.180
 3423DOPG   GL162931  21.700  22.650  11.790
 3423DOPG   GL262932  21.580  22.410  11.680
 3423DOPG   C1A62933  22.020  22.560  11.480
 3423DOPG   D2A62934  22.280  22.570  11.100
 3423DOPG   C3A62935  22.100  22.720  10.640
 3423DOPG   C4A62936  21.760  22.650  10.390
 3423DOPG   C1B62937  22.010  22.180  11.840
 3423DOPG   D2B62938  22.320  21.870  11.920
 3423DOPG   C3B62939  22.650  21.920  12.190
 3423DOPG   C4B62940  23.070  21.760  12.100
 3424DOPG   GL062941   7.500  14.750  15.640
 3424DOPG   PO462942   7.390  14.720  16.150
 3424DOPG   GL162943   7.780  14.960  16.350
 3424DOPG   GL262944   7.890  14.870  16.630
 3424DOPG   C1A62945   8.200  15.190  16.270
 3424DOPG   D2A62946   8.380  15.260  15.930
 3424DOPG   C3A62947   8.580  15.560  15.780
 3424DOPG   C4A62948   8.780  15.730  15.330
 3424DOPG   C1B62949   8.220  14.720  16.480
 3424DOPG   D2B62950   8.420  14.310  16.300
 3424DOPG   C3B62951   8.630  14.360  15.970
 3424DOPG   C4B62952   9.010  14.510  15.960
 3425DOPG   GL062953  15.140  28.730  12.780
 3425DOPG   PO462954  15.180  29.130  12.980
 3425DOPG   GL162955  14.780  29.440  13.150
 3425DOPG   GL262956  14.720  29.300  13.430
 3425DOPG   C1A62957  14.530  29.790  13.250
 3425DOPG   D2A62958  14.640  30.200  13.520
 3425DOPG   C3A62959  14.330  30.380  13.770
 3425DOPG   C4A62960  14.320  30.500  14.200
 3425DOPG   C1B62961  14.440  29.600  13.800
 3425DOPG   D2B62962  14.170  29.910  13.930
 3425DOPG   C3B62963  14.550  30.090  14.090
 3425DOPG   C4B62964  14.820  30.350  14.340
 3426DOPG   GL062965  12.170  19.690   8.540
 3426DOPG   PO462966  12.480  19.960   8.800
 3426DOPG   GL162967  12.730  19.820   9.160
 3426DOPG   GL262968  12.770  19.500   9.290
 3426DOPG   C1A62969  12.960  19.770   9.610
 3426DOPG   D2A62970  13.240  19.570   9.990
 3426DOPG   C3A62971  13.410  19.690  10.420
 3426DOPG   C4A62972  13.780  19.580  10.660
 3426DOPG   C1B62973  13.120  19.310   9.410
 3426DOPG   D2B62974  13.500  19.230   9.740
 3426DOPG   C3B62975  13.430  18.830  10.010
 3426DOPG   C4B62976  13.770  18.790  10.340
 3427DOPG   GL062977  17.730  18.190  14.640
 3427DOPG   PO462978  17.530  17.900  14.420
 3427DOPG   GL162979  17.510  17.650  14.770
 3427DOPG   GL262980  17.530  17.730  15.070
 3427DOPG   C1A62981  17.460  17.180  14.950
 3427DOPG   D2A62982  17.740  16.860  15.050
 3427DOPG   C3A62983  18.160  16.700  14.880
 3427DOPG   C4A62984  18.620  16.460  14.930
 3427DOPG   C1B62985  17.250  17.490  15.350
 3427DOPG   D2B62986  17.380  17.400  15.830
 3427DOPG   C3B62987  17.780  17.440  16.030
 3427DOPG   C4B62988  18.020  17.820  15.980
 3428DOPG   GL062989  24.900  30.500   7.240
 3428DOPG   PO462990  24.810  30.880   7.390
 3428DOPG   GL162991  24.610  30.560   7.700
 3428DOPG   GL262992  24.330  30.670   7.840
 3428DOPG   C1A62993  24.690  30.300   8.070
 3428DOPG   D2A62994  24.450  29.940   8.300
 3428DOPG   C3A62995  24.560  29.550   8.030
 3428DOPG   C4A62996  24.810  29.210   8.060
 3428DOPG   C1B62997  24.150  30.480   8.180
 3428DOPG   D2B62998  23.780  30.520   8.380
 3428DOPG   C3B62999  23.510  30.580   8.700
 3428DOPG   C4B63000  23.120  30.500   8.780
 3429DOPG   GL063001   4.890  19.650  13.790
 3429DOPG   PO463002   5.190  19.890  13.700
 3429DOPG   GL163003   5.570  19.950  13.830
 3429DOPG   GL263004   5.690  20.340  13.670
 3429DOPG   C1A63005   5.930  20.030  14.070
 3429DOPG   D2A63006   6.260  19.990  14.380
 3429DOPG   C3A63007   6.390  20.140  14.790
 3429DOPG   C4A63008   6.400  20.130  15.170
 3429DOPG   C1B63009   5.970  20.570  13.630
 3429DOPG   D2B63010   6.370  20.770  13.620
 3429DOPG   C3B63011   6.770  20.540  13.780
 3429DOPG   C4B63012   7.210  20.430  13.810
 3430DOPG   GL063013  14.200  20.140  12.950
 3430DOPG   PO463014  14.120  20.270  12.500
 3430DOPG   GL163015  13.860  20.450  12.150
 3430DOPG   GL263016  13.910  20.420  11.810
 3430DOPG   C1A63017  13.500  20.620  12.020
 3430DOPG   D2A63018  13.430  20.970  11.740
 3430DOPG   C3A63019  12.960  21.060  11.610
 3430DOPG   C4A63020  12.620  20.920  11.320
 3430DOPG   C1B63021  13.610  20.530  11.530
 3430DOPG   D2B63022  13.570  20.490  11.010
 3430DOPG   C3B63023  13.490  20.900  10.850
 3430DOPG   C4B63024  13.560  21.020  10.420
 3431DOPG   GL063025  22.670  22.180  17.900
 3431DOPG   PO463026  22.800  22.330  18.270
 3431DOPG   GL163027  22.270  22.230  18.280
 3431DOPG   GL263028  22.150  21.870  18.230
 3431DOPG   C1A63029  21.890  22.490  18.330
 3431DOPG   D2A63030  21.550  22.520  18.070
 3431DOPG   C3A63031  21.260  22.230  17.890
 3431DOPG   C4A63032  20.800  22.050  18.020
 3431DOPG   C1B63033  21.970  22.200  17.860
 3431DOPG   D2B63034  21.750  22.300  17.350
 3431DOPG   C3B63035  21.420  22.400  17.110
 3431DOPG   C4B63036  21.090  22.330  17.020
 3432DOPG   GL063037  17.100  24.810  12.220
 3432DOPG   PO463038  17.170  25.230  12.330
 3432DOPG   GL163039  17.360  25.580  12.120
 3432DOPG   GL263040  17.470  25.820  12.380
 3432DOPG   C1A63041  17.370  25.940  11.830
 3432DOPG   D2A63042  17.090  26.380  11.860
 3432DOPG   C3A63043  16.950  26.710  11.660
 3432DOPG   C4A63044  16.710  26.980  11.890
 3432DOPG   C1B63045  17.250  26.240  12.280
 3432DOPG   D2B63046  17.020  26.510  12.570
 3432DOPG   C3B63047  17.080  26.860  12.290
 3432DOPG   C4B63048  16.940  27.160  12.290
 3433DOPG   GL063049  20.420  23.550  15.660
 3433DOPG   PO463050  20.540  23.230  15.910
 3433DOPG   GL163051  20.780  23.280  16.210
 3433DOPG   GL263052  20.830  22.930  16.300
 3433DOPG   C1A63053  20.980  23.350  16.570
 3433DOPG   D2A63054  21.230  23.640  16.800
 3433DOPG   C3A63055  21.550  23.870  17.050
 3433DOPG   C4A63056  21.920  24.130  17.020
 3433DOPG   C1B63057  21.010  22.750  16.740
 3433DOPG   D2B63058  21.270  23.000  17.040
 3433DOPG   C3B63059  21.300  23.450  17.260
 3433DOPG   C4B63060  21.300  23.680  17.510
 3434DOPG   GL063061  20.060  22.020  10.540
 3434DOPG   PO463062  20.110  22.350  10.310
 3434DOPG   GL163063  20.060  22.490   9.940
 3434DOPG   GL263064  20.110  22.810   9.940
 3434DOPG   C1A63065  20.200  22.430   9.520
 3434DOPG   D2A63066  20.300  22.600   9.110
 3434DOPG   C3A63067  20.190  23.040   8.880
 3434DOPG   C4A63068  19.910  23.090   8.560
 3434DOPG   C1B63069  20.440  23.150   9.940
 3434DOPG   D2B63070  20.470  23.600   9.860
 3434DOPG   C3B63071  20.180  23.690   9.550
 3434DOPG   C4B63072  20.350  23.580   9.070
 3435DOPG   GL063073  19.990  21.740  10.890
 3435DOPG   PO463074  19.650  21.800  10.680
 3435DOPG   GL163075  19.690  21.740  10.240
 3435DOPG   GL263076  19.630  22.120  10.170
 3435DOPG   C1A63077  19.710  21.520   9.780
 3435DOPG   D2A63078  19.730  21.550   9.300
 3435DOPG   C3A63079  19.530  21.230   9.140
 3435DOPG   C4A63080  19.390  21.300   8.720
 3435DOPG   C1B63081  19.760  22.060   9.730
 3435DOPG   D2B63082  19.910  21.980   9.320
 3435DOPG   C3B63083  20.110  22.200   9.010
 3435DOPG   C4B63084  20.530  22.300   8.780
 3436DOPG   GL063085  16.160  28.110  23.270
 3436DOPG   PO463086  16.050  28.070  22.930
 3436DOPG   GL163087  15.990  28.020  22.510
 3436DOPG   GL263088  16.280  27.830  22.460
 3436DOPG   C1A63089  15.890  27.720  22.160
 3436DOPG   D2A63090  16.190  27.570  21.960
 3436DOPG   C3A63091  16.140  27.240  21.720
 3436DOPG   C4A63092  15.890  26.910  21.700
 3436DOPG   C1B63093  16.550  27.880  22.060
 3436DOPG   D2B63094  16.620  27.530  21.770
 3436DOPG   C3B63095  16.410  27.400  21.290
 3436DOPG   C4B63096  16.500  27.390  20.850
 3437DOPG   GL063097  16.310  23.260  11.310
 3437DOPG   PO463098  16.230  23.590  11.170
 3437DOPG   GL163099  16.080  23.740  10.780
 3437DOPG   GL263100  15.840  23.520  10.620
 3437DOPG   C1A63101  15.900  24.040  10.470
 3437DOPG   D2A63102  15.840  24.330  10.160
 3437DOPG   C3A63103  15.950  24.840  10.380
 3437DOPG   C4A63104  16.370  24.990  10.210
 3437DOPG   C1B63105  15.550  23.650  10.350
 3437DOPG   D2B63106  15.320  23.630   9.890
 3437DOPG   C3B63107  15.650  23.600   9.570
 3437DOPG   C4B63108  15.950  23.350   9.330
 3438DOPG   GL063109  14.850  23.060  12.060
 3438DOPG   PO463110  14.870  22.620  11.880
 3438DOPG   GL163111  14.540  22.740  11.840
 3438DOPG   GL263112  14.480  22.650  12.180
 3438DOPG   C1A63113  14.220  23.000  11.820
 3438DOPG   D2A63114  14.250  23.410  11.690
 3438DOPG   C3A63115  13.890  23.660  11.820
 3438DOPG   C4A63116  13.770  24.070  12.110
 3438DOPG   C1B63117  14.080  22.420  11.930
 3438DOPG   D2B63118  13.920  22.210  11.440
 3438DOPG   C3B63119  13.810  22.300  10.980
 3438DOPG   C4B63120  13.610  22.620  10.690
 3439DOPG   GL063121  17.960  22.270   6.030
 3439DOPG   PO463122  17.670  21.910   6.050
 3439DOPG   GL163123  17.650  21.970   6.430
 3439DOPG   GL263124  17.490  22.230   6.500
 3439DOPG   C1A63125  17.650  21.780   6.900
 3439DOPG   D2A63126  17.740  21.490   7.140
 3439DOPG   C3A63127  17.760  21.630   7.570
 3439DOPG   C4A63128  17.810  21.620   7.990
 3439DOPG   C1B63129  17.850  22.360   6.800
 3439DOPG   D2B63130  18.340  22.300   7.000
 3439DOPG   C3B63131  18.400  22.330   7.490
 3439DOPG   C4B63132  18.110  22.470   7.720
 3440DOPG   GL063133  19.310  24.710  13.610
 3440DOPG   PO463134  18.930  24.910  13.760
 3440DOPG   GL163135  18.810  25.320  13.910
 3440DOPG   GL263136  18.570  25.580  13.700
 3440DOPG   C1A63137  18.650  25.640  14.210
 3440DOPG   D2A63138  18.230  25.720  14.490
 3440DOPG   C3A63139  18.100  26.140  14.500
 3440DOPG   C4A63140  17.650  26.180  14.440
 3440DOPG   C1B63141  18.800  25.990  13.680
 3440DOPG   D2B63142  18.700  26.460  13.700
 3440DOPG   C3B63143  18.670  26.750  14.000
 3440DOPG   C4B63144  18.520  27.130  14.200
 3441DOPG   GL063145  17.780  18.960  11.420
 3441DOPG   PO463146  17.450  19.160  11.270
 3441DOPG   GL163147  17.550  18.940  10.790
 3441DOPG   GL263148  17.800  18.710  10.830
 3441DOPG   C1A63149  17.270  18.870  10.490
 3441DOPG   D2A63150  17.200  19.020  10.080
 3441DOPG   C3A63151  17.120  18.730   9.830
 3441DOPG   C4A63152  17.190  18.350   9.750
 3441DOPG   C1B63153  17.810  18.540  10.450
 3441DOPG   D2B63154  17.500  18.630  10.100
 3441DOPG   C3B63155  17.630  18.610   9.760
 3441DOPG   C4B63156  17.890  18.690   9.540
 3442DOPG   GL063157   7.300  28.760  13.850
 3442DOPG   PO463158   7.440  28.330  14.020
 3442DOPG   GL163159   7.850  28.220  14.180
 3442DOPG   GL263160   8.080  28.320  14.040
 3442DOPG   C1A63161   8.150  27.820  14.290
 3442DOPG   D2A63162   8.550  27.560  14.260
 3442DOPG   C3A63163   8.720  27.100  14.440
 3442DOPG   C4A63164   8.900  26.930  14.810
 3442DOPG   C1B63165   8.500  28.180  14.270
 3442DOPG   D2B63166   8.970  28.330  14.210
 3442DOPG   C3B63167   9.150  28.120  13.900
 3442DOPG   C4B63168   9.450  28.150  13.680
 3443DOPG   GL063169  16.020  20.580  11.540
 3443DOPG   PO463170  15.910  20.270  11.270
 3443DOPG   GL163171  15.590  20.330  10.990
 3443DOPG   GL263172  15.640  19.970  10.720
 3443DOPG   C1A63173  15.460  20.500  10.590
 3443DOPG   D2A63174  15.180  20.620  10.290
 3443DOPG   C3A63175  14.750  20.480  10.290
 3443DOPG   C4A63176  14.390  20.320  10.480
 3443DOPG   C1B63177  15.580  19.960  10.340
 3443DOPG   D2B63178  15.460  19.840   9.940
 3443DOPG   C3B63179  15.090  19.850   9.900
 3443DOPG   C4B63180  14.700  19.700   9.640
 3444DOPG   GL063181   6.160  19.240  18.740
 3444DOPG   PO463182   6.130  18.920  18.430
 3444DOPG   GL163183   6.280  18.970  18.030
 3444DOPG   GL263184   6.260  19.180  17.850
 3444DOPG   C1A63185   6.700  18.870  17.930
 3444DOPG   D2A63186   7.050  18.790  17.800
 3444DOPG   C3A63187   7.090  18.420  17.560
 3444DOPG   C4A63188   6.840  18.120  17.400
 3444DOPG   C1B63189   6.590  19.290  18.180
 3444DOPG   D2B63190   7.020  19.170  18.160
 3444DOPG   C3B63191   7.280  19.360  18.330
 3444DOPG   C4B63192   7.720  19.260  18.250
 3445DOPG   GL063193  15.870  22.820  11.700
 3445DOPG   PO463194  15.670  23.240  11.600
 3445DOPG   GL163195  15.740  23.440  11.150
 3445DOPG   GL263196  15.550  23.270  10.950
 3445DOPG   C1A63197  15.530  23.850  10.910
 3445DOPG   D2A63198  15.190  24.050  10.610
 3445DOPG   C3A63199  15.160  24.410  10.560
 3445DOPG   C4A63200  15.480  24.690  10.430
 3445DOPG   C1B63201  15.170  23.630  11.070
 3445DOPG   D2B63202  14.750  23.770  10.970
 3445DOPG   C3B63203  14.610  23.880  10.430
 3445DOPG   C4B63204  14.960  23.910  10.070
 3446DOPG   GL063205  13.080  24.400   7.080
 3446DOPG   PO463206  12.910  24.310   7.480
 3446DOPG   GL163207  12.620  24.560   7.300
 3446DOPG   GL263208  12.760  24.770   7.410
 3446DOPG   C1A63209  12.360  24.880   7.050
 3446DOPG   D2A63210  12.250  24.980   6.670
 3446DOPG   C3A63211  11.940  24.790   6.510
 3446DOPG   C4A63212  11.710  24.590   6.390
 3446DOPG   C1B63213  12.950  25.070   7.140
 3446DOPG   D2B63214  12.950  25.240   6.720
 3446DOPG   C3B63215  12.710  24.910   6.610
 3446DOPG   C4B63216  12.570  24.520   6.690
 3447DOPG   GL063217  16.380  19.580  15.120
 3447DOPG   PO463218  16.710  19.430  15.380
 3447DOPG   GL163219  16.570  19.370  15.800
 3447DOPG   GL263220  16.680  19.590  15.990
 3447DOPG   C1A63221  16.420  19.170  16.170
 3447DOPG   D2A63222  16.230  18.930  16.490
 3447DOPG   C3A63223  16.410  18.740  16.850
 3447DOPG   C4A63224  16.480  18.370  17.140
 3447DOPG   C1B63225  16.580  19.730  16.370
 3447DOPG   D2B63226  16.460  19.820  16.810
 3447DOPG   C3B63227  16.680  19.940  17.190
 3447DOPG   C4B63228  16.860  20.210  17.590
 3448DOPG   GL063229  14.790  21.010  14.030
 3448DOPG   PO463230  14.360  21.190  13.830
 3448DOPG   GL163231  14.110  21.530  13.980
 3448DOPG   GL263232  14.340  21.770  14.000
 3448DOPG   C1A63233  13.850  21.860  14.110
 3448DOPG   D2A63234  13.770  22.300  14.010
 3448DOPG   C3A63235  13.820  22.590  14.360
 3448DOPG   C4A63236  13.540  22.640  14.660
 3448DOPG   C1B63237  14.260  21.690  14.480
 3448DOPG   D2B63238  14.500  21.630  14.870
 3448DOPG   C3B63239  14.370  21.330  15.200
 3448DOPG   C4B63240  14.130  21.350  15.490
 3449DOPG   GL063241   5.470  24.670  10.360
 3449DOPG   PO463242   5.600  25.100  10.350
 3449DOPG   GL163243   5.890  24.880  10.180
 3449DOPG   GL263244   5.930  24.740   9.950
 3449DOPG   C1A63245   6.350  24.800  10.220
 3449DOPG   D2A63246   6.720  24.750  10.380
 3449DOPG   C3A63247   6.990  24.610  10.130
 3449DOPG   C4A63248   7.110  24.410   9.780
 3449DOPG   C1B63249   6.050  24.410  10.110
 3449DOPG   D2B63250   6.140  24.080  10.340
 3449DOPG   C3B63251   6.020  24.060  10.660
 3449DOPG   C4B63252   5.800  23.910  11.040
 3450DOPG   GL063253   7.040  16.860  12.890
 3450DOPG   PO463254   7.430  17.180  12.890
 3450DOPG   GL163255   7.490  17.450  13.030
 3450DOPG   GL263256   7.380  17.770  12.920
 3450DOPG   C1A63257   7.910  17.700  13.120
 3450DOPG   D2A63258   8.280  18.030  12.990
 3450DOPG   C3A63259   8.520  18.000  12.530
 3450DOPG   C4A63260   8.880  18.270  12.440
 3450DOPG   C1B63261   7.690  18.010  12.820
 3450DOPG   D2B63262   7.970  18.370  12.840
 3450DOPG   C3B63263   7.990  18.750  12.940
 3450DOPG   C4B63264   8.300  18.980  12.730
 3451DOPG   GL063265  19.050  24.500  11.310
 3451DOPG   PO463266  18.890  24.770  11.020
 3451DOPG   GL163267  19.110  25.040  10.740
 3451DOPG   GL263268  19.470  25.250  10.910
 3451DOPG   C1A63269  19.470  25.190  10.460
 3451DOPG   D2A63270  19.720  25.480  10.260
 3451DOPG   C3A63271  20.050  25.240  10.010
 3451DOPG   C4A63272  20.460  25.320  10.050
 3451DOPG   C1B63273  19.550  25.590  10.770
 3451DOPG   D2B63274  19.900  25.800  10.970
 3451DOPG   C3B63275  20.220  26.170  11.060
 3451DOPG   C4B63276  20.550  26.160  11.270
 3452DOPG   GL063277  11.370  31.230  16.160
 3452DOPG   PO463278  11.200  30.730  16.070
 3452DOPG   GL163279  11.390  30.370  15.780
 3452DOPG   GL263280  11.200  30.260  15.600
 3452DOPG   C1A63281  11.660  30.100  16.050
 3452DOPG   D2A63282  12.020  30.060  15.940
 3452DOPG   C3A63283  12.400  30.320  16.170
 3452DOPG   C4A63284  12.730  30.300  16.400
 3452DOPG   C1B63285  11.430  29.890  15.580
 3452DOPG   D2B63286  11.600  29.590  15.700
 3452DOPG   C3B63287  11.470  29.410  16.050
 3452DOPG   C4B63288  11.700  29.160  16.430
 3453DOPG   GL063289  18.540  25.170  14.380
 3453DOPG   PO463290  18.500  24.840  14.770
 3453DOPG   GL163291  18.490  25.270  15.010
 3453DOPG   GL263292  18.640  25.470  14.830
 3453DOPG   C1A63293  18.650  25.460  15.340
 3453DOPG   D2A63294  18.670  25.900  15.460
 3453DOPG   C3A63295  18.360  26.140  15.780
 3453DOPG   C4A63296  18.310  26.390  16.130
 3453DOPG   C1B63297  19.040  25.700  15.110
 3453DOPG   D2B63298  19.440  25.980  15.390
 3453DOPG   C3B63299  19.350  26.460  15.490
 3453DOPG   C4B63300  19.110  26.730  15.420
 3454DOPG   GL063301  13.940  21.360  13.520
 3454DOPG   PO463302  14.120  21.380  13.140
 3454DOPG   GL163303  13.770  21.690  13.220
 3454DOPG   GL263304  13.640  21.400  13.160
 3454DOPG   C1A63305  13.360  21.830  13.320
 3454DOPG   D2A63306  12.920  22.120  13.210
 3454DOPG   C3A63307  12.520  21.950  13.270
 3454DOPG   C4A63308  12.340  21.520  13.190
 3454DOPG   C1B63309  13.270  21.250  12.900
 3454DOPG   D2B63310  12.970  21.440  12.580
 3454DOPG   C3B63311  12.760  21.450  12.170
 3454DOPG   C4B63312  12.370  21.180  11.800
 3455DOPG   GL063313  20.650  24.790  12.810
 3455DOPG   PO463314  20.770  24.750  12.320
 3455DOPG   GL163315  21.000  24.750  11.810
 3455DOPG   GL263316  21.010  24.560  11.580
 3455DOPG   C1A63317  21.100  25.070  11.520
 3455DOPG   D2A63318  21.150  25.250  11.080
 3455DOPG   C3A63319  21.030  25.520  10.980
 3455DOPG   C4A63320  20.760  25.660  10.600
 3455DOPG   C1B63321  21.500  24.730  11.610
 3455DOPG   D2B63322  21.900  24.660  11.760
 3455DOPG   C3B63323  22.000  24.300  11.480
 3455DOPG   C4B63324  22.100  23.870  11.370
 3456DOPG   GL063325  12.130  26.310  15.600
 3456DOPG   PO463326  11.990  26.000  15.950
 3456DOPG   GL163327  11.810  26.370  15.980
 3456DOPG   GL263328  12.020  26.610  16.080
 3456DOPG   C1A63329  11.370  26.480  16.140
 3456DOPG   D2A63330  11.110  26.740  16.150
 3456DOPG   C3A63331  10.870  27.050  16.420
 3456DOPG   C4A63332  10.910  27.480  16.240
 3456DOPG   C1B63333  11.720  26.900  16.230
 3456DOPG   D2B63334  11.340  27.190  16.230
 3456DOPG   C3B63335  11.280  27.290  16.700
 3456DOPG   C4B63336  10.920  27.370  16.800
 3457DOPG   GL063337  21.020  20.130  13.450
 3457DOPG   PO463338  20.640  19.900  13.330
 3457DOPG   GL163339  20.920  19.680  13.090
 3457DOPG   GL263340  20.810  19.380  12.880
 3457DOPG   C1A63341  21.390  19.430  13.000
 3457DOPG   D2A63342  21.820  19.550  12.900
 3457DOPG   C3A63343  21.920  19.280  12.540
 3457DOPG   C4A63344  21.840  18.940  12.360
 3457DOPG   C1B63345  21.140  19.230  12.620
 3457DOPG   D2B63346  21.380  19.270  12.260
 3457DOPG   C3B63347  21.550  19.160  11.950
 3457DOPG   C4B63348  21.900  18.790  11.770
 3458DOPG   GL063349  11.960   9.970   8.250
 3458DOPG   PO463350  12.160   9.980   8.620
 3458DOPG   GL163351  12.580  10.230   8.680
 3458DOPG   GL263352  12.870  10.210   8.510
 3458DOPG   C1A63353  12.770  10.500   8.860
 3458DOPG   D2A63354  13.160  10.730   8.920
 3458DOPG   C3A63355  13.120  11.200   8.930
 3458DOPG   C4A63356  13.040  11.540   8.660
 3458DOPG   C1B63357  13.060  10.540   8.360
 3458DOPG   D2B63358  13.350  10.770   8.140
 3458DOPG   C3B63359  13.420  11.230   8.140
 3458DOPG   C4B63360  13.460  11.590   8.410
 3459DOPG   GL063361   6.800  18.050  20.110
 3459DOPG   PO463362   6.690  18.360  19.800
 3459DOPG   GL163363   6.910  18.390  19.540
 3459DOPG   GL263364   6.900  18.280  19.220
 3459DOPG   C1A63365   7.230  18.650  19.290
 3459DOPG   D2A63366   7.470  18.880  18.990
 3459DOPG   C3A63367   7.190  18.950  18.660
 3459DOPG   C4A63368   6.810  18.890  18.600
 3459DOPG   C1B63369   7.130  18.510  18.800
 3459DOPG   D2B63370   7.510  18.460  18.580
 3459DOPG   C3B63371   7.880  18.770  18.400
 3459DOPG   C4B63372   8.190  18.910  18.450
 3460DOPG   GL063373  20.400  26.460  13.090
 3460DOPG   PO463374  20.710  26.180  13.190
 3460DOPG   GL163375  20.910  26.580  13.010
 3460DOPG   GL263376  20.820  26.840  13.200
 3460DOPG   C1A63377  20.810  26.990  12.760
 3460DOPG   D2A63378  20.530  27.260  12.540
 3460DOPG   C3A63379  20.770  27.450  12.200
 3460DOPG   C4A63380  20.520  27.520  11.960
 3460DOPG   C1B63381  21.140  26.740  13.440
 3460DOPG   D2B63382  21.600  26.690  13.420
 3460DOPG   C3B63383  21.830  26.410  13.650
 3460DOPG   C4B63384  21.890  25.940  13.810
 3461DOPG   GL063385   9.610  16.580  12.400
 3461DOPG   PO463386   9.780  16.340  12.750
 3461DOPG   GL163387   9.610  16.480  13.240
 3461DOPG   GL263388   9.540  16.800  13.210
 3461DOPG   C1A63389   9.760  16.580  13.730
 3461DOPG   D2A63390  10.040  16.710  13.840
 3461DOPG   C3A63391  10.430  16.960  13.690
 3461DOPG   C4A63392  10.760  17.030  13.450
 3461DOPG   C1B63393   9.540  17.060  13.580
 3461DOPG   D2B63394   9.550  17.210  13.880
 3461DOPG   C3B63395   9.800  17.020  14.140
 3461DOPG   C4B63396  10.070  16.820  14.340
 3462DOPG   GL063397  18.000  18.900  14.490
 3462DOPG   PO463398  18.140  18.540  14.580
 3462DOPG   GL163399  18.420  18.190  14.740
 3462DOPG   GL263400  18.300  18.220  15.110
 3462DOPG   C1A63401  18.370  17.740  14.750
 3462DOPG   D2A63402  18.630  17.380  14.690
 3462DOPG   C3A63403  18.710  17.070  15.060
 3462DOPG   C4A63404  18.500  16.800  15.400
 3462DOPG   C1B63405  18.580  18.020  15.150
 3462DOPG   D2B63406  18.810  17.630  15.210
 3462DOPG   C3B63407  18.690  17.340  15.510
 3462DOPG   C4B63408  18.930  17.130  15.750
 3463DOPG   GL063409  13.190  23.930  17.040
 3463DOPG   PO463410  13.300  23.600  17.200
 3463DOPG   GL163411  13.570  23.270  17.000
 3463DOPG   GL263412  13.430  22.970  17.030
 3463DOPG   C1A63413  13.870  23.280  16.650
 3463DOPG   D2A63414  14.140  23.610  16.670
 3463DOPG   C3A63415  14.150  23.950  16.390
 3463DOPG   C4A63416  14.430  24.130  16.130
 3463DOPG   C1B63417  13.810  22.740  17.010
 3463DOPG   D2B63418  14.300  22.650  16.960
 3463DOPG   C3B63419  14.340  22.440  16.580
 3463DOPG   C4B63420  14.510  22.270  16.180
 3464DOPG   GL063421  20.110  33.180   7.730
 3464DOPG   PO463422  20.340  33.080   8.120
 3464DOPG   GL163423  20.520  32.670   8.100
 3464DOPG   GL263424  20.470  32.520   8.450
 3464DOPG   C1A63425  20.410  32.190   8.070
 3464DOPG   D2A63426  20.290  31.840   8.310
 3464DOPG   C3A63427  20.340  31.390   8.200
 3464DOPG   C4A63428  20.350  30.890   8.380
 3464DOPG   C1B63429  20.540  32.120   8.730
 3464DOPG   D2B63430  20.790  31.910   9.070
 3464DOPG   C3B63431  20.830  31.440   9.060
 3464DOPG   C4B63432  21.040  31.040   9.240
 3465DOPG   GL063433  10.340  11.220  11.200
 3465DOPG   PO463434  10.360  11.340  10.770
 3465DOPG   GL163435  10.540  11.670  10.960
 3465DOPG   GL263436  10.710  11.580  11.230
 3465DOPG   C1A63437  10.710  12.100  10.970
 3465DOPG   D2A63438  10.940  12.400  10.790
 3465DOPG   C3A63439  10.990  12.380  10.380
 3465DOPG   C4A63440  11.240  12.240  10.020
 3465DOPG   C1B63441  11.010  11.750  10.850
 3465DOPG   D2B63442  11.270  11.920  10.480
 3465DOPG   C3B63443  11.600  12.280  10.460
 3465DOPG   C4B63444  11.810  12.670  10.570
 3466DOPG   GL063445  19.110  24.040  10.560
 3466DOPG   PO463446  18.860  24.270  10.880
 3466DOPG   GL163447  19.030  24.590  10.530
 3466DOPG   GL263448  19.260  24.620  10.330
 3466DOPG   C1A63449  18.930  24.980  10.260
 3466DOPG   D2A63450  18.990  25.190   9.940
 3466DOPG   C3A63451  19.380  25.410   9.910
 3466DOPG   C4A63452  19.780  25.670   9.730
 3466DOPG   C1B63453  19.560  24.910  10.070
 3466DOPG   D2B63454  19.810  24.870   9.760
 3466DOPG   C3B63455  19.740  24.860   9.330
 3466DOPG   C4B63456  19.860  25.030   8.920
 3467DOPG   GL063457  18.430  18.630  11.750
 3467DOPG   PO463458  18.770  18.620  12.030
 3467DOPG   GL163459  18.670  18.200  11.730
 3467DOPG   GL263460  18.640  17.870  11.820
 3467DOPG   C1A63461  18.660  18.150  11.290
 3467DOPG   D2A63462  18.520  18.050  10.810
 3467DOPG   C3A63463  18.280  17.800  10.650
 3467DOPG   C4A63464  18.520  17.510  10.330
 3467DOPG   C1B63465  18.290  17.570  11.960
 3467DOPG   D2B63466  18.040  17.280  12.170
 3467DOPG   C3B63467  18.090  16.810  12.320
 3467DOPG   C4B63468  17.780  16.600  12.090
 3468DOPG   GL063469   7.830  17.670  21.400
 3468DOPG   PO463470   7.770  17.650  20.990
 3468DOPG   GL163471   8.050  17.750  20.680
 3468DOPG   GL263472   7.890  17.780  20.360
 3468DOPG   C1A63473   8.490  17.650  20.560
 3468DOPG   D2A63474   8.770  17.980  20.540
 3468DOPG   C3A63475   9.100  18.060  20.460
 3468DOPG   C4A63476   9.280  18.050  20.110
 3468DOPG   C1B63477   8.270  18.090  20.270
 3468DOPG   D2B63478   8.640  18.130  19.930
 3468DOPG   C3B63479   8.960  18.450  20.130
 3468DOPG   C4B63480   9.410  18.600  19.990
 3469DOPG   GL063481  13.360  23.430   1.560
 3469DOPG   PO463482  13.610  23.350   1.820
 3469DOPG   GL163483  13.600  23.030   2.070
 3469DOPG   GL263484  13.400  23.060   2.270
 3469DOPG   C1A63485  13.870  22.900   2.510
 3469DOPG   D2A63486  14.260  22.930   2.690
 3469DOPG   C3A63487  14.360  23.010   3.210
 3469DOPG   C4A63488  14.330  23.100   3.590
 3469DOPG   C1B63489  13.400  22.990   2.730
 3469DOPG   D2B63490  13.410  22.670   3.000
 3469DOPG   C3B63491  13.280  22.490   3.260
 3469DOPG   C4B63492  12.860  22.470   3.290
 3470DOPG   GL063493   9.020  24.340   4.010
 3470DOPG   PO463494   9.120  23.960   4.290
 3470DOPG   GL163495   9.550  23.970   4.580
 3470DOPG   GL263496   9.530  24.210   4.880
 3470DOPG   C1A63497   9.680  23.700   4.920
 3470DOPG   D2A63498   9.720  23.450   5.250
 3470DOPG   C3A63499   9.910  23.540   5.710
 3470DOPG   C4A63500  10.370  23.500   5.790
 3470DOPG   C1B63501   9.280  23.990   5.240
 3470DOPG   D2B63502   9.430  23.820   5.590
 3470DOPG   C3B63503   9.640  23.970   5.970
 3470DOPG   C4B63504   9.940  23.690   6.270
 3471DOPG   GL063505  19.890  26.550   8.440
 3471DOPG   PO463506  20.110  26.550   8.040
 3471DOPG   GL163507  20.150  26.150   8.360
 3471DOPG   GL263508  20.340  25.950   8.390
 3471DOPG   C1A63509  19.950  26.010   8.720
 3471DOPG   D2A63510  19.880  26.000   9.280
 3471DOPG   C3A63511  20.170  26.140   9.460
 3471DOPG   C4A63512  20.560  26.330   9.400
 3471DOPG   C1B63513  20.440  26.200   8.820
 3471DOPG   D2B63514  20.750  26.420   8.950
 3471DOPG   C3B63515  20.970  26.160   9.150
 3471DOPG   C4B63516  21.360  26.230   9.270
 3472DOPG   GL063517  15.850  31.490   6.870
 3472DOPG   PO463518  16.180  31.270   6.750
 3472DOPG   GL163519  16.440  30.880   6.830
 3472DOPG   GL263520  16.430  30.820   6.540
 3472DOPG   C1A63521  16.450  30.650   7.180
 3472DOPG   D2A63522  16.300  30.310   7.410
 3472DOPG   C3A63523  16.410  30.280   7.800
 3472DOPG   C4A63524  16.560  29.980   8.110
 3472DOPG   C1B63525  16.200  30.400   6.530
 3472DOPG   D2B63526  15.740  30.350   6.330
 3472DOPG   C3B63527  15.420  30.080   6.350
 3472DOPG   C4B63528  15.450  29.620   6.120
 3473DOPG   GL063529  19.310  25.210  13.840
 3473DOPG   PO463530  19.540  25.330  13.540
 3473DOPG   GL163531  19.470  25.680  13.810
 3473DOPG   GL263532  19.120  25.730  14.000
 3473DOPG   C1A63533  19.500  25.880  14.220
 3473DOPG   D2A63534  19.420  26.240  14.500
 3473DOPG   C3A63535  19.170  26.230  14.870
 3473DOPG   C4A63536  18.980  26.230  15.250
 3473DOPG   C1B63537  19.050  26.110  14.130
 3473DOPG   D2B63538  19.220  26.490  14.060
 3473DOPG   C3B63539  19.090  26.730  13.740
 3473DOPG   C4B63540  19.220  27.010  13.320
 3474DOPG   GL063541  22.450  10.800   9.150
 3474DOPG   PO463542  22.170  11.080   9.020
 3474DOPG   GL163543  22.170  11.460   9.360
 3474DOPG   GL263544  22.190  11.400   9.610
 3474DOPG   C1A63545  21.850  11.730   9.320
 3474DOPG   D2A63546  21.720  11.950   9.560
 3474DOPG   C3A63547  21.850  11.960  10.020
 3474DOPG   C4A63548  22.200  12.020  10.240
 3474DOPG   C1B63549  21.810  11.490   9.870
 3474DOPG   D2B63550  21.400  11.580   9.940
 3474DOPG   C3B63551  21.350  12.060  10.050
 3474DOPG   C4B63552  21.360  12.550  10.240
 3475DOPG   GL063553  15.610  19.000   7.610
 3475DOPG   PO463554  15.200  18.870   7.730
 3475DOPG   GL163555  15.020  19.260   7.920
 3475DOPG   GL263556  14.800  19.480   8.090
 3475DOPG   C1A63557  15.370  19.250   8.390
 3475DOPG   D2A63558  15.700  19.420   8.690
 3475DOPG   C3A63559  15.380  19.300   9.000
 3475DOPG   C4A63560  15.470  19.190   9.320
 3475DOPG   C1B63561  15.360  19.640   8.120
 3475DOPG   D2B63562  15.700  19.710   8.320
 3475DOPG   C3B63563  15.700  20.010   8.570
 3475DOPG   C4B63564  15.600  20.250   8.870
 3476DOPG   GL063565  14.750  11.340   4.020
 3476DOPG   PO463566  14.640  11.820   4.150
 3476DOPG   GL163567  14.940  12.010   4.480
 3476DOPG   GL263568  14.680  11.990   4.600
 3476DOPG   C1A63569  14.990  12.360   4.500
 3476DOPG   D2A63570  15.370  12.650   4.500
 3476DOPG   C3A63571  15.610  12.540   4.210
 3476DOPG   C4A63572  15.860  12.700   3.810
 3476DOPG   C1B63573  14.700  12.150   4.970
 3476DOPG   D2B63574  14.840  12.530   5.330
 3476DOPG   C3B63575  15.250  12.630   5.660
 3476DOPG   C4B63576  15.680  12.830   5.550
 3477DOPG   GL063577   5.350  22.050   9.480
 3477DOPG   PO463578   5.170  21.700   9.640
 3477DOPG   GL163579   5.560  21.690   9.770
 3477DOPG   GL263580   5.580  21.750  10.050
 3477DOPG   C1A63581   5.830  22.020   9.690
 3477DOPG   D2A63582   6.150  21.970   9.550
 3477DOPG   C3A63583   6.520  21.860   9.700
 3477DOPG   C4A63584   6.820  21.670  10.010
 3477DOPG   C1B63585   5.930  21.570  10.040
 3477DOPG   D2B63586   6.060  21.500   9.670
 3477DOPG   C3B63587   6.370  21.090   9.530
 3477DOPG   C4B63588   6.290  20.760   9.300
 3478DOPG   GL063589  17.710  24.190  14.220
 3478DOPG   PO463590  17.850  24.510  14.460
 3478DOPG   GL163591  17.490  24.700  14.680
 3478DOPG   GL263592  17.520  24.590  15.040
 3478DOPG   C1A63593  17.440  25.110  14.780
 3478DOPG   D2A63594  17.470  25.560  14.860
 3478DOPG   C3A63595  17.340  25.910  14.660
 3478DOPG   C4A63596  17.180  26.170  14.320
 3478DOPG   C1B63597  17.640  24.820  15.440
 3478DOPG   D2B63598  17.860  24.840  15.790
 3478DOPG   C3B63599  18.060  24.900  16.180
 3478DOPG   C4B63600  18.280  25.250  16.420
 3479DOPG   GL063601  17.930  21.700  10.410
 3479DOPG   PO463602  18.020  21.970   9.960
 3479DOPG   GL163603  17.980  22.100   9.500
 3479DOPG   GL263604  17.980  22.330   9.310
 3479DOPG   C1A63605  17.840  21.970   9.040
 3479DOPG   D2A63606  17.700  21.740   8.720
 3479DOPG   C3A63607  17.440  21.600   8.430
 3479DOPG   C4A63608  17.550  21.220   8.090
 3479DOPG   C1B63609  18.260  22.180   8.920
 3479DOPG   D2B63610  18.700  22.230   8.670
 3479DOPG   C3B63611  18.780  21.830   8.430
 3479DOPG   C4B63612  18.610  21.630   8.030
 3480DOPG   GL063613  10.690  17.240  12.420
 3480DOPG   PO463614  10.850  17.410  12.780
 3480DOPG   GL163615  10.680  17.960  12.880
 3480DOPG   GL263616  10.670  18.230  12.790
 3480DOPG   C1A63617  10.760  18.160  13.320
 3480DOPG   D2A63618  10.650  18.070  13.680
 3480DOPG   C3A63619  10.770  17.980  14.110
 3480DOPG   C4A63620  10.820  18.190  14.490
 3480DOPG   C1B63621  10.500  18.520  12.980
 3480DOPG   D2B63622  10.390  18.810  13.330
 3480DOPG   C3B63623  10.410  18.690  13.730
 3480DOPG   C4B63624  10.440  18.350  14.130
 3481DOPG   GL063625  21.070  23.340  12.700
 3481DOPG   PO463626  21.420  23.180  12.490
 3481DOPG   GL163627  21.800  23.380  12.330
 3481DOPG   GL263628  21.770  23.210  12.020
 3481DOPG   C1A63629  22.170  23.520  12.110
 3481DOPG   D2A63630  22.510  23.640  11.990
 3481DOPG   C3A63631  22.260  24.100  11.820
 3481DOPG   C4A63632  22.520  24.450  11.690
 3481DOPG   C1B63633  22.170  23.000  11.890
 3481DOPG   D2B63634  22.610  23.190  11.980
 3481DOPG   C3B63635  22.880  23.510  11.680
 3481DOPG   C4B63636  23.290  23.480  11.580
 3482DOPG   GL063637  15.990  19.910  15.070
 3482DOPG   PO463638  15.880  19.410  15.080
 3482DOPG   GL163639  15.630  19.260  15.380
 3482DOPG   GL263640  15.480  19.470  15.470
 3482DOPG   C1A63641  15.620  19.020  15.790
 3482DOPG   D2A63642  15.290  18.970  16.100
 3482DOPG   C3A63643  15.330  19.230  16.430
 3482DOPG   C4A63644  15.110  19.630  16.500
 3482DOPG   C1B63645  15.280  19.390  15.820
 3482DOPG   D2B63646  14.890  19.320  16.120
 3482DOPG   C3B63647  14.830  18.880  16.210
 3482DOPG   C4B63648  14.420  18.580  16.140
 3483DOPG   GL063649  19.920  20.620  14.940
 3483DOPG   PO463650  19.870  20.730  15.330
 3483DOPG   GL163651  19.790  20.460  15.670
 3483DOPG   GL263652  19.900  20.120  15.680
 3483DOPG   C1A63653  20.020  20.290  16.140
 3483DOPG   D2A63654  20.290  20.190  16.430
 3483DOPG   C3A63655  20.240  20.500  16.790
 3483DOPG   C4A63656  20.480  20.680  17.100
 3483DOPG   C1B63657  20.200  19.870  15.940
 3483DOPG   D2B63658  20.590  19.950  16.070
 3483DOPG   C3B63659  20.970  19.820  15.840
 3483DOPG   C4B63660  21.280  19.600  15.760
 3484DOPG   GL063661  13.830  16.720  23.390
 3484DOPG   PO463662  13.490  16.800  23.550
 3484DOPG   GL163663  13.530  16.700  22.970
 3484DOPG   GL263664  13.570  16.930  22.830
 3484DOPG   C1A63665  13.430  16.450  22.560
 3484DOPG   D2A63666  13.090  16.450  22.230
 3484DOPG   C3A63667  13.210  16.510  21.790
 3484DOPG   C4A63668  13.120  16.750  21.460
 3484DOPG   C1B63669  13.680  16.870  22.450
 3484DOPG   D2B63670  13.990  17.000  22.110
 3484DOPG   C3B63671  13.790  17.120  21.690
 3484DOPG   C4B63672  13.460  17.080  21.330
 3485DOPG   GL063673  20.100  18.990  13.400
 3485DOPG   PO463674  20.400  19.290  13.210
 3485DOPG   GL163675  20.810  19.330  13.370
 3485DOPG   GL263676  20.940  19.580  13.610
 3485DOPG   C1A63677  21.240  19.200  13.430
 3485DOPG   D2A63678  21.690  19.130  13.310
 3485DOPG   C3A63679  21.680  18.980  12.830
 3485DOPG   C4A63680  21.380  18.750  12.590
 3485DOPG   C1B63681  21.350  19.630  13.750
 3485DOPG   D2B63682  21.840  19.500  13.950
 3485DOPG   C3B63683  22.270  19.350  13.910
 3485DOPG   C4B63684  22.700  19.220  13.860
 3486DOPG   GL063685   5.320  26.060  10.580
 3486DOPG   PO463686   5.770  25.890  10.780
 3486DOPG   GL163687   6.150  25.900  10.490
 3486DOPG   GL263688   6.350  26.100  10.530
 3486DOPG   C1A63689   6.430  25.580  10.450
 3486DOPG   D2A63690   6.700  25.410  10.780
 3486DOPG   C3A63691   6.940  25.110  10.800
 3486DOPG   C4A63692   7.050  24.690  10.730
 3486DOPG   C1B63693   6.630  25.950  10.820
 3486DOPG   D2B63694   6.620  25.750  11.160
 3486DOPG   C3B63695   6.510  25.190  11.200
 3486DOPG   C4B63696   6.510  24.910  10.840
 3487DOPG   GL063697  10.040  15.620  11.950
 3487DOPG   PO463698  10.430  15.420  12.230
 3487DOPG   GL163699  10.660  14.940  12.470
 3487DOPG   GL263700  10.860  14.640  12.220
 3487DOPG   C1A63701  11.180  14.890  12.470
 3487DOPG   D2A63702  11.720  14.770  12.390
 3487DOPG   C3A63703  12.070  14.840  12.540
 3487DOPG   C4A63704  12.350  15.070  12.480
 3487DOPG   C1B63705  11.140  14.390  12.460
 3487DOPG   D2B63706  11.500  14.310  12.570
 3487DOPG   C3B63707  11.770  14.440  12.900
 3487DOPG   C4B63708  12.000  14.580  13.360
 3488DOPG   GL063709  20.970  19.750  14.550
 3488DOPG   PO463710  20.590  19.700  14.160
 3488DOPG   GL163711  20.880  19.300  14.060
 3488DOPG   GL263712  20.910  19.030  13.820
 3488DOPG   C1A63713  21.040  18.970  14.330
 3488DOPG   D2A63714  21.300  18.820  14.780
 3488DOPG   C3A63715  21.330  19.110  15.110
 3488DOPG   C4A63716  21.440  19.580  15.230
 3488DOPG   C1B63717  21.350  18.920  13.880
 3488DOPG   D2B63718  21.810  19.000  13.840
 3488DOPG   C3B63719  22.080  18.990  14.160
 3488DOPG   C4B63720  22.080  19.030  14.590
 3489DOPG   GL063721  21.850  29.960   5.370
 3489DOPG   PO463722  22.000  29.640   5.130
 3489DOPG   GL163723  21.780  29.490   5.450
 3489DOPG   GL263724  21.610  29.300   5.400
 3489DOPG   C1A63725  21.990  29.120   5.740
 3489DOPG   D2A63726  22.260  29.210   6.080
 3489DOPG   C3A63727  22.590  29.450   5.950
 3489DOPG   C4A63728  22.940  29.290   6.240
 3489DOPG   C1B63729  21.190  29.080   5.300
 3489DOPG   D2B63730  20.970  28.790   5.420
 3489DOPG   C3B63731  21.030  28.360   5.650
 3489DOPG   C4B63732  20.790  28.050   5.560
 3490DOPG   GL063733  19.460  15.000  16.490
 3490DOPG   PO463734  19.220  14.970  16.210
 3490DOPG   GL163735  18.860  15.080  15.950
 3490DOPG   GL263736  18.590  15.040  15.870
 3490DOPG   C1A63737  18.880  15.350  15.550
 3490DOPG   D2A63738  18.840  15.740  15.360
 3490DOPG   C3A63739  18.530  16.000  15.200
 3490DOPG   C4A63740  18.290  16.330  15.450
 3490DOPG   C1B63741  18.310  15.300  15.620
 3490DOPG   D2B63742  18.170  15.590  15.280
 3490DOPG   C3B63743  18.010  15.920  15.470
 3490DOPG   C4B63744  17.820  16.360  15.320
 3491DOPG   GL063745   7.580  17.250  10.640
 3491DOPG   PO463746   7.720  17.680  10.580
 3491DOPG   GL163747   7.730  18.010  10.520
 3491DOPG   GL263748   7.990  18.070  10.240
 3491DOPG   C1A63749   7.980  18.440  10.630
 3491DOPG   D2A63750   8.170  18.910  10.530
 3491DOPG   C3A63751   8.560  19.120  10.480
 3491DOPG   C4A63752   8.930  19.450  10.360
 3491DOPG   C1B63753   8.150  18.390  10.120
 3491DOPG   D2B63754   8.600  18.700  10.100
 3491DOPG   C3B63755   8.730  19.110  10.030
 3491DOPG   C4B63756   9.010  19.400   9.860
 3492DOPG   GL063757  20.500  20.420  12.450
 3492DOPG   PO463758  20.860  20.780  12.530
 3492DOPG   GL163759  21.260  20.940  12.570
 3492DOPG   GL263760  21.260  21.080  12.870
 3492DOPG   C1A63761  21.770  20.900  12.530
 3492DOPG   D2A63762  22.020  21.110  12.220
 3492DOPG   C3A63763  22.260  20.860  12.160
 3492DOPG   C4A63764  22.390  20.890  11.840
 3492DOPG   C1B63765  21.670  20.690  12.960
 3492DOPG   D2B63766  21.880  20.380  12.780
 3492DOPG   C3B63767  22.300  20.440  13.040
 3492DOPG   C4B63768  22.650  20.500  13.300
 3493DOPG   GL063769   7.180  19.210   7.640
 3493DOPG   PO463770   7.010  19.040   8.090
 3493DOPG   GL163771   7.380  19.220   8.140
 3493DOPG   GL263772   7.280  19.440   8.460
 3493DOPG   C1A63773   7.730  19.270   8.440
 3493DOPG   D2A63774   8.170  19.340   8.290
 3493DOPG   C3A63775   8.500  19.040   8.330
 3493DOPG   C4A63776   8.890  19.120   8.750
 3493DOPG   C1B63777   7.510  19.580   8.740
 3493DOPG   D2B63778   7.620  19.910   8.990
 3493DOPG   C3B63779   8.020  20.050   9.020
 3493DOPG   C4B63780   8.340  20.300   9.300
 3494DOPG   GL063781   8.710  15.030  13.820
 3494DOPG   PO463782   8.770  14.640  13.820
 3494DOPG   GL163783   8.950  14.540  14.270
 3494DOPG   GL263784   9.010  14.920  14.300
 3494DOPG   C1A63785   9.150  14.310  14.630
 3494DOPG   D2A63786   9.140  14.390  15.010
 3494DOPG   C3A63787   9.380  14.170  15.310
 3494DOPG   C4A63788   9.850  14.070  15.530
 3494DOPG   C1B63789   9.260  15.200  14.470
 3494DOPG   D2B63790   9.330  15.610  14.430
 3494DOPG   C3B63791   9.640  15.830  14.720
 3494DOPG   C4B63792  10.030  16.040  14.590
 3495DOPG   GL063793  20.470  23.380  10.970
 3495DOPG   PO463794  20.660  23.130  11.200
 3495DOPG   GL163795  21.070  23.090  10.960
 3495DOPG   GL263796  21.040  23.210  10.640
 3495DOPG   C1A63797  21.260  22.780  10.770
 3495DOPG   D2A63798  21.330  22.380  10.810
 3495DOPG   C3A63799  21.590  22.130  10.470
 3495DOPG   C4A63800  21.740  22.000   9.990
 3495DOPG   C1B63801  21.340  23.420  10.340
 3495DOPG   D2B63802  21.390  23.340   9.870
 3495DOPG   C3B63803  21.310  23.630   9.550
 3495DOPG   C4B63804  21.310  23.690   9.080
 3496DOPG   GL063805  20.740  21.170  14.150
 3496DOPG   PO463806  21.090  21.240  14.130
 3496DOPG   GL163807  21.420  21.050  14.080
 3496DOPG   GL263808  21.540  21.040  14.400
 3496DOPG   C1A63809  21.740  20.870  13.960
 3496DOPG   D2A63810  21.820  20.550  13.590
 3496DOPG   C3A63811  21.690  20.100  13.590
 3496DOPG   C4A63812  21.870  19.990  14.040
 3496DOPG   C1B63813  21.780  20.790  14.470
 3496DOPG   D2B63814  22.260  20.630  14.690
 3496DOPG   C3B63815  22.660  20.630  14.440
 3496DOPG   C4B63816  23.070  20.730  14.450
 3497DOPG   GL063817  16.040  17.930  13.980
 3497DOPG   PO463818  16.350  17.740  13.820
 3497DOPG   GL163819  16.270  17.410  14.020
 3497DOPG   GL263820  16.540  17.190  14.060
 3497DOPG   C1A63821  15.960  17.090  14.190
 3497DOPG   D2A63822  15.840  16.630  14.220
 3497DOPG   C3A63823  15.810  16.280  14.480
 3497DOPG   C4A63824  15.470  16.080  14.490
 3497DOPG   C1B63825  16.440  16.830  14.200
 3497DOPG   D2B63826  16.330  16.430  14.360
 3497DOPG   C3B63827  16.500  16.430  14.730
 3497DOPG   C4B63828  16.550  16.250  15.260
 3498DOPG   GL063829   8.710  21.640  21.250
 3498DOPG   PO463830   8.970  21.820  21.160
 3498DOPG   GL163831   9.310  21.710  21.000
 3498DOPG   GL263832   9.290  21.510  20.750
 3498DOPG   C1A63833   9.540  21.900  20.660
 3498DOPG   D2A63834   9.890  21.670  20.460
 3498DOPG   C3A63835   9.870  21.390  20.080
 3498DOPG   C4A63836   9.780  21.160  19.730
 3498DOPG   C1B63837   9.240  21.570  20.390
 3498DOPG   D2B63838   9.360  21.410  19.920
 3498DOPG   C3B63839   9.340  20.950  19.920
 3498DOPG   C4B63840   9.250  20.590  19.500
 3499DOPG   GL063841  24.180  26.110  11.050
 3499DOPG   PO463842  23.950  25.870  10.780
 3499DOPG   GL163843  23.550  25.620  10.710
 3499DOPG   GL263844  23.510  25.500  11.030
 3499DOPG   C1A63845  23.060  25.580  10.890
 3499DOPG   D2A63846  22.770  25.640  11.270
 3499DOPG   C3A63847  22.520  25.310  11.430
 3499DOPG   C4A63848  22.770  24.990  11.540
 3499DOPG   C1B63849  23.740  25.300  11.280
 3499DOPG   D2B63850  23.880  24.800  11.340
 3499DOPG   C3B63851  23.960  24.460  11.520
 3499DOPG   C4B63852  24.160  24.060  11.600
 3500DOPG   GL063853  12.320  22.580   2.160
 3500DOPG   PO463854  12.530  22.950   2.060
 3500DOPG   GL163855  12.730  22.590   2.540
 3500DOPG   GL263856  12.670  22.250   2.510
 3500DOPG   C1A63857  13.110  22.450   2.720
 3500DOPG   D2A63858  13.430  22.120   2.790
 3500DOPG   C3A63859  13.530  21.940   3.290
 3500DOPG   C4A63860  13.440  21.550   3.530
 3500DOPG   C1B63861  12.500  22.250   2.960
 3500DOPG   D2B63862  12.590  22.060   3.350
 3500DOPG   C3B63863  12.250  21.970   3.590
 3500DOPG   C4B63864  11.860  21.780   3.810
 3501DOPG   GL063865  17.510  19.150  11.770
 3501DOPG   PO463866  17.300  18.960  11.700
 3501DOPG   GL163867  17.280  18.680  11.320
 3501DOPG   GL263868  17.610  18.530  11.270
 3501DOPG   C1A63869  17.200  18.620  10.930
 3501DOPG   D2A63870  17.390  18.370  10.570
 3501DOPG   C3A63871  17.530  18.000  10.570
 3501DOPG   C4A63872  17.950  17.940  10.260
 3501DOPG   C1B63873  17.850  18.250  11.120
 3501DOPG   D2B63874  17.940  18.090  10.810
 3501DOPG   C3B63875  18.240  18.280  10.460
 3501DOPG   C4B63876  18.460  18.080  10.140
 3502DOPG   GL063877  14.400  22.970   7.940
 3502DOPG   PO463878  14.490  23.430   7.870
 3502DOPG   GL163879  14.870  23.310   8.030
 3502DOPG   GL263880  14.910  22.960   7.910
 3502DOPG   C1A63881  15.080  23.490   8.340
 3502DOPG   D2A63882  15.250  23.650   8.740
 3502DOPG   C3A63883  15.320  23.660   9.170
 3502DOPG   C4A63884  15.020  23.880   9.520
 3502DOPG   C1B63885  15.330  23.100   8.020
 3502DOPG   D2B63886  15.640  22.950   8.120
 3502DOPG   C3B63887  15.910  23.040   8.260
 3502DOPG   C4B63888  16.100  23.400   8.550
 3503DOPG   GL063889  13.850  24.600  17.110
 3503DOPG   PO463890  14.140  24.870  17.270
 3503DOPG   GL163891  14.330  24.920  16.870
 3503DOPG   GL263892  14.660  24.840  16.770
 3503DOPG   C1A63893  14.330  24.490  16.640
 3503DOPG   D2A63894  14.530  24.070  16.750
 3503DOPG   C3A63895  14.590  23.850  17.040
 3503DOPG   C4A63896  14.640  23.410  16.970
 3503DOPG   C1B63897  14.970  24.550  16.680
 3503DOPG   D2B63898  15.320  24.590  16.370
 3503DOPG   C3B63899  15.260  24.370  16.080
 3503DOPG   C4B63900  15.130  24.080  15.750
 3504DOPG   GL063901  12.440  18.040  12.260
 3504DOPG   PO463902  12.480  18.110  11.910
 3504DOPG   GL163903  12.680  17.980  11.450
 3504DOPG   GL263904  12.550  17.580  11.450
 3504DOPG   C1A63905  12.630  17.910  11.110
 3504DOPG   D2A63906  12.590  17.740  10.800
 3504DOPG   C3A63907  12.840  17.510  10.550
 3504DOPG   C4A63908  12.770  17.250  10.220
 3504DOPG   C1B63909  12.160  17.610  11.180
 3504DOPG   D2B63910  12.040  18.100  11.110
 3504DOPG   C3B63911  12.410  18.260  10.780
 3504DOPG   C4B63912  12.540  18.620  10.460
 3505DOPG   GL063913  12.850  19.540  12.680
 3505DOPG   PO463914  12.720  19.520  13.140
 3505DOPG   GL163915  12.430  19.690  13.440
 3505DOPG   GL263916  12.280  20.000  13.550
 3505DOPG   C1A63917  12.340  19.500  13.740
 3505DOPG   D2A63918  12.270  19.610  14.140
 3505DOPG   C3A63919  12.390  19.420  14.570
 3505DOPG   C4A63920  12.650  19.350  14.970
 3505DOPG   C1B63921  12.350  20.450  13.720
 3505DOPG   D2B63922  12.510  20.870  13.900
 3505DOPG   C3B63923  12.660  20.900  14.310
 3505DOPG   C4B63924  12.890  21.170  14.460
 3506DOPG   GL063925  17.170  18.300  12.220
 3506DOPG   PO463926  17.340  17.980  12.010
 3506DOPG   GL163927  17.330  17.660  11.770
 3506DOPG   GL263928  17.140  17.450  11.930
 3506DOPG   C1A63929  17.260  17.660  11.290
 3506DOPG   D2A63930  17.240  17.690  10.830
 3506DOPG   C3A63931  16.990  17.520  10.460
 3506DOPG   C4A63932  17.200  17.200  10.080
 3506DOPG   C1B63933  17.230  17.090  11.850
 3506DOPG   D2B63934  17.450  16.770  11.660
 3506DOPG   C3B63935  17.580  16.840  11.300
 3506DOPG   C4B63936  17.930  17.020  11.100
 3507DOPG   GL063937  12.890  17.850  11.870
 3507DOPG   PO463938  12.870  17.440  11.800
 3507DOPG   GL163939  12.960  17.240  11.320
 3507DOPG   GL263940  12.980  17.480  11.120
 3507DOPG   C1A63941  13.270  17.020  11.150
 3507DOPG   D2A63942  13.600  16.720  11.290
 3507DOPG   C3A63943  14.060  16.810  11.330
 3507DOPG   C4A63944  14.310  16.480  11.310
 3507DOPG   C1B63945  13.280  17.450  10.840
 3507DOPG   D2B63946  13.750  17.480  10.660
 3507DOPG   C3B63947  13.850  17.270  10.420
 3507DOPG   C4B63948  13.970  16.940  10.180
 3508DOPG   GL063949  13.440  32.790  11.790
 3508DOPG   PO463950  13.860  32.590  12.080
 3508DOPG   GL163951  13.830  32.220  12.130
 3508DOPG   GL263952  13.720  32.260  12.450
 3508DOPG   C1A63953  14.060  31.900  12.160
 3508DOPG   D2A63954  14.380  31.810  11.900
 3508DOPG   C3A63955  14.660  31.460  11.820
 3508DOPG   C4A63956  14.890  31.210  11.730
 3508DOPG   C1B63957  13.690  31.850  12.580
 3508DOPG   D2B63958  13.420  31.440  12.520
 3508DOPG   C3B63959  13.190  31.310  12.230
 3508DOPG   C4B63960  12.980  31.450  11.820
 3509DOPG   GL063961  11.680  31.830  13.550
 3509DOPG   PO463962  11.860  31.700  13.200
 3509DOPG   GL163963  11.950  31.290  13.030
 3509DOPG   GL263964  11.750  30.970  13.180
 3509DOPG   C1A63965  12.250  31.230  12.800
 3509DOPG   D2A63966  12.620  31.340  12.690
 3509DOPG   C3A63967  12.640  31.610  12.320
 3509DOPG   C4A63968  12.970  31.710  12.390
 3509DOPG   C1B63969  12.180  30.960  13.410
 3509DOPG   D2B63970  12.660  30.790  13.320
 3509DOPG   C3B63971  12.890  30.300  13.170
 3509DOPG   C4B63972  12.710  30.030  12.860
 3510DOPG   GL063973   6.850  20.710   6.750
 3510DOPG   PO463974   7.140  20.600   6.950
 3510DOPG   GL163975   7.620  20.610   7.010
 3510DOPG   GL263976   7.780  20.350   7.210
 3510DOPG   C1A63977   7.970  20.530   6.750
 3510DOPG   D2A63978   8.350  20.380   6.820
 3510DOPG   C3A63979   8.570  20.060   7.100
 3510DOPG   C4A63980   8.610  19.830   7.420
 3510DOPG   C1B63981   8.180  20.600   7.250
 3510DOPG   D2B63982   8.540  20.690   7.210
 3510DOPG   C3B63983   8.930  20.430   6.990
 3510DOPG   C4B63984   9.350  20.550   7.000
 3511DOPG   GL063985  17.140  19.320   0.650
 3511DOPG   PO463986  16.680  19.350   0.530
 3511DOPG   GL163987  16.700  19.380   0.860
 3511DOPG   GL263988  16.840  19.730   0.850
 3511DOPG   C1A63989  16.420  19.320   1.130
 3511DOPG   D2A63990  16.220  19.300   1.400
 3511DOPG   C3A63991  15.800  19.510   1.550
 3511DOPG   C4A63992  15.480  19.590   1.870
 3511DOPG   C1B63993  16.890  19.500   1.300
 3511DOPG   D2B63994  16.910  19.600   1.770
 3511DOPG   C3B63995  17.290  19.610   2.120
 3511DOPG   C4B63996  17.560  19.670   2.460
 3512DOPG   GL063997  19.880  20.120   0.770
 3512DOPG   PO463998  19.900  20.220   1.260
 3512DOPG   GL163999  19.700  20.350   1.640
 3512DOPG   GL264000  19.700  19.980   1.690
 3512DOPG   C1A64001  19.300  20.640   1.880
 3512DOPG   D2A64002  19.170  20.770   2.150
 3512DOPG   C3A64003  18.800  20.740   2.340
 3512DOPG   C4A64004  18.410  20.780   2.410
 3512DOPG   C1B64005  19.600  20.070   2.150
 3512DOPG   D2B64006  19.540  20.010   2.530
 3512DOPG   C3B64007  19.160  20.130   2.790
 3512DOPG   C4B64008  18.920  19.980   3.130
 3513DOPG   GL064009   9.800  17.210  11.690
 3513DOPG   PO464010  10.180  17.100  11.740
 3513DOPG   GL164011  10.250  17.390  11.520
 3513DOPG   GL264012  10.070  17.710  11.630
 3513DOPG   C1A64013  10.280  17.690  11.150
 3513DOPG   D2A64014  10.590  17.970  10.870
 3513DOPG   C3A64015  10.930  17.980  10.970
 3513DOPG   C4A64016  11.290  17.950  10.960
 3513DOPG   C1B64017  10.240  18.100  11.840
 3513DOPG   D2B64018  10.220  18.530  12.000
 3513DOPG   C3B64019   9.960  18.850  11.830
 3513DOPG   C4B64020   9.860  19.110  11.470
 3514DOPG   GL064021  25.110  23.710  15.350
 3514DOPG   PO464022  24.930  23.250  15.370
 3514DOPG   GL164023  24.550  23.120  15.540
 3514DOPG   GL264024  24.470  23.020  15.270
 3514DOPG   C1A64025  24.150  22.840  15.640
 3514DOPG   D2A64026  23.790  22.710  15.400
 3514DOPG   C3A64027  23.940  22.360  15.490
 3514DOPG   C4A64028  24.220  22.010  15.360
 3514DOPG   C1B64029  24.040  23.100  15.150
 3514DOPG   D2B64030  23.590  23.030  15.110
 3514DOPG   C3B64031  23.290  22.810  15.380
 3514DOPG   C4B64032  22.900  22.770  15.610
 3515DOPG   GL064033   8.570  14.140  13.990
 3515DOPG   PO464034   8.540  13.790  13.590
 3515DOPG   GL164035   8.880  13.800  13.810
 3515DOPG   GL264036   9.000  13.410  13.680
 3515DOPG   C1A64037   9.100  14.000  14.200
 3515DOPG   D2A64038   9.400  14.400  14.190
 3515DOPG   C3A64039   9.570  14.570  14.470
 3515DOPG   C4A64040   9.970  14.590  14.560
 3515DOPG   C1B64041   9.300  13.410  14.010
 3515DOPG   D2B64042   9.620  13.460  14.320
 3515DOPG   C3B64043  10.110  13.440  14.280
 3515DOPG   C4B64044  10.390  13.640  14.500
 3516DOPG   GL064045  18.530  18.870  14.660
 3516DOPG   PO464046  18.420  18.770  14.980
 3516DOPG   GL164047  18.680  18.560  15.060
 3516DOPG   GL264048  18.830  18.380  14.860
 3516DOPG   C1A64049  18.900  18.280  15.420
 3516DOPG   D2A64050  18.940  18.130  15.790
 3516DOPG   C3A64051  18.800  17.830  16.080
 3516DOPG   C4A64052  18.480  17.720  16.150
 3516DOPG   C1B64053  19.270  18.200  14.930
 3516DOPG   D2B64054  19.650  18.170  15.300
 3516DOPG   C3B64055  19.640  17.930  15.680
 3516DOPG   C4B64056  20.050  17.800  15.840
 3517DOPG   GL064057  12.170  24.890   8.460
 3517DOPG   PO464058  11.900  25.100   8.510
 3517DOPG   GL164059  11.870  25.330   8.150
 3517DOPG   GL264060  11.710  25.040   7.920
 3517DOPG   C1A64061  11.780  25.560   7.830
 3517DOPG   D2A64062  11.580  25.880   7.650
 3517DOPG   C3A64063  11.150  25.740   7.430
 3517DOPG   C4A64064  10.970  25.420   7.070
 3517DOPG   C1B64065  11.320  24.840   7.860
 3517DOPG   D2B64066  10.920  25.020   7.950
 3517DOPG   C3B64067  10.830  25.350   7.560
 3517DOPG   C4B64068  10.500  25.730   7.370
 3518DOPG   GL064069   6.450  23.600  18.190
 3518DOPG   PO464070   6.910  23.720  18.230
 3518DOPG   GL164071   7.130  23.680  17.920
 3518DOPG   GL264072   7.420  23.860  17.940
 3518DOPG   C1A64073   7.510  23.580  17.560
 3518DOPG   D2A64074   7.850  23.840  17.240
 3518DOPG   C3A64075   8.100  23.510  17.300
 3518DOPG   C4A64076   8.520  23.350  17.310
 3518DOPG   C1B64077   7.530  24.060  17.610
 3518DOPG   D2B64078   7.640  24.410  17.380
 3518DOPG   C3B64079   7.860  24.320  17.050
 3518DOPG   C4B64080   8.140  24.040  16.870
 3519DOPG   GL064081  15.070  18.710  11.820
 3519DOPG   PO464082  14.890  18.370  11.840
 3519DOPG   GL164083  15.030  18.070  11.570
 3519DOPG   GL264084  15.140  18.040  11.340
 3519DOPG   C1A64085  14.840  17.690  11.260
 3519DOPG   D2A64086  14.800  17.520  10.950
 3519DOPG   C3A64087  14.790  17.200  10.640
 3519DOPG   C4A64088  14.950  17.140  10.230
 3519DOPG   C1B64089  15.250  17.910  10.930
 3519DOPG   D2B64090  14.850  18.050  10.740
 3519DOPG   C3B64091  14.740  18.390  10.950
 3519DOPG   C4B64092  14.260  18.570  11.110
 3520DOPG   GL064093  21.470  19.760   8.500
 3520DOPG   PO464094  21.660  19.460   8.320
 3520DOPG   GL164095  21.310  19.320   8.560
 3520DOPG   GL264096  21.380  19.130   8.820
 3520DOPG   C1A64097  21.160  19.620   8.840
 3520DOPG   D2A64098  21.000  19.650   9.170
 3520DOPG   C3A64099  21.300  19.600   9.560
 3520DOPG   C4A64100  21.400  19.890   9.950
 3520DOPG   C1B64101  20.860  19.200   8.970
 3520DOPG   D2B64102  20.540  19.380   9.160
 3520DOPG   C3B64103  20.560  19.850   9.270
 3520DOPG   C4B64104  20.370  20.260   9.280
 3521DOPG   GL064105  12.880  18.340  12.970
 3521DOPG   PO464106  12.880  18.690  13.140
 3521DOPG   GL164107  12.590  18.690  13.520
 3521DOPG   GL264108  12.190  18.630  13.460
 3521DOPG   C1A64109  12.430  18.620  13.930
 3521DOPG   D2A64110  12.140  18.660  14.170
 3521DOPG   C3A64111  12.230  18.540  14.530
 3521DOPG   C4A64112  12.090  18.330  14.920
 3521DOPG   C1B64113  12.140  19.010  13.640
 3521DOPG   D2B64114  11.860  19.310  13.660
 3521DOPG   C3B64115  11.850  19.720  13.630
 3521DOPG   C4B64116  11.930  20.060  13.840
 3522DOPG   GL064117  18.430  20.720  15.110
 3522DOPG   PO464118  18.120  20.850  15.480
 3522DOPG   GL164119  18.200  20.810  15.930
 3522DOPG   GL264120  18.080  20.510  16.000
 3522DOPG   C1A64121  18.320  20.820  16.320
 3522DOPG   D2A64122  18.340  20.810  16.810
 3522DOPG   C3A64123  18.560  20.450  16.870
 3522DOPG   C4A64124  18.840  20.470  16.600
 3522DOPG   C1B64125  18.260  20.320  16.190
 3522DOPG   D2B64126  18.380  20.200  16.470
 3522DOPG   C3B64127  18.390  19.920  16.910
 3522DOPG   C4B64128  18.280  19.470  17.110
 3523DOPG   GL064129  12.280  31.880  13.420
 3523DOPG   PO464130  12.620  32.070  13.250
 3523DOPG   GL164131  12.730  31.750  13.550
 3523DOPG   GL264132  12.950  31.780  13.670
 3523DOPG   C1A64133  12.850  31.240  13.540
 3523DOPG   D2A64134  13.190  30.970  13.300
 3523DOPG   C3A64135  13.480  31.270  13.120
 3523DOPG   C4A64136  13.820  31.390  12.870
 3523DOPG   C1B64137  13.220  31.590  13.420
 3523DOPG   D2B64138  13.690  31.390  13.570
 3523DOPG   C3B64139  13.700  30.930  13.540
 3523DOPG   C4B64140  14.060  30.720  13.460
 3524DOPG   GL064141  18.910  18.700  12.880
 3524DOPG   PO464142  19.190  18.510  13.140
 3524DOPG   GL164143  19.540  18.090  13.010
 3524DOPG   GL264144  19.850  18.060  13.150
 3524DOPG   C1A64145  19.580  17.590  13.020
 3524DOPG   D2A64146  19.970  17.400  13.220
 3524DOPG   C3A64147  20.320  17.060  13.210
 3524DOPG   C4A64148  20.320  16.750  13.550
 3524DOPG   C1B64149  20.230  17.880  13.190
 3524DOPG   D2B64150  20.700  17.930  13.010
 3524DOPG   C3B64151  20.590  18.060  12.540
 3524DOPG   C4B64152  20.640  18.000  12.150
 3525DOPG   GL064153  10.470  23.910   9.740
 3525DOPG   PO464154  10.170  23.760   9.710
 3525DOPG   GL164155   9.690  23.710   9.770
 3525DOPG   GL264156   9.670  23.550   9.560
 3525DOPG   C1A64157   9.240  23.800   9.720
 3525DOPG   D2A64158   8.810  23.860   9.570
 3525DOPG   C3A64159   8.450  23.840   9.680
 3525DOPG   C4A64160   8.030  24.100   9.680
 3525DOPG   C1B64161   9.460  23.800   9.260
 3525DOPG   D2B64162   9.000  23.980   9.150
 3525DOPG   C3B64163   8.490  23.730   9.160
 3525DOPG   C4B64164   8.160  23.890   9.130
 3526DOPG   GL064165  21.350  21.660   1.570
 3526DOPG   PO464166  20.980  21.500   1.770
 3526DOPG   GL164167  21.050  21.200   2.200
 3526DOPG   GL264168  21.260  21.500   2.360
 3526DOPG   C1A64169  20.920  21.150   2.600
 3526DOPG   D2A64170  20.910  20.850   2.830
 3526DOPG   C3A64171  20.920  20.980   3.290
 3526DOPG   C4A64172  21.160  21.320   3.480
 3526DOPG   C1B64173  21.420  21.280   2.620
 3526DOPG   D2B64174  21.320  21.160   2.990
 3526DOPG   C3B64175  21.630  21.140   3.190
 3526DOPG   C4B64176  21.650  21.300   3.650
 3527DOPG   GL064177  10.150  22.830   3.450
 3527DOPG   PO464178  10.520  23.040   3.290
 3527DOPG   GL164179  10.640  22.760   3.590
 3527DOPG   GL264180  10.450  22.440   3.620
 3527DOPG   C1A64181  11.050  22.630   3.720
 3527DOPG   D2A64182  11.380  22.550   4.070
 3527DOPG   C3A64183  11.310  22.900   4.310
 3527DOPG   C4A64184  11.310  23.330   4.310
 3527DOPG   C1B64185  10.800  22.210   3.820
 3527DOPG   D2B64186  11.030  22.180   4.090
 3527DOPG   C3B64187  11.100  21.910   4.480
 3527DOPG   C4B64188  11.340  21.920   4.800
 3528DOPG   GL064189  21.430  14.810   2.810
 3528DOPG   PO464190  21.210  14.370   3.060
 3528DOPG   GL164191  20.900  14.450   3.360
 3528DOPG   GL264192  20.700  14.180   3.380
 3528DOPG   C1A64193  20.930  14.730   3.640
 3528DOPG   D2A64194  20.940  15.060   3.890
 3528DOPG   C3A64195  20.840  15.160   4.280
 3528DOPG   C4A64196  20.980  15.170   4.700
 3528DOPG   C1B64197  20.420  14.400   3.660
 3528DOPG   D2B64198  20.030  14.390   3.680
 3528DOPG   C3B64199  19.750  14.640   3.590
 3528DOPG   C4B64200  19.400  14.910   3.470
 3529DOPG   GL064201  21.790  23.140  14.450
 3529DOPG   PO464202  21.890  23.540  14.220
 3529DOPG   GL164203  22.220  23.540  14.470
 3529DOPG   GL264204  22.340  23.250  14.440
 3529DOPG   C1A64205  22.490  23.840  14.660
 3529DOPG   D2A64206  22.840  23.990  14.420
 3529DOPG   C3A64207  23.130  24.380  14.430
 3529DOPG   C4A64208  23.560  24.570  14.300
 3529DOPG   C1B64209  22.760  23.050  14.470
 3529DOPG   D2B64210  22.880  22.640  14.590
 3529DOPG   C3B64211  23.000  22.310  14.840
 3529DOPG   C4B64212  23.270  22.050  15.080
 3530DOPG   GL064213   8.130  14.080  15.730
 3530DOPG   PO464214   7.810  14.070  15.520
 3530DOPG   GL164215   8.050  14.520  15.530
 3530DOPG   GL264216   8.400  14.650  15.490
 3530DOPG   C1A64217   8.230  14.710  15.960
 3530DOPG   D2A64218   8.640  14.880  16.210
 3530DOPG   C3A64219   8.960  14.740  16.480
 3530DOPG   C4A64220   9.280  14.720  16.750
 3530DOPG   C1B64221   8.720  14.850  15.740
 3530DOPG   D2B64222   9.130  14.970  16.000
 3530DOPG   C3B64223   9.460  14.650  16.150
 3530DOPG   C4B64224   9.760  14.720  16.460
 3531DOPG   GL064225   7.560  24.780   6.440
 3531DOPG   PO464226   7.450  24.370   6.630
 3531DOPG   GL164227   7.740  24.430   6.870
 3531DOPG   GL264228   7.940  24.590   6.690
 3531DOPG   C1A64229   7.910  24.320   7.270
 3531DOPG   D2A64230   8.160  24.150   7.630
 3531DOPG   C3A64231   8.440  23.740   7.750
 3531DOPG   C4A64232   8.760  23.510   8.000
 3531DOPG   C1B64233   8.270  24.290   6.830
 3531DOPG   D2B64234   8.650  24.230   6.790
 3531DOPG   C3B64235   8.860  23.820   6.710
 3531DOPG   C4B64236   9.160  23.940   6.910
 3532DOPG   GL064237  14.070   8.260  11.310
 3532DOPG   PO464238  14.230   7.900  11.050
 3532DOPG   GL164239  14.440   8.240  10.890
 3532DOPG   GL264240  14.560   8.240  11.210
 3532DOPG   C1A64241  14.510   8.630  10.780
 3532DOPG   D2A64242  14.450   9.090  10.700
 3532DOPG   C3A64243  14.850   9.240  10.640
 3532DOPG   C4A64244  15.110   9.370  10.450
 3532DOPG   C1B64245  14.370   8.690  11.310
 3532DOPG   D2B64246  14.510   9.040  11.280
 3532DOPG   C3B64247  14.980   9.110  11.450
 3532DOPG   C4B64248  15.360   9.430  11.420
 3533DOPG   GL064249  15.060  20.340  11.710
 3533DOPG   PO464250  14.730  20.590  11.910
 3533DOPG   GL164251  14.350  20.790  11.900
 3533DOPG   GL264252  14.110  20.890  12.120
 3533DOPG   C1A64253  13.940  20.880  11.640
 3533DOPG   D2A64254  13.710  21.040  11.350
 3533DOPG   C3A64255  13.390  21.330  11.380
 3533DOPG   C4A64256  13.120  21.560  11.350
 3533DOPG   C1B64257  13.710  21.090  12.070
 3533DOPG   D2B64258  13.670  21.430  11.810
 3533DOPG   C3B64259  13.530  21.840  11.830
 3533DOPG   C4B64260  13.570  22.270  11.800
 3534DOPG   GL064261  19.260  21.760   5.660
 3534DOPG   PO464262  18.960  21.760   5.420
 3534DOPG   GL164263  18.830  21.780   5.000
 3534DOPG   GL264264  18.860  22.010   4.890
 3534DOPG   C1A64265  18.840  21.740   4.490
 3534DOPG   D2A64266  18.620  21.940   4.110
 3534DOPG   C3A64267  18.750  22.330   3.970
 3534DOPG   C4A64268  18.650  22.680   3.640
 3534DOPG   C1B64269  19.010  22.260   4.570
 3534DOPG   D2B64270  19.280  22.550   4.320
 3534DOPG   C3B64271  19.110  22.700   3.860
 3534DOPG   C4B64272  19.150  22.900   3.560
 3535DOPG   GL064273  20.210  20.140  12.790
 3535DOPG   PO464274  20.180  19.920  12.480
 3535DOPG   GL164275  20.560  19.650  12.370
 3535DOPG   GL264276  20.900  19.690  12.450
 3535DOPG   C1A64277  20.930  19.320  12.160
 3535DOPG   D2A64278  21.160  18.850  12.050
 3535DOPG   C3A64279  21.490  18.590  12.120
 3535DOPG   C4A64280  21.870  18.390  12.180
 3535DOPG   C1B64281  21.300  19.730  12.490
 3535DOPG   D2B64282  21.730  19.600  12.230
 3535DOPG   C3B64283  21.930  19.570  11.870
 3535DOPG   C4B64284  22.010  19.620  11.400
 3536DOPG   GL064285  13.520  24.050  23.750
 3536DOPG   PO464286  13.950  24.090  23.610
 3536DOPG   GL164287  14.140  24.030  23.220
 3536DOPG   GL264288  14.450  23.880  23.180
 3536DOPG   C1A64289  14.020  24.040  22.810
 3536DOPG   D2A64290  13.810  23.790  22.650
 3536DOPG   C3A64291  13.840  23.220  22.490
 3536DOPG   C4A64292  13.710  22.740  22.410
 3536DOPG   C1B64293  14.530  23.870  22.810
 3536DOPG   D2B64294  14.720  23.540  22.400
 3536DOPG   C3B64295  14.400  23.200  22.360
 3536DOPG   C4B64296  14.110  23.020  22.140
 3537DOPG   GL064297  28.280  22.130  20.540
 3537DOPG   PO464298  28.000  22.380  20.480
 3537DOPG   GL164299  27.740  22.020  20.340
 3537DOPG   GL264300  27.520  22.010  19.920
 3537DOPG   C1A64301  27.280  22.170  20.300
 3537DOPG   D2A64302  26.990  22.560  20.430
 3537DOPG   C3A64303  26.680  22.770  20.170
 3537DOPG   C4A64304  26.810  22.930  19.830
 3537DOPG   C1B64305  27.290  22.270  19.610
 3537DOPG   D2B64306  26.870  22.400  19.380
 3537DOPG   C3B64307  26.660  22.810  19.370
 3537DOPG   C4B64308  26.690  23.150  19.060
 3538DOPG   GL064309  14.760  20.540  14.170
 3538DOPG   PO464310  14.350  20.570  14.200
 3538DOPG   GL164311  14.160  20.780  14.390
 3538DOPG   GL264312  14.100  21.050  14.310
 3538DOPG   C1A64313  13.930  20.850  14.700
 3538DOPG   D2A64314  13.760  21.020  15.150
 3538DOPG   C3A64315  13.260  21.080  15.290
 3538DOPG   C4A64316  12.870  21.050  15.180
 3538DOPG   C1B64317  13.660  21.200  14.480
 3538DOPG   D2B64318  13.470  21.260  14.790
 3538DOPG   C3B64319  13.220  20.850  14.820
 3538DOPG   C4B64320  12.910  20.510  14.930
 3539DOPG   GL064321  14.430  14.420   9.950
 3539DOPG   PO464322  14.570  14.740   9.870
 3539DOPG   GL164323  14.310  15.040   9.970
 3539DOPG   GL264324  14.540  15.260   9.830
 3539DOPG   C1A64325  14.070  15.300  10.120
 3539DOPG   D2A64326  13.820  15.350  10.490
 3539DOPG   C3A64327  13.380  15.260  10.530
 3539DOPG   C4A64328  13.100  15.300  10.900
 3539DOPG   C1B64329  14.730  15.320  10.230
 3539DOPG   D2B64330  15.000  15.470  10.510
 3539DOPG   C3B64331  14.920  16.010  10.720
 3539DOPG   C4B64332  14.660  16.190  11.080
 3540DOPG   GL064333   5.000  19.420  17.020
 3540DOPG   PO464334   5.190  19.810  17.200
 3540DOPG   GL164335   5.620  19.840  17.320
 3540DOPG   GL264336   5.950  19.660  17.240
 3540DOPG   C1A64337   5.890  20.170  17.170
 3540DOPG   D2A64338   6.080  20.460  17.150
 3540DOPG   C3A64339   6.080  20.570  17.640
 3540DOPG   C4A64340   6.210  20.510  18.000
 3540DOPG   C1B64341   6.220  19.740  17.010
 3540DOPG   D2B64342   6.470  19.660  16.640
 3540DOPG   C3B64343   6.890  19.480  16.650
 3540DOPG   C4B64344   7.300  19.500  16.620
 3541DOPG   GL064345  16.910  24.420  12.620
 3541DOPG   PO464346  16.570  24.580  12.840
 3541DOPG   GL164347  16.480  24.820  13.330
 3541DOPG   GL264348  16.490  25.160  13.230
 3541DOPG   C1A64349  16.350  25.080  13.720
 3541DOPG   D2A64350  16.010  25.280  13.840
 3541DOPG   C3A64351  15.660  25.530  13.930
 3541DOPG   C4A64352  15.530  25.990  13.850
 3541DOPG   C1B64353  16.400  25.370  13.010
 3541DOPG   D2B64354  16.310  25.800  13.040
 3541DOPG   C3B64355  15.870  25.930  13.180
 3541DOPG   C4B64356  15.560  25.900  13.230
 3542DOPG   GL064357  14.420  13.380   1.510
 3542DOPG   PO464358  14.810  13.430   1.700
 3542DOPG   GL164359  15.040  13.700   2.040
 3542DOPG   GL264360  14.830  13.720   2.330
 3542DOPG   C1A64361  15.100  14.220   2.120
 3542DOPG   D2A64362  15.400  14.610   2.200
 3542DOPG   C3A64363  15.760  14.660   2.550
 3542DOPG   C4A64364  16.060  14.630   2.840
 3542DOPG   C1B64365  15.070  13.920   2.510
 3542DOPG   D2B64366  15.430  14.170   2.490
 3542DOPG   C3B64367  15.750  14.210   2.780
 3542DOPG   C4B64368  15.820  13.800   3.010
 3543DOPG   GL064369  21.210  22.280  12.670
 3543DOPG   PO464370  21.380  22.250  12.200
 3543DOPG   GL164371  21.790  22.280  12.290
 3543DOPG   GL264372  22.120  22.140  12.360
 3543DOPG   C1A64373  22.160  22.570  12.120
 3543DOPG   D2A64374  22.550  22.610  11.990
 3543DOPG   C3A64375  22.610  22.750  11.670
 3543DOPG   C4A64376  22.810  22.660  11.230
 3543DOPG   C1B64377  22.550  22.350  12.430
 3543DOPG   D2B64378  22.930  22.520  12.540
 3543DOPG   C3B64379  23.130  22.850  12.290
 3543DOPG   C4B64380  23.350  23.230  12.260
 3544DOPG   GL064381  18.540  21.940   9.820
 3544DOPG   PO464382  18.290  21.750   9.520
 3544DOPG   GL164383  18.620  21.680   9.290
 3544DOPG   GL264384  18.560  21.330   9.290
 3544DOPG   C1A64385  18.870  21.840   8.960
 3544DOPG   D2A64386  19.240  21.910   8.650
 3544DOPG   C3A64387  19.710  21.780   8.790
 3544DOPG   C4A64388  19.960  21.420   8.840
 3544DOPG   C1B64389  18.650  21.240   8.830
 3544DOPG   D2B64390  18.960  21.260   8.470
 3544DOPG   C3B64391  19.260  21.490   8.340
 3544DOPG   C4B64392  19.700  21.650   8.310
 3545DOPG   GL064393  22.040  16.880  17.190
 3545DOPG   PO464394  21.960  17.000  16.840
 3545DOPG   GL164395  21.760  16.920  16.330
 3545DOPG   GL264396  21.330  16.990  16.260
 3545DOPG   C1A64397  21.620  17.190  15.920
 3545DOPG   D2A64398  21.700  17.530  15.650
 3545DOPG   C3A64399  21.390  17.720  15.400
 3545DOPG   C4A64400  21.280  17.620  14.990
 3545DOPG   C1B64401  21.170  17.410  16.240
 3545DOPG   D2B64402  21.120  17.640  15.880
 3545DOPG   C3B64403  20.770  17.640  15.530
 3545DOPG   C4B64404  20.670  17.420  15.150
 3546DOPG   GL064405  17.060  17.850  15.060
 3546DOPG   PO464406  17.480  18.200  15.100
 3546DOPG   GL164407  17.330  17.990  15.480
 3546DOPG   GL264408  17.120  17.980  15.590
 3546DOPG   C1A64409  17.590  18.000  15.860
 3546DOPG   D2A64410  17.450  17.750  16.220
 3546DOPG   C3A64411  17.480  17.310  16.420
 3546DOPG   C4A64412  17.370  16.900  16.260
 3546DOPG   C1B64413  16.960  17.750  15.930
 3546DOPG   D2B64414  17.080  17.380  16.200
 3546DOPG   C3B64415  16.820  17.010  16.120
 3546DOPG   C4B64416  16.650  16.600  15.980
 3547DOPG   GL064417  16.440  22.070  14.160
 3547DOPG   PO464418  16.040  22.140  14.280
 3547DOPG   GL164419  15.790  22.310  14.560
 3547DOPG   GL264420  15.850  22.660  14.820
 3547DOPG   C1A64421  15.570  22.120  14.920
 3547DOPG   D2A64422  15.290  22.130  15.280
 3547DOPG   C3A64423  15.500  22.250  15.690
 3547DOPG   C4A64424  15.470  22.110  16.020
 3547DOPG   C1B64425  15.320  22.560  14.720
 3547DOPG   D2B64426  14.990  22.520  14.970
 3547DOPG   C3B64427  14.640  22.710  14.990
 3547DOPG   C4B64428  14.340  23.020  14.810
 3548DOPG   GL064429  11.800   9.350  11.140
 3548DOPG   PO464430  12.070   9.310  11.520
 3548DOPG   GL164431  12.410   9.530  11.560
 3548DOPG   GL264432  12.580   9.450  11.400
 3548DOPG   C1A64433  12.640   9.730  11.890
 3548DOPG   D2A64434  13.120   9.720  12.030
 3548DOPG   C3A64435  13.170   9.830  12.450
 3548DOPG   C4A64436  13.270  10.320  12.490
 3548DOPG   C1B64437  12.660   9.930  11.350
 3548DOPG   D2B64438  12.500  10.200  11.660
 3548DOPG   C3B64439  12.170   9.980  11.800
 3548DOPG   C4B64440  11.890   9.720  12.020
 3549DOPG   GL064441  14.770  21.660  11.990
 3549DOPG   PO464442  14.770  22.090  11.860
 3549DOPG   GL164443  14.510  22.280  11.700
 3549DOPG   GL264444  14.740  22.310  11.410
 3549DOPG   C1A64445  14.220  22.620  11.370
 3549DOPG   D2A64446  13.960  22.810  11.070
 3549DOPG   C3A64447  13.700  23.050  11.270
 3549DOPG   C4A64448  13.560  23.490  11.320
 3549DOPG   C1B64449  14.690  22.720  11.290
 3549DOPG   D2B64450  14.370  23.070  11.240
 3549DOPG   C3B64451  14.090  23.180  10.800
 3549DOPG   C4B64452  14.060  22.900  10.420
 3550DOPG   GL064453  10.270  21.820  13.420
 3550DOPG   PO464454  10.360  22.170  13.130
 3550DOPG   GL164455  10.700  21.880  13.030
 3550DOPG   GL264456  10.530  21.610  12.930
 3550DOPG   C1A64457  11.010  21.650  12.840
 3550DOPG   D2A64458  11.230  21.370  13.050
 3550DOPG   C3A64459  11.520  21.230  12.880
 3550DOPG   C4A64460  11.890  21.200  12.930
 3550DOPG   C1B64461  10.560  21.170  13.030
 3550DOPG   D2B64462  10.860  20.910  13.220
 3550DOPG   C3B64463  11.120  20.800  13.530
 3550DOPG   C4B64464  11.030  21.080  13.960
 3551DOPG   GL064465  11.870  16.480  11.710
 3551DOPG   PO464466  11.710  16.660  12.080
 3551DOPG   GL164467  11.980  16.340  12.270
 3551DOPG   GL264468  12.070  16.120  12.040
 3551DOPG   C1A64469  12.220  16.150  12.630
 3551DOPG   D2A64470  12.560  16.050  12.950
 3551DOPG   C3A64471  12.520  15.820  13.330
 3551DOPG   C4A64472  12.920  15.690  13.430
 3551DOPG   C1B64473  12.210  15.790  11.640
 3551DOPG   D2B64474  12.220  15.370  11.670
 3551DOPG   C3B64475  12.010  15.050  11.510
 3551DOPG   C4B64476  12.200  14.590  11.480
 3552DOPG   GL064477  15.000  13.750  13.910
 3552DOPG   PO464478  15.320  13.990  13.950
 3552DOPG   GL164479  15.240  14.450  13.850
 3552DOPG   GL264480  14.970  14.430  13.780
 3552DOPG   C1A64481  15.180  14.960  13.740
 3552DOPG   D2A64482  14.980  15.310  13.460
 3552DOPG   C3A64483  14.730  15.630  13.660
 3552DOPG   C4A64484  14.750  15.880  14.050
 3552DOPG   C1B64485  14.660  14.790  13.610
 3552DOPG   D2B64486  14.410  15.140  13.340
 3552DOPG   C3B64487  14.320  15.210  12.900
 3552DOPG   C4B64488  14.140  15.250  12.540
 3553DOPG   GL064489   5.230  21.980  15.400
 3553DOPG   PO464490   5.270  21.650  15.710
 3553DOPG   GL164491   5.650  21.770  15.880
 3553DOPG   GL264492   5.840  21.460  16.120
 3553DOPG   C1A64493   6.160  21.720  15.720
 3553DOPG   D2A64494   6.410  22.090  15.580
 3553DOPG   C3A64495   6.610  22.220  15.120
 3553DOPG   C4A64496   7.010  22.370  14.840
 3553DOPG   C1B64497   6.090  21.770  16.280
 3553DOPG   D2B64498   6.430  21.920  16.150
 3553DOPG   C3B64499   6.660  21.760  15.850
 3553DOPG   C4B64500   7.050  21.680  15.670
 3554DOPG   GL064501  10.120  19.540   2.850
 3554DOPG   PO464502  10.470  19.200   2.820
 3554DOPG   GL164503  10.810  19.100   3.120
 3554DOPG   GL264504  10.740  18.970   3.440
 3554DOPG   C1A64505  11.170  19.140   3.500
 3554DOPG   D2A64506  11.380  19.080   3.910
 3554DOPG   C3A64507  11.310  19.000   4.360
 3554DOPG   C4A64508  11.010  19.040   4.720
 3554DOPG   C1B64509  10.980  18.700   3.710
 3554DOPG   D2B64510  11.180  18.460   4.000
 3554DOPG   C3B64511  11.580  18.670   4.050
 3554DOPG   C4B64512  11.840  18.850   4.360
 3555DOPG   GL064513   7.830  14.350  15.970
 3555DOPG   PO464514   7.870  14.080  16.200
 3555DOPG   GL164515   8.060  13.680  16.380
 3555DOPG   GL264516   8.280  13.660  16.130
 3555DOPG   C1A64517   8.440  13.730  16.680
 3555DOPG   D2A64518   8.830  13.860  16.840
 3555DOPG   C3A64519   9.060  14.250  16.860
 3555DOPG   C4A64520   9.500  14.320  16.850
 3555DOPG   C1B64521   8.620  13.850  16.180
 3555DOPG   D2B64522   8.890  14.090  16.370
 3555DOPG   C3B64523   9.320  14.130  16.390
 3555DOPG   C4B64524   9.720  14.080  16.440
 3556DOPG   GL064525   9.350  10.440  17.640
 3556DOPG   PO464526   9.500  10.810  17.850
 3556DOPG   GL164527   9.770  11.100  17.630
 3556DOPG   GL264528   9.790  11.260  17.950
 3556DOPG   C1A64529   9.970  11.310  17.310
 3556DOPG   D2A64530  10.030  11.600  16.960
 3556DOPG   C3A64531  10.250  11.990  17.040
 3556DOPG   C4A64532  10.300  12.450  16.960
 3556DOPG   C1B64533  10.010  11.510  17.750
 3556DOPG   D2B64534  10.300  11.690  17.410
 3556DOPG   C3B64535  10.490  11.290  17.230
 3556DOPG   C4B64536  10.260  11.180  16.920
 3557DOPG   GL064537   4.540  21.660  10.660
 3557DOPG   PO464538   4.930  21.510  10.640
 3557DOPG   GL164539   5.400  21.700  10.590
 3557DOPG   GL264540   5.450  22.010  10.490
 3557DOPG   C1A64541   5.800  21.390  10.530
 3557DOPG   D2A64542   6.250  21.380  10.480
 3557DOPG   C3A64543   6.310  20.970  10.650
 3557DOPG   C4A64544   6.350  20.710  11.060
 3557DOPG   C1B64545   5.900  22.100  10.720
 3557DOPG   D2B64546   6.030  22.360  11.040
 3557DOPG   C3B64547   6.400  22.160  11.280
 3557DOPG   C4B64548   6.710  21.840  11.070
 3558DOPG   GL064549  17.190  19.550  11.140
 3558DOPG   PO464550  17.100  19.840  10.830
 3558DOPG   GL164551  17.070  19.590  10.410
 3558DOPG   GL264552  16.970  19.780  10.130
 3558DOPG   C1A64553  16.790  19.330  10.000
 3558DOPG   D2A64554  16.920  19.220   9.520
 3558DOPG   C3A64555  16.910  18.980   9.210
 3558DOPG   C4A64556  16.660  18.890   8.950
 3558DOPG   C1B64557  16.970  19.740   9.770
 3558DOPG   D2B64558  16.640  19.680   9.470
 3558DOPG   C3B64559  16.480  19.330   9.280
 3558DOPG   C4B64560  16.200  19.240   8.920
 3559DOPG   GL064561   8.450  12.670  16.940
 3559DOPG   PO464562   8.190  12.580  16.540
 3559DOPG   GL164563   8.660  12.650  16.500
 3559DOPG   GL264564   8.870  12.470  16.660
 3559DOPG   C1A64565   8.840  12.970  16.830
 3559DOPG   D2A64566   8.750  12.980  17.240
 3559DOPG   C3A64567   8.640  12.610  17.400
 3559DOPG   C4A64568   8.920  12.340  17.500
 3559DOPG   C1B64569   9.200  12.670  16.420
 3559DOPG   D2B64570   9.420  12.680  16.010
 3559DOPG   C3B64571   9.770  12.890  15.870
 3559DOPG   C4B64572  10.020  13.090  15.510
 3560DOPG   GL064573  20.870  29.360  12.720
 3560DOPG   PO464574  20.600  29.350  12.340
 3560DOPG   GL164575  20.650  28.970  12.210
 3560DOPG   GL264576  20.860  28.840  12.560
 3560DOPG   C1A64577  20.660  28.700  11.830
 3560DOPG   D2A64578  20.400  28.640  11.500
 3560DOPG   C3A64579  20.250  28.340  11.530
 3560DOPG   C4A64580  20.070  28.040  11.480
 3560DOPG   C1B64581  21.050  28.390  12.340
 3560DOPG   D2B64582  21.400  28.270  12.380
 3560DOPG   C3B64583  21.560  27.920  12.560
 3560DOPG   C4B64584  21.450  27.510  12.730
 3561DOPG   GL064585  17.740  25.690  13.080
 3561DOPG   PO464586  17.540  25.510  12.720
 3561DOPG   GL164587  17.320  25.910  12.830
 3561DOPG   GL264588  17.600  26.170  12.840
 3561DOPG   C1A64589  17.150  26.240  12.990
 3561DOPG   D2A64590  16.700  26.290  13.250
 3561DOPG   C3A64591  16.560  26.160  13.610
 3561DOPG   C4A64592  16.360  26.020  13.990
 3561DOPG   C1B64593  17.600  26.490  12.530
 3561DOPG   D2B64594  17.700  26.930  12.450
 3561DOPG   C3B64595  17.380  27.270  12.450
 3561DOPG   C4B64596  17.400  27.630  12.540
 3562DOPG   GL064597  24.160  27.700  14.110
 3562DOPG   PO464598  24.160  27.350  14.130
 3562DOPG   GL164599  23.770  27.160  13.810
 3562DOPG   GL264600  23.410  27.370  13.700
 3562DOPG   C1A64601  23.580  26.900  13.540
 3562DOPG   D2A64602  23.390  26.550  13.480
 3562DOPG   C3A64603  23.150  26.400  13.920
 3562DOPG   C4A64604  22.860  26.180  14.090
 3562DOPG   C1B64605  23.320  26.970  14.040
 3562DOPG   D2B64606  23.670  26.660  14.000
 3562DOPG   C3B64607  23.660  26.230  14.010
 3562DOPG   C4B64608  23.760  25.890  14.190
 3563DOPG   GL064609  19.170  22.970  10.800
 3563DOPG   PO464610  19.490  22.850  10.740
 3563DOPG   GL164611  19.700  23.190  10.430
 3563DOPG   GL264612  20.020  23.180  10.300
 3563DOPG   C1A64613  19.570  23.330  10.090
 3563DOPG   D2A64614  19.440  23.360   9.650
 3563DOPG   C3A64615  19.250  23.130   9.280
 3563DOPG   C4A64616  18.930  22.990   8.970
 3563DOPG   C1B64617  19.990  23.530   9.980
 3563DOPG   D2B64618  19.710  23.820   9.810
 3563DOPG   C3B64619  19.920  24.090   9.740
 3563DOPG   C4B64620  20.170  24.520   9.660
 3564DOPG   GL064621  12.380  17.580  12.520
 3564DOPG   PO464622  12.230  17.310  12.790
 3564DOPG   GL164623  12.110  17.120  13.140
 3564DOPG   GL264624  12.420  16.950  13.230
 3564DOPG   C1A64625  11.860  16.700  13.370
 3564DOPG   D2A64626  11.650  16.380  13.720
 3564DOPG   C3A64627  11.650  15.940  13.830
 3564DOPG   C4A64628  11.790  15.580  14.190
 3564DOPG   C1B64629  12.290  16.850  13.630
 3564DOPG   D2B64630  12.440  16.980  14.090
 3564DOPG   C3B64631  12.730  17.160  14.160
 3564DOPG   C4B64632  13.060  17.090  14.510
 3565DOPG   GL064633  14.550  31.870   7.030
 3565DOPG   PO464634  14.930  31.880   7.240
 3565DOPG   GL164635  15.060  31.420   7.400
 3565DOPG   GL264636  15.260  31.410   7.710
 3565DOPG   C1A64637  15.170  30.910   7.450
 3565DOPG   D2A64638  15.080  30.510   7.290
 3565DOPG   C3A64639  15.010  30.190   7.560
 3565DOPG   C4A64640  15.020  29.810   7.700
 3565DOPG   C1B64641  15.530  31.060   8.020
 3565DOPG   D2B64642  15.340  30.740   8.200
 3565DOPG   C3B64643  14.970  30.620   8.420
 3565DOPG   C4B64644  14.680  30.190   8.490
 3566DOPG   GL064645  15.350  21.870   6.710
 3566DOPG   PO464646  15.720  21.780   6.390
 3566DOPG   GL164647  15.870  21.840   6.830
 3566DOPG   GL264648  16.170  21.840   6.790
 3566DOPG   C1A64649  16.070  22.150   7.200
 3566DOPG   D2A64650  16.130  22.460   7.370
 3566DOPG   C3A64651  16.370  22.390   7.640
 3566DOPG   C4A64652  16.320  22.220   8.090
 3566DOPG   C1B64653  16.470  21.760   7.060
 3566DOPG   D2B64654  16.520  21.970   7.390
 3566DOPG   C3B64655  16.690  22.090   7.840
 3566DOPG   C4B64656  16.840  22.220   8.170
 3567DOPG   GL064657  16.310  18.480  14.970
 3567DOPG   PO464658  15.980  18.630  14.740
 3567DOPG   GL164659  15.810  18.360  15.030
 3567DOPG   GL264660  15.520  18.510  15.290
 3567DOPG   C1A64661  15.950  18.000  15.300
 3567DOPG   D2A64662  16.170  17.690  15.450
 3567DOPG   C3A64663  16.110  17.210  15.540
 3567DOPG   C4A64664  16.070  16.840  15.740
 3567DOPG   C1B64665  15.090  18.330  15.350
 3567DOPG   D2B64666  14.750  17.960  15.560
 3567DOPG   C3B64667  14.790  18.240  15.990
 3567DOPG   C4B64668  15.040  18.440  16.310
 3568DOPG   GL064669  20.030  20.730  13.740
 3568DOPG   PO464670  20.430  20.590  13.730
 3568DOPG   GL164671  20.870  20.360  13.880
 3568DOPG   GL264672  20.940  20.040  13.950
 3568DOPG   C1A64673  21.330  20.330  13.980
 3568DOPG   D2A64674  21.700  20.410  14.150
 3568DOPG   C3A64675  22.060  20.520  14.040
 3568DOPG   C4A64676  22.300  20.850  14.200
 3568DOPG   C1B64677  21.230  19.880  14.190
 3568DOPG   D2B64678  21.320  19.390  14.210
 3568DOPG   C3B64679  21.590  19.000  14.370
 3568DOPG   C4B64680  21.860  18.640  14.420
 3569DOPG   GL064681  12.810  20.280   8.350
 3569DOPG   PO464682  12.560  20.590   8.650
 3569DOPG   GL164683  12.980  20.390   8.840
 3569DOPG   GL264684  13.300  20.470   8.700
 3569DOPG   C1A64685  13.120  20.190   9.170
 3569DOPG   D2A64686  13.290  20.210   9.510
 3569DOPG   C3A64687  13.260  20.080  10.010
 3569DOPG   C4A64688  12.990  19.890  10.310
 3569DOPG   C1B64689  13.530  20.150   8.880
 3569DOPG   D2B64690  13.750  19.840   9.070
 3569DOPG   C3B64691  13.910  19.780   9.440
 3569DOPG   C4B64692  14.230  19.910   9.680
 3570DOPG   GL064693  14.590  19.410   5.180
 3570DOPG   PO464694  14.390  19.030   5.010
 3570DOPG   GL164695  14.270  19.170   4.640
 3570DOPG   GL264696  14.500  19.450   4.620
 3570DOPG   C1A64697  13.940  19.120   4.390
 3570DOPG   D2A64698  13.470  19.080   4.300
 3570DOPG   C3A64699  13.090  18.760   4.420
 3570DOPG   C4A64700  12.890  18.340   4.370
 3570DOPG   C1B64701  14.220  19.480   4.200
 3570DOPG   D2B64702  14.140  19.520   3.830
 3570DOPG   C3B64703  13.730  19.370   3.570
 3570DOPG   C4B64704  13.350  19.060   3.530
 3571DOPG   GL064705   5.280  20.760  16.430
 3571DOPG   PO464706   5.590  20.600  16.650
 3571DOPG   GL164707   5.880  20.540  16.450
 3571DOPG   GL264708   6.120  20.670  16.680
 3571DOPG   C1A64709   6.160  20.800  16.170
 3571DOPG   D2A64710   6.280  21.290  16.060
 3571DOPG   C3A64711   6.410  21.210  15.640
 3571DOPG   C4A64712   6.850  21.220  15.500
 3571DOPG   C1B64713   6.520  20.610  16.470
 3571DOPG   D2B64714   6.700  20.860  16.050
 3571DOPG   C3B64715   6.810  21.270  16.000
 3571DOPG   C4B64716   7.220  21.320  15.930
 3572DOPG   GL064717  19.330  26.210   2.280
 3572DOPG   PO464718  18.840  26.280   2.130
 3572DOPG   GL164719  18.890  26.240   2.550
 3572DOPG   GL264720  18.820  26.480   2.640
 3572DOPG   C1A64721  18.800  26.030   3.010
 3572DOPG   D2A64722  18.960  25.590   3.130
 3572DOPG   C3A64723  19.320  25.440   3.400
 3572DOPG   C4A64724  19.360  25.240   3.710
 3572DOPG   C1B64725  18.930  26.590   3.060
 3572DOPG   D2B64726  19.190  26.470   3.540
 3572DOPG   C3B64727  19.630  26.450   3.670
 3572DOPG   C4B64728  20.100  26.330   3.830
 3573DOPG   GL064729   4.830  20.280  16.270
 3573DOPG   PO464730   5.100  20.250  15.830
 3573DOPG   GL164731   5.510  20.340  15.850
 3573DOPG   GL264732   5.750  20.200  16.060
 3573DOPG   C1A64733   5.770  20.420  15.520
 3573DOPG   D2A64734   6.220  20.490  15.530
 3573DOPG   C3A64735   6.650  20.570  15.650
 3573DOPG   C4A64736   7.090  20.750  15.680
 3573DOPG   C1B64737   6.170  20.310  16.140
 3573DOPG   D2B64738   6.550  20.270  16.020
 3573DOPG   C3B64739   6.950  20.360  16.200
 3573DOPG   C4B64740   6.970  20.490  16.620
 3574DOPG   GL064741   5.390  21.180  17.920
 3574DOPG   PO464742   5.730  21.210  17.700
 3574DOPG   GL164743   6.010  21.130  17.420
 3574DOPG   GL264744   5.940  20.920  17.080
 3574DOPG   C1A64745   6.430  20.930  17.620
 3574DOPG   D2A64746   6.580  20.580  17.690
 3574DOPG   C3A64747   6.500  20.380  17.380
 3574DOPG   C4A64748   6.500  20.460  16.910
 3574DOPG   C1B64749   6.390  20.950  17.130
 3574DOPG   D2B64750   6.770  20.920  16.880
 3574DOPG   C3B64751   7.160  20.540  17.070
 3574DOPG   C4B64752   7.210  20.150  17.210
 3575DOPG   GL064753  21.220  22.080  11.710
 3575DOPG   PO464754  21.200  22.370  11.320
 3575DOPG   GL164755  21.570  22.180  11.230
 3575DOPG   GL264756  21.750  22.380  11.010
 3575DOPG   C1A64757  21.820  21.880  11.030
 3575DOPG   D2A64758  21.930  21.780  10.720
 3575DOPG   C3A64759  22.200  21.350  10.640
 3575DOPG   C4A64760  22.550  21.450  10.500
 3575DOPG   C1B64761  22.080  22.260  10.790
 3575DOPG   D2B64762  22.200  21.980  10.330
 3575DOPG   C3B64763  22.670  21.860  10.300
 3575DOPG   C4B64764  23.120  21.800  10.100
 3576DOPG   GL064765  17.500  18.400  12.670
 3576DOPG   PO464766  17.690  18.030  12.490
 3576DOPG   GL164767  17.910  17.970  12.160
 3576DOPG   GL264768  18.070  18.080  11.950
 3576DOPG   C1A64769  17.870  17.640  11.770
 3576DOPG   D2A64770  18.130  17.430  11.520
 3576DOPG   C3A64771  18.560  17.550  11.370
 3576DOPG   C4A64772  18.650  17.480  10.920
 3576DOPG   C1B64773  18.240  17.930  11.530
 3576DOPG   D2B64774  18.220  17.880  11.180
 3576DOPG   C3B64775  18.170  17.440  10.980
 3576DOPG   C4B64776  18.160  17.220  10.640
 3577DOPG   GL064777  19.470  25.270  12.170
 3577DOPG   PO464778  19.870  25.280  12.310
 3577DOPG   GL164779  19.870  25.730  12.130
 3577DOPG   GL264780  20.100  25.870  11.910
 3577DOPG   C1A64781  19.620  26.010  11.920
 3577DOPG   D2A64782  19.320  26.230  11.910
 3577DOPG   C3A64783  19.360  26.660  11.790
 3577DOPG   C4A64784  19.090  26.950  11.670
 3577DOPG   C1B64785  20.220  25.760  11.420
 3577DOPG   D2B64786  20.460  25.650  11.070
 3577DOPG   C3B64787  20.320  25.850  10.640
 3577DOPG   C4B64788  19.970  26.060  10.440
 3578DOPG   GL064789  10.540   9.200  14.470
 3578DOPG   PO464790  10.620   9.590  14.590
 3578DOPG   GL164791  10.900   9.970  14.590
 3578DOPG   GL264792  11.010   9.840  14.390
 3578DOPG   C1A64793  11.120  10.250  14.820
 3578DOPG   D2A64794  11.130  10.590  15.010
 3578DOPG   C3A64795  11.270  10.940  14.690
 3578DOPG   C4A64796  11.580  11.250  14.770
 3578DOPG   C1B64797  11.460   9.900  14.360
 3578DOPG   D2B64798  11.720  10.040  14.710
 3578DOPG   C3B64799  11.550  10.250  15.090
 3578DOPG   C4B64800  11.400  10.390  15.480
 3579DOPG   GL064801  14.690  24.430   7.570
 3579DOPG   PO464802  14.490  24.460   7.880
 3579DOPG   GL164803  14.650  24.230   8.190
 3579DOPG   GL264804  14.770  24.450   8.420
 3579DOPG   C1A64805  15.080  24.030   8.350
 3579DOPG   D2A64806  15.420  23.760   8.200
 3579DOPG   C3A64807  15.630  23.450   8.470
 3579DOPG   C4A64808  15.690  23.350   8.930
 3579DOPG   C1B64809  14.900  24.160   8.780
 3579DOPG   D2B64810  14.820  23.950   9.080
 3579DOPG   C3B64811  14.770  23.490   8.940
 3579DOPG   C4B64812  14.870  23.170   8.640
 3580DOPG   GL064813  26.760  25.470   5.630
 3580DOPG   PO464814  27.100  25.120   5.560
 3580DOPG   GL164815  26.710  24.860   5.650
 3580DOPG   GL264816  26.390  24.990   5.770
 3580DOPG   C1A64817  26.570  24.670   6.010
 3580DOPG   D2A64818  26.360  24.350   6.220
 3580DOPG   C3A64819  25.950  24.410   6.370
 3580DOPG   C4A64820  25.640  24.370   6.050
 3580DOPG   C1B64821  25.960  25.170   5.800
 3580DOPG   D2B64822  25.530  25.490   5.870
 3580DOPG   C3B64823  25.290  25.260   6.290
 3580DOPG   C4B64824  24.870  25.030   6.370
 3581DOPG   GL064825  16.440  24.020  11.000
 3581DOPG   PO464826  16.850  24.040  10.920
 3581DOPG   GL164827  16.770  24.490  11.020
 3581DOPG   GL264828  16.500  24.490  11.150
 3581DOPG   C1A64829  16.860  24.910  10.910
 3581DOPG   D2A64830  17.090  25.230  10.830
 3581DOPG   C3A64831  16.980  25.620  11.040
 3581DOPG   C4A64832  16.580  25.840  11.250
 3581DOPG   C1B64833  16.190  24.420  10.920
 3581DOPG   D2B64834  15.630  24.320  10.810
 3581DOPG   C3B64835  15.390  24.240  11.170
 3581DOPG   C4B64836  15.160  24.440  11.590
 3582DOPG   GL064837  17.330  24.460  14.320
 3582DOPG   PO464838  17.170  24.250  13.950
 3582DOPG   GL164839  17.000  24.690  13.930
 3582DOPG   GL264840  16.660  24.600  13.800
 3582DOPG   C1A64841  16.810  25.140  14.000
 3582DOPG   D2A64842  16.310  25.220  14.210
 3582DOPG   C3A64843  16.110  25.650  14.170
 3582DOPG   C4A64844  15.940  25.990  14.370
 3582DOPG   C1B64845  16.500  24.710  14.260
 3582DOPG   D2B64846  16.190  24.870  14.580
 3582DOPG   C3B64847  16.240  25.330  14.680
 3582DOPG   C4B64848  16.270  25.610  15.060
 3583DOPG   GL064849  16.580   9.940   5.280
 3583DOPG   PO464850  16.770  10.100   5.620
 3583DOPG   GL164851  16.620  10.350   5.840
 3583DOPG   GL264852  16.710  10.620   5.820
 3583DOPG   C1A64853  16.250  10.520   6.030
 3583DOPG   D2A64854  16.030  10.840   6.350
 3583DOPG   C3A64855  15.940  11.100   6.660
 3583DOPG   C4A64856  15.900  11.380   6.970
 3583DOPG   C1B64857  16.860  10.940   6.160
 3583DOPG   D2B64858  16.790  11.320   6.380
 3583DOPG   C3B64859  16.690  11.770   6.360
 3583DOPG   C4B64860  16.680  12.280   6.280
 3584DOPG   GL064861  14.650  17.350  12.680
 3584DOPG   PO464862  14.930  17.600  12.490
 3584DOPG   GL164863  15.250  17.370  12.290
 3584DOPG   GL264864  15.260  17.450  11.900
 3584DOPG   C1A64865  15.500  17.040  12.210
 3584DOPG   D2A64866  15.630  16.800  11.930
 3584DOPG   C3A64867  15.470  16.460  11.830
 3584DOPG   C4A64868  15.170  16.200  11.980
 3584DOPG   C1B64869  15.160  17.060  11.870
 3584DOPG   D2B64870  15.090  16.730  12.170
 3584DOPG   C3B64871  14.720  16.660  12.420
 3584DOPG   C4B64872  14.460  16.870  12.700
 3585DOPG   GL064873  15.290  22.340  12.080
 3585DOPG   PO464874  15.400  22.700  11.870
 3585DOPG   GL164875  15.170  23.080  11.640
 3585DOPG   GL264876  15.240  23.100  11.330
 3585DOPG   C1A64877  14.730  23.210  11.570
 3585DOPG   D2A64878  14.500  23.540  11.320
 3585DOPG   C3A64879  14.040  23.530  11.240
 3585DOPG   C4A64880  13.780  23.630  10.870
 3585DOPG   C1B64881  14.820  23.210  11.090
 3585DOPG   D2B64882  14.590  23.350  10.820
 3585DOPG   C3B64883  14.260  23.750  10.740
 3585DOPG   C4B64884  14.300  24.050  11.030
 3586DOPG   GL064885   7.220  18.260  19.920
 3586DOPG   PO464886   7.160  18.510  20.230
 3586DOPG   GL164887   7.600  18.540  20.250
 3586DOPG   GL264888   7.720  18.230  20.140
 3586DOPG   C1A64889   8.030  18.490  20.410
 3586DOPG   D2A64890   8.480  18.540  20.430
 3586DOPG   C3A64891   8.480  18.950  20.180
 3586DOPG   C4A64892   8.190  19.200  19.930
 3586DOPG   C1B64893   8.020  18.240  19.760
 3586DOPG   D2B64894   8.210  18.560  19.400
 3586DOPG   C3B64895   8.490  18.390  19.130
 3586DOPG   C4B64896   8.350  18.560  18.730
 3587DOPG   GL064897  24.700  21.520   3.300
 3587DOPG   PO464898  24.360  21.660   3.100
 3587DOPG   GL164899  24.060  21.550   3.390
 3587DOPG   GL264900  24.210  21.500   3.660
 3587DOPG   C1A64901  23.710  21.950   3.530
 3587DOPG   D2A64902  23.330  22.070   3.620
 3587DOPG   C3A64903  23.030  21.930   3.850
 3587DOPG   C4A64904  22.690  22.150   4.030
 3587DOPG   C1B64905  24.060  21.700   3.870
 3587DOPG   D2B64906  23.610  21.670   3.980
 3587DOPG   C3B64907  23.290  21.690   4.260
 3587DOPG   C4B64908  23.090  21.390   4.400
 3588DOPG   GL064909   5.560  24.340   9.930
 3588DOPG   PO464910   5.220  23.950   9.860
 3588DOPG   GL164911   5.700  23.870   9.960
 3588DOPG   GL264912   6.020  24.010   9.860
 3588DOPG   C1A64913   5.950  23.640  10.350
 3588DOPG   D2A64914   6.290  23.510  10.710
 3588DOPG   C3A64915   6.640  23.420  10.650
 3588DOPG   C4A64916   7.050  23.400  10.920
 3588DOPG   C1B64917   6.460  23.780  10.030
 3588DOPG   D2B64918   6.580  23.870  10.410
 3588DOPG   C3B64919   7.000  24.020  10.070
 3588DOPG   C4B64920   7.390  23.960   9.860
 3589DOPG   GL064921  10.970  30.280   7.860
 3589DOPG   PO464922  11.410  30.180   8.120
 3589DOPG   GL164923  11.710  29.740   8.160
 3589DOPG   GL264924  12.000  29.720   8.460
 3589DOPG   C1A64925  12.000  29.290   8.210
 3589DOPG   D2A64926  11.880  28.880   8.250
 3589DOPG   C3A64927  11.970  28.560   8.310
 3589DOPG   C4A64928  12.170  28.420   8.610
 3589DOPG   C1B64929  12.350  29.630   8.680
 3589DOPG   D2B64930  12.510  29.500   9.070
 3589DOPG   C3B64931  12.250  29.620   9.430
 3589DOPG   C4B64932  12.470  29.470   9.690
 3590DOPG   GL064933  19.910  31.860   6.220
 3590DOPG   PO464934  20.310  32.010   6.160
 3590DOPG   GL164935  20.290  31.590   6.380
 3590DOPG   GL264936  19.870  31.330   6.320
 3590DOPG   C1A64937  20.520  31.350   6.680
 3590DOPG   D2A64938  20.670  31.250   7.080
 3590DOPG   C3A64939  20.310  31.300   7.350
 3590DOPG   C4A64940  19.860  31.380   7.270
 3590DOPG   C1B64941  20.030  30.900   6.420
 3590DOPG   D2B64942  20.090  30.480   6.510
 3590DOPG   C3B64943  19.730  30.180   6.810
 3590DOPG   C4B64944  19.810  30.070   7.270
 3591DOPG   GL064945  13.700  16.290  23.160
 3591DOPG   PO464946  13.970  16.080  23.100
 3591DOPG   GL164947  13.930  16.230  22.660
 3591DOPG   GL264948  13.960  16.520  22.700
 3591DOPG   C1A64949  14.030  16.160  22.260
 3591DOPG   D2A64950  13.980  16.300  21.840
 3591DOPG   C3A64951  13.760  16.600  21.630
 3591DOPG   C4A64952  13.970  16.880  21.320
 3591DOPG   C1B64953  14.290  16.610  22.360
 3591DOPG   D2B64954  14.580  16.490  22.090
 3591DOPG   C3B64955  14.420  16.570  21.650
 3591DOPG   C4B64956  14.490  16.220  21.290
 3592DOPG   GL064957  20.610  25.070  11.930
 3592DOPG   PO464958  20.280  25.390  11.990
 3592DOPG   GL164959  20.560  25.600  11.820
 3592DOPG   GL264960  20.630  25.930  11.750
 3592DOPG   C1A64961  20.950  25.450  11.870
 3592DOPG   D2A64962  21.480  25.290  11.760
 3592DOPG   C3A64963  21.530  25.470  11.370
 3592DOPG   C4A64964  21.590  25.430  10.900
 3592DOPG   C1B64965  20.320  26.280  11.730
 3592DOPG   D2B64966  20.220  26.700  11.680
 3592DOPG   C3B64967  20.040  27.020  11.880
 3592DOPG   C4B64968  19.610  27.190  11.930
 3593DOPG   GL064969  15.900  18.340  11.560
 3593DOPG   PO464970  15.490  18.340  11.590
 3593DOPG   GL164971  15.590  17.940  11.530
 3593DOPG   GL264972  15.460  17.830  11.770
 3593DOPG   C1A64973  15.770  17.580  11.240
 3593DOPG   D2A64974  15.810  17.210  11.010
 3593DOPG   C3A64975  16.250  17.120  11.120
 3593DOPG   C4A64976  16.520  17.010  11.220
 3593DOPG   C1B64977  15.260  17.570  11.420
 3593DOPG   D2B64978  15.270  17.380  11.020
 3593DOPG   C3B64979  15.310  16.930  10.960
 3593DOPG   C4B64980  15.640  16.790  10.830
 3594DOPG   GL064981   8.950  12.320  14.950
 3594DOPG   PO464982   9.170  12.110  14.650
 3594DOPG   GL164983   9.640  12.240  14.580
 3594DOPG   GL264984   9.680  11.990  14.280
 3594DOPG   C1A64985  10.000  12.290  14.480
 3594DOPG   D2A64986  10.390  12.660  14.760
 3594DOPG   C3A64987  10.670  12.370  15.050
 3594DOPG   C4A64988  10.480  12.040  15.420
 3594DOPG   C1B64989   9.890  11.780  14.640
 3594DOPG   D2B64990  10.010  11.600  15.050
 3594DOPG   C3B64991  10.180  11.170  15.010
 3594DOPG   C4B64992  10.330  10.890  14.810
 3595DOPG   GL064993  26.450  27.950   5.450
 3595DOPG   PO464994  26.340  27.870   5.920
 3595DOPG   GL164995  25.880  27.880   6.110
 3595DOPG   GL264996  25.650  27.960   5.950
 3595DOPG   C1A64997  25.660  27.610   6.520
 3595DOPG   D2A64998  25.590  27.390   6.900
 3595DOPG   C3A64999  25.180  27.340   7.170
 3595DOPG   C4A65000  24.870  27.130   7.320
 3595DOPG   C1B65001  25.280  28.120   5.950
 3595DOPG   D2B65002  24.810  28.120   5.980
 3595DOPG   C3B65003  24.730  27.800   6.170
 3595DOPG   C4B65004  24.940  27.480   6.350
 3596DOPG   GL065005  24.140  26.170  16.190
 3596DOPG   PO465006  23.890  26.320  16.490
 3596DOPG   GL165007  23.510  26.110  16.350
 3596DOPG   GL265008  23.770  25.820  16.420
 3596DOPG   C1A65009  23.160  26.040  16.580
 3596DOPG   D2A65010  22.740  25.910  16.940
 3596DOPG   C3A65011  22.440  25.560  16.910
 3596DOPG   C4A65012  22.120  25.410  16.640
 3596DOPG   C1B65013  23.390  25.780  16.030
 3596DOPG   D2B65014  23.070  25.540  15.690
 3596DOPG   C3B65015  22.750  25.750  15.490
 3596DOPG   C4B65016  22.380  25.810  15.460
 3597DOPG   GL065017  15.110  21.280  11.960
 3597DOPG   PO465018  14.930  20.990  12.290
 3597DOPG   GL165019  14.580  21.170  12.150
 3597DOPG   GL265020  14.350  21.420  12.300
 3597DOPG   C1A65021  14.440  21.420  11.780
 3597DOPG   D2A65022  14.170  21.360  11.430
 3597DOPG   C3A65023  14.020  21.300  11.070
 3597DOPG   C4A65024  13.960  20.970  10.630
 3597DOPG   C1B65025  14.020  21.500  12.190
 3597DOPG   D2B65026  13.680  21.590  12.320
 3597DOPG   C3B65027  13.450  21.670  12.680
 3597DOPG   C4B65028  13.070  21.820  12.880
 3598DOPG   GL065029  12.030   8.220  12.460
 3598DOPG   PO465030  12.250   8.190  12.840
 3598DOPG   GL165031  12.530   8.560  12.940
 3598DOPG   GL265032  12.890   8.370  12.900
 3598DOPG   C1A65033  12.730   8.810  13.240
 3598DOPG   D2A65034  12.890   8.900  13.610
 3598DOPG   C3A65035  13.340   8.930  13.640
 3598DOPG   C4A65036  13.750   8.980  13.420
 3598DOPG   C1B65037  13.010   8.710  12.720
 3598DOPG   D2B65038  13.240   9.120  12.710
 3598DOPG   C3B65039  13.620   9.120  12.940
 3598DOPG   C4B65040  13.860   9.390  13.060
 3599DOPG   GL065041  17.220  22.770  15.140
 3599DOPG   PO465042  16.970  22.380  15.390
 3599DOPG   GL165043  16.540  22.230  15.720
 3599DOPG   GL265044  16.260  22.330  15.420
 3599DOPG   C1A65045  16.440  22.260  16.170
 3599DOPG   D2A65046  16.200  22.550  16.330
 3599DOPG   C3A65047  15.950  22.890  16.270
 3599DOPG   C4A65048  15.580  23.220  16.370
 3599DOPG   C1B65049  15.870  22.400  15.370
 3599DOPG   D2B65050  15.430  22.620  15.250
 3599DOPG   C3B65051  14.980  22.820  15.420
 3599DOPG   C4B65052  14.890  23.120  15.520
 3600DOPG   GL065053  12.550  18.130  13.290
 3600DOPG   PO465054  12.800  17.710  13.420
 3600DOPG   GL165055  12.900  17.490  13.730
 3600DOPG   GL265056  12.790  17.250  13.590
 3600DOPG   C1A65057  13.170  17.180  13.900
 3600DOPG   D2A65058  13.220  16.830  14.070
 3600DOPG   C3A65059  13.610  16.770  14.130
 3600DOPG   C4A65060  13.980  16.890  14.070
 3600DOPG   C1B65061  12.790  16.830  13.740
 3600DOPG   D2B65062  12.790  16.640  14.140
 3600DOPG   C3B65063  12.350  16.440  14.290
 3600DOPG   C4B65064  11.910  16.610  14.240
 3601DOPG   GL065065  15.550  20.290  11.840
 3601DOPG   PO465066  15.450  20.020  11.480
 3601DOPG   GL165067  15.230  19.810  11.120
 3601DOPG   GL265068  15.070  19.480  11.210
 3601DOPG   C1A65069  14.930  19.820  10.900
 3601DOPG   D2A65070  14.600  19.820  10.590
 3601DOPG   C3A65071  14.660  19.930  10.160
 3601DOPG   C4A65072  14.750  20.180   9.860
 3601DOPG   C1B65073  14.790  19.350  10.800
 3601DOPG   D2B65074  14.640  19.000  10.510
 3601DOPG   C3B65075  14.660  18.910  10.080
 3601DOPG   C4B65076  14.840  18.500   9.920
 3602DOPG   GL065077  13.650   8.710   9.410
 3602DOPG   PO465078  14.020   8.940   9.250
 3602DOPG   GL165079  14.200   9.260   9.150
 3602DOPG   GL265080  14.090   9.440   9.440
 3602DOPG   C1A65081  14.410   9.750   9.250
 3602DOPG   D2A65082  14.550  10.170   9.350
 3602DOPG   C3A65083  14.710  10.380   9.720
 3602DOPG   C4A65084  14.960  10.680   9.780
 3602DOPG   C1B65085  14.170   9.960   9.640
 3602DOPG   D2B65086  14.350  10.150   9.980
 3602DOPG   C3B65087  14.060  10.440  10.050
 3602DOPG   C4B65088  13.990  10.880  10.010
 3603DOPG   GL065089  12.830  18.460  11.620
 3603DOPG   PO465090  13.200  18.330  11.740
 3603DOPG   GL165091  13.250  18.410  11.340
 3603DOPG   GL265092  13.600  18.650  11.270
 3603DOPG   C1A65093  13.330  18.500  10.950
 3603DOPG   D2A65094  13.400  18.540  10.540
 3603DOPG   C3A65095  13.040  18.430  10.200
 3603DOPG   C4A65096  12.830  18.820   9.930
 3603DOPG   C1B65097  13.590  18.970  10.950
 3603DOPG   D2B65098  13.420  19.110  10.500
 3603DOPG   C3B65099  13.720  19.370  10.200
 3603DOPG   C4B65100  14.190  19.740  10.160
 3604DOPG   GL065101  21.580  24.150  13.320
 3604DOPG   PO465102  21.790  24.080  13.700
 3604DOPG   GL165103  22.120  24.230  13.800
 3604DOPG   GL265104  22.250  23.850  13.970
 3604DOPG   C1A65105  22.380  24.570  13.940
 3604DOPG   D2A65106  22.720  24.780  13.820
 3604DOPG   C3A65107  23.180  24.620  13.960
 3604DOPG   C4A65108  23.480  24.510  13.760
 3604DOPG   C1B65109  22.420  24.120  14.250
 3604DOPG   D2B65110  22.600  24.520  14.420
 3604DOPG   C3B65111  22.890  24.790  14.330
 3604DOPG   C4B65112  22.720  25.250  14.180
 3605DOPG   GL065113   5.980  25.810   9.530
 3605DOPG   PO465114   6.160  25.430   9.670
 3605DOPG   GL165115   6.560  25.610   9.740
 3605DOPG   GL265116   6.580  25.710  10.000
 3605DOPG   C1A65117   6.980  25.500   9.770
 3605DOPG   D2A65118   7.240  25.200   9.910
 3605DOPG   C3A65119   7.230  25.070  10.390
 3605DOPG   C4A65120   7.530  24.900  10.680
 3605DOPG   C1B65121   6.860  25.840  10.320
 3605DOPG   D2B65122   7.060  25.540  10.570
 3605DOPG   C3B65123   6.780  25.250  10.300
 3605DOPG   C4B65124   6.790  24.980   9.880
 3606DOPG   GL065125  19.390  20.070  19.600
 3606DOPG   PO465126  19.630  19.720  19.360
 3606DOPG   GL165127  19.520  19.910  19.000
 3606DOPG   GL265128  19.390  20.010  18.900
 3606DOPG   C1A65129  19.630  19.990  18.490
 3606DOPG   D2A65130  19.690  19.710  18.170
 3606DOPG   C3A65131  19.670  19.840  17.720
 3606DOPG   C4A65132  19.600  20.050  17.480
 3606DOPG   C1B65133  19.210  20.260  18.540
 3606DOPG   D2B65134  19.140  20.260  18.180
 3606DOPG   C3B65135  19.480  20.150  18.030
 3606DOPG   C4B65136  19.970  20.220  18.010
 3607DOPG   GL065137  18.450  23.430  10.610
 3607DOPG   PO465138  18.770  23.690  10.540
 3607DOPG   GL165139  18.730  23.990  10.180
 3607DOPG   GL265140  18.750  23.830   9.820
 3607DOPG   C1A65141  19.000  24.350  10.030
 3607DOPG   D2A65142  19.090  24.750   9.860
 3607DOPG   C3A65143  19.280  24.920   9.540
 3607DOPG   C4A65144  19.470  25.260   9.410
 3607DOPG   C1B65145  19.050  24.110   9.540
 3607DOPG   D2B65146  19.460  24.280   9.570
 3607DOPG   C3B65147  19.780  24.370   9.280
 3607DOPG   C4B65148  20.040  24.550   8.950
 3608DOPG   GL065149  13.800  21.460  17.790
 3608DOPG   PO465150  13.570  21.760  18.020
 3608DOPG   GL165151  13.660  21.870  17.560
 3608DOPG   GL265152  13.310  21.900  17.420
 3608DOPG   C1A65153  13.960  21.770  17.260
 3608DOPG   D2A65154  14.280  21.560  17.260
 3608DOPG   C3A65155  14.390  21.420  16.890
 3608DOPG   C4A65156  14.690  21.500  16.610
 3608DOPG   C1B65157  13.440  21.810  17.040
 3608DOPG   D2B65158  13.750  21.690  16.810
 3608DOPG   C3B65159  13.770  21.760  16.450
 3608DOPG   C4B65160  14.010  21.940  16.090
 3609DOPG   GL065161  21.370  33.830  11.450
 3609DOPG   PO465162  21.090  33.570  11.390
 3609DOPG   GL165163  21.110  33.190  11.550
 3609DOPG   GL265164  21.380  32.940  11.370
 3609DOPG   C1A65165  20.890  32.840  11.330
 3609DOPG   D2A65166  20.890  32.370  11.420
 3609DOPG   C3A65167  20.670  32.080  11.490
 3609DOPG   C4A65168  20.300  31.920  11.590
 3609DOPG   C1B65169  21.300  32.560  11.030
 3609DOPG   D2B65170  21.080  32.090  11.010
 3609DOPG   C3B65171  21.240  31.680  10.980
 3609DOPG   C4B65172  21.030  31.260  11.110
 3610DOPG   GL065173  17.800  20.830  10.600
 3610DOPG   PO465174  17.350  20.930  10.430
 3610DOPG   GL165175  17.350  20.740  10.020
 3610DOPG   GL265176  17.620  20.740   9.850
 3610DOPG   C1A65177  17.070  20.540   9.640
 3610DOPG   D2A65178  17.020  20.550   9.210
 3610DOPG   C3A65179  17.300  20.530   8.890
 3610DOPG   C4A65180  17.280  20.340   8.530
 3610DOPG   C1B65181  17.440  20.460   9.400
 3610DOPG   D2B65182  17.280  20.110   9.390
 3610DOPG   C3B65183  16.840  20.060   9.160
 3610DOPG   C4B65184  16.400  19.860   9.080
 3611DOPG   GL065185  17.860  29.260  11.640
 3611DOPG   PO465186  17.880  28.950  11.830
 3611DOPG   GL165187  17.950  28.560  11.930
 3611DOPG   GL265188  18.200  28.440  12.190
 3611DOPG   C1A65189  17.760  28.230  11.840
 3611DOPG   D2A65190  17.580  27.850  11.830
 3611DOPG   C3A65191  17.800  27.490  11.770
 3611DOPG   C4A65192  17.940  27.280  12.110
 3611DOPG   C1B65193  18.420  28.180  12.500
 3611DOPG   D2B65194  18.810  27.950  12.350
 3611DOPG   C3B65195  18.940  27.690  12.620
 3611DOPG   C4B65196  18.880  27.180  12.580
 3612DOPG   GL065197  21.350  28.950  15.190
 3612DOPG   PO465198  21.100  28.720  14.940
 3612DOPG   GL165199  21.180  28.230  14.760
 3612DOPG   GL265200  20.780  28.320  14.730
 3612DOPG   C1A65201  21.460  27.860  14.700
 3612DOPG   D2A65202  21.910  27.670  14.420
 3612DOPG   C3A65203  22.090  27.970  14.200
 3612DOPG   C4A65204  22.070  28.150  13.920
 3612DOPG   C1B65205  20.820  27.950  14.420
 3612DOPG   D2B65206  21.180  27.700  14.300
 3612DOPG   C3B65207  21.260  27.320  14.450
 3612DOPG   C4B65208  21.310  26.970  14.230
 3613DOPG   GL065209  27.480  27.720   7.210
 3613DOPG   PO465210  27.280  27.980   7.000
 3613DOPG   GL165211  27.060  27.550   7.020
 3613DOPG   GL265212  27.110  27.230   7.090
 3613DOPG   C1A65213  26.690  27.430   6.830
 3613DOPG   D2A65214  26.480  27.350   6.450
 3613DOPG   C3A65215  26.060  27.160   6.570
 3613DOPG   C4A65216  25.960  26.860   6.810
 3613DOPG   C1B65217  26.860  26.960   6.660
 3613DOPG   D2B65218  26.790  26.520   6.650
 3613DOPG   C3B65219  26.380  26.380   6.800
 3613DOPG   C4B65220  25.910  26.380   6.940
 3614DOPG   GL065221  15.700  19.490  11.910
 3614DOPG   PO465222  15.510  19.480  11.490
 3614DOPG   GL165223  15.540  19.210  11.150
 3614DOPG   GL265224  15.590  19.390  10.820
 3614DOPG   C1A65225  15.500  18.870  10.900
 3614DOPG   D2A65226  15.260  18.480  10.820
 3614DOPG   C3A65227  15.520  18.270  10.630
 3614DOPG   C4A65228  15.390  17.960  10.360
 3614DOPG   C1B65229  15.240  19.540  10.660
 3614DOPG   D2B65230  15.020  19.660  10.350
 3614DOPG   C3B65231  14.710  19.430  10.280
 3614DOPG   C4B65232  14.440  19.350   9.860
 3615DOPG   GL065233  15.830  20.770  15.340
 3615DOPG   PO465234  15.820  21.140  15.210
 3615DOPG   GL165235  15.460  21.180  15.540
 3615DOPG   GL265236  15.640  21.100  15.840
 3615DOPG   C1A65237  15.170  21.190  15.880
 3615DOPG   D2A65238  14.770  21.380  16.110
 3615DOPG   C3A65239  15.020  21.740  16.390
 3615DOPG   C4A65240  15.140  22.040  16.680
 3615DOPG   C1B65241  15.450  20.870  16.120
 3615DOPG   D2B65242  15.390  20.610  16.400
 3615DOPG   C3B65243  15.200  20.830  16.870
 3615DOPG   C4B65244  15.220  21.000  17.260
 3616DOPG   GL065245  17.460  19.920  10.430
 3616DOPG   PO465246  17.880  19.860  10.460
 3616DOPG   GL165247  17.900  19.890  10.050
 3616DOPG   GL265248  18.190  19.880   9.930
 3616DOPG   C1A65249  17.840  19.550   9.750
 3616DOPG   D2A65250  17.810  19.220   9.420
 3616DOPG   C3A65251  18.150  19.120   9.120
 3616DOPG   C4A65252  18.520  18.950   9.160
 3616DOPG   C1B65253  18.400  20.000   9.550
 3616DOPG   D2B65254  18.590  19.900   9.180
 3616DOPG   C3B65255  18.500  19.520   8.990
 3616DOPG   C4B65256  18.640  19.240   8.710
 3617DOPG   GL065257  11.180  17.760  12.040
 3617DOPG   PO465258  11.510  17.930  12.340
 3617DOPG   GL165259  11.300  18.280  12.200
 3617DOPG   GL265260  11.180  18.340  11.840
 3617DOPG   C1A65261  10.940  18.670  12.120
 3617DOPG   D2A65262  10.720  18.680  12.460
 3617DOPG   C3A65263  10.340  18.760  12.540
 3617DOPG   C4A65264   9.900  18.730  12.350
 3617DOPG   C1B65265  10.750  18.450  11.720
 3617DOPG   D2B65266  10.510  18.850  11.670
 3617DOPG   C3B65267  10.510  18.970  12.120
 3617DOPG   C4B65268  10.880  19.190  12.370
 3618DOPG   GL065269  11.160  17.230  12.220
 3618DOPG   PO465270  11.590  17.440  12.060
 3618DOPG   GL165271  11.520  17.760  11.700
 3618DOPG   GL265272  11.530  18.010  11.780
 3618DOPG   C1A65273  11.490  17.610  11.390
 3618DOPG   D2A65274  11.680  17.330  11.240
 3618DOPG   C3A65275  11.730  17.290  10.770
 3618DOPG   C4A65276  11.740  17.370  10.280
 3618DOPG   C1B65277  11.550  18.160  11.340
 3618DOPG   D2B65278  11.450  18.420  10.940
 3618DOPG   C3B65279  11.010  18.650  10.850
 3618DOPG   C4B65280  10.920  19.040  10.600
 3619DOPG   GL065281  18.800  12.310  22.160
 3619DOPG   PO465282  18.850  12.500  21.760
 3619DOPG   GL165283  18.780  12.660  21.370
 3619DOPG   GL265284  18.810  12.950  21.350
 3619DOPG   C1A65285  18.500  12.800  21.050
 3619DOPG   D2A65286  18.680  12.950  20.740
 3619DOPG   C3A65287  18.450  13.150  20.600
 3619DOPG   C4A65288  18.120  13.430  20.590
 3619DOPG   C1B65289  18.860  13.340  21.030
 3619DOPG   D2B65290  19.090  13.290  20.530
 3619DOPG   C3B65291  18.800  13.100  20.250
 3619DOPG   C4B65292  18.730  13.210  19.780
 3620DOPG   GL065293   7.760  15.900  13.860
 3620DOPG   PO465294   7.570  16.280  13.890
 3620DOPG   GL165295   7.750  16.620  14.060
 3620DOPG   GL265296   7.530  17.000  14.070
 3620DOPG   C1A65297   7.920  16.760  14.480
 3620DOPG   D2A65298   8.300  16.840  14.650
 3620DOPG   C3A65299   8.520  16.560  14.750
 3620DOPG   C4A65300   8.480  16.400  15.190
 3620DOPG   C1B65301   7.810  17.290  14.090
 3620DOPG   D2B65302   8.080  17.300  14.450
 3620DOPG   C3B65303   8.250  17.660  14.680
 3620DOPG   C4B65304   8.240  18.070  14.930
 3621DOPG   GL065305  13.800  14.280  12.160
 3621DOPG   PO465306  13.660  13.900  11.890
 3621DOPG   GL165307  13.280  14.030  12.080
 3621DOPG   GL265308  13.220  14.070  12.470
 3621DOPG   C1A65309  12.920  14.270  11.880
 3621DOPG   D2A65310  12.670  14.610  11.690
 3621DOPG   C3A65311  12.660  15.090  11.730
 3621DOPG   C4A65312  12.650  15.190  12.080
 3621DOPG   C1B65313  12.800  14.060  12.290
 3621DOPG   D2B65314  12.470  14.010  12.360
 3621DOPG   C3B65315  12.260  13.530  12.390
 3621DOPG   C4B65316  11.890  13.300  12.650
 3622DOPG   GL065317  13.430  18.280  12.190
 3622DOPG   PO465318  13.260  18.640  12.210
 3622DOPG   GL165319  13.030  18.830  11.970
 3622DOPG   GL265320  13.230  18.820  11.650
 3622DOPG   C1A65321  12.770  19.220  11.790
 3622DOPG   D2A65322  12.540  19.270  11.330
 3622DOPG   C3A65323  12.340  19.610  11.380
 3622DOPG   C4A65324  12.360  19.980  11.300
 3622DOPG   C1B65325  12.890  18.830  11.340
 3622DOPG   D2B65326  12.800  18.480  11.030
 3622DOPG   C3B65327  12.950  18.150  10.660
 3622DOPG   C4B65328  12.670  17.980  10.350
 3623DOPG   GL065329  16.560  21.890  10.950
 3623DOPG   PO465330  16.260  21.950  10.720
 3623DOPG   GL165331  16.270  21.820  10.330
 3623DOPG   GL265332  16.160  22.080   9.940
 3623DOPG   C1A65333  16.000  21.680  10.080
 3623DOPG   D2A65334  15.800  21.270   9.860
 3623DOPG   C3A65335  15.430  21.390   9.770
 3623DOPG   C4A65336  15.020  21.600   9.800
 3623DOPG   C1B65337  15.730  22.350   9.800
 3623DOPG   D2B65338  15.510  22.270   9.480
 3623DOPG   C3B65339  15.160  22.060   9.510
 3623DOPG   C4B65340  15.020  22.090   9.950
 3624DOPG   GL065341  17.650  29.110  15.620
 3624DOPG   PO465342  17.830  29.380  15.820
 3624DOPG   GL165343  17.510  29.760  16.000
 3624DOPG   GL265344  17.240  29.740  16.310
 3624DOPG   C1A65345  17.340  30.150  16.010
 3624DOPG   D2A65346  17.110  30.440  15.830
 3624DOPG   C3A65347  16.830  30.640  15.960
 3624DOPG   C4A65348  16.430  30.930  15.750
 3624DOPG   C1B65349  17.130  30.130  16.620
 3624DOPG   D2B65350  17.220  30.330  17.050
 3624DOPG   C3B65351  16.920  30.200  17.390
 3624DOPG   C4B65352  16.540  30.230  17.620
 3625DOPG   GL065353  15.470  27.670  10.980
 3625DOPG   PO465354  15.110  27.520  10.730
 3625DOPG   GL165355  15.570  27.210  10.830
 3625DOPG   GL265356  15.540  26.980  10.550
 3625DOPG   C1A65357  15.780  26.750  11.050
 3625DOPG   D2A65358  15.860  26.590  11.440
 3625DOPG   C3A65359  16.200  26.320  11.510
 3625DOPG   C4A65360  16.670  26.270  11.420
 3625DOPG   C1B65361  15.500  26.510  10.580
 3625DOPG   D2B65362  15.190  26.220  10.660
 3625DOPG   C3B65363  15.410  25.790  10.620
 3625DOPG   C4B65364  15.380  25.600  10.180
 3626DOPG   GL065365  12.410  18.890  11.710
 3626DOPG   PO465366  12.140  18.590  11.860
 3626DOPG   GL165367  11.760  18.630  11.610
 3626DOPG   GL265368  11.460  18.780  11.800
 3626DOPG   C1A65369  11.870  18.570  11.190
 3626DOPG   D2A65370  11.910  18.870  10.840
 3626DOPG   C3A65371  12.100  18.990  10.500
 3626DOPG   C4A65372  12.390  18.830  10.080
 3626DOPG   C1B65373  11.040  18.950  11.750
 3626DOPG   D2B65374  10.690  19.340  11.780
 3626DOPG   C3B65375  10.460  19.690  12.100
 3626DOPG   C4B65376  10.240  20.080  12.110
 3627DOPG   GL065377  16.730  24.470  12.170
 3627DOPG   PO465378  16.550  24.830  12.380
 3627DOPG   GL165379  16.670  25.220  12.240
 3627DOPG   GL265380  16.630  25.450  12.510
 3627DOPG   C1A65381  16.620  25.570  12.050
 3627DOPG   D2A65382  16.920  25.900  12.100
 3627DOPG   C3A65383  16.710  26.260  12.280
 3627DOPG   C4A65384  16.540  26.340  12.680
 3627DOPG   C1B65385  16.170  25.420  12.550
 3627DOPG   D2B65386  15.960  25.620  12.730
 3627DOPG   C3B65387  15.730  25.250  12.980
 3627DOPG   C4B65388  15.430  24.900  13.190
 3628DOPG   GL065389   6.200  15.750  17.210
 3628DOPG   PO465390   6.310  16.170  16.980
 3628DOPG   GL165391   6.680  16.250  16.740
 3628DOPG   GL265392   6.880  16.070  16.970
 3628DOPG   C1A65393   6.870  16.590  16.820
 3628DOPG   D2A65394   7.090  16.910  16.560
 3628DOPG   C3A65395   6.900  17.290  16.340
 3628DOPG   C4A65396   6.530  17.560  16.240
 3628DOPG   C1B65397   7.230  15.990  17.370
 3628DOPG   D2B65398   7.700  15.960  17.380
 3628DOPG   C3B65399   7.860  15.840  17.600
 3628DOPG   C4B65400   8.270  15.870  17.760
 3629DOPG   GL065401  20.050  19.040  14.590
 3629DOPG   PO465402  19.800  19.090  14.360
 3629DOPG   GL165403  19.870  18.620  14.360
 3629DOPG   GL265404  20.150  18.570  14.190
 3629DOPG   C1A65405  19.730  18.140  14.500
 3629DOPG   D2A65406  19.530  17.780  14.890
 3629DOPG   C3A65407  19.250  17.840  15.330
 3629DOPG   C4A65408  19.110  17.640  15.730
 3629DOPG   C1B65409  20.140  18.110  14.190
 3629DOPG   D2B65410  20.120  17.800  14.560
 3629DOPG   C3B65411  20.380  17.810  14.900
 3629DOPG   C4B65412  20.840  17.920  14.960
 3630DOPG   GL065413  23.180  14.240   4.830
 3630DOPG   PO465414  23.230  13.840   4.850
 3630DOPG   GL165415  22.820  13.940   5.040
 3630DOPG   GL265416  22.660  14.190   4.910
 3630DOPG   C1A65417  22.520  14.100   5.430
 3630DOPG   D2A65418  22.320  14.410   5.700
 3630DOPG   C3A65419  22.340  14.730   5.990
 3630DOPG   C4A65420  22.650  14.780   6.380
 3630DOPG   C1B65421  22.330  14.610   4.900
 3630DOPG   D2B65422  22.230  15.060   4.890
 3630DOPG   C3B65423  21.940  15.250   5.180
 3630DOPG   C4B65424  21.710  15.590   5.170
 3631DOPG   GL065425   9.570  15.940   9.580
 3631DOPG   PO465426  10.050  15.700   9.520
 3631DOPG   GL165427  10.370  15.890   9.420
 3631DOPG   GL265428  10.570  15.780   9.250
 3631DOPG   C1A65429  10.740  16.290   9.480
 3631DOPG   D2A65430  11.140  16.290   9.610
 3631DOPG   C3A65431  11.260  16.710   9.670
 3631DOPG   C4A65432  11.100  17.130   9.480
 3631DOPG   C1B65433  10.910  15.840   8.950
 3631DOPG   D2B65434  11.190  16.140   9.090
 3631DOPG   C3B65435  11.200  16.510   9.160
 3631DOPG   C4B65436  11.010  16.860   9.040
 3632DOPG   GL065437  21.810  32.300   8.000
 3632DOPG   PO465438  21.520  32.420   8.110
 3632DOPG   GL165439  21.350  32.040   8.380
 3632DOPG   GL265440  21.220  32.120   8.680
 3632DOPG   C1A65441  21.350  31.620   8.430
 3632DOPG   D2A65442  21.420  31.210   8.720
 3632DOPG   C3A65443  20.990  31.130   8.690
 3632DOPG   C4A65444  20.570  31.050   8.890
 3632DOPG   C1B65445  21.230  32.070   9.200
 3632DOPG   D2B65446  21.040  31.970   9.590
 3632DOPG   C3B65447  20.890  31.500   9.560
 3632DOPG   C4B65448  20.910  31.070   9.730
 3633DOPG   GL065449  16.650  17.600  13.170
 3633DOPG   PO465450  16.960  17.550  12.850
 3633DOPG   GL165451  16.750  17.420  12.510
 3633DOPG   GL265452  16.780  17.450  12.190
 3633DOPG   C1A65453  16.430  17.040  12.350
 3633DOPG   D2A65454  16.330  16.570  12.390
 3633DOPG   C3A65455  16.360  16.440  12.750
 3633DOPG   C4A65456  16.790  16.390  12.950
 3633DOPG   C1B65457  16.900  17.040  12.190
 3633DOPG   D2B65458  16.770  16.530  12.040
 3633DOPG   C3B65459  17.160  16.190  12.070
 3633DOPG   C4B65460  17.090  15.730  11.910
 3634DOPG   GL065461  14.660  27.090  10.150
 3634DOPG   PO465462  14.460  27.000  10.550
 3634DOPG   GL165463  14.720  26.660  10.350
 3634DOPG   GL265464  14.730  26.390  10.400
 3634DOPG   C1A65465  15.230  26.710  10.190
 3634DOPG   D2A65466  15.470  26.290  10.130
 3634DOPG   C3A65467  15.790  26.140  10.480
 3634DOPG   C4A65468  15.970  26.400  10.640
 3634DOPG   C1B65469  14.760  26.410  10.810
 3634DOPG   D2B65470  15.000  26.210  11.120
 3634DOPG   C3B65471  15.120  25.790  11.050
 3634DOPG   C4B65472  15.390  25.420  10.970
 3635DOPG   GL065473  13.320  17.150  11.720
 3635DOPG   PO465474  13.380  16.710  11.900
 3635DOPG   GL165475  13.080  16.500  11.440
 3635DOPG   GL265476  12.810  16.390  11.500
 3635DOPG   C1A65477  12.960  16.660  11.060
 3635DOPG   D2A65478  13.200  16.580  10.790
 3635DOPG   C3A65479  13.200  16.120  10.640
 3635DOPG   C4A65480  13.380  15.750  10.880
 3635DOPG   C1B65481  12.910  16.040  11.530
 3635DOPG   D2B65482  13.030  15.680  11.290
 3635DOPG   C3B65483  12.750  15.270  11.270
 3635DOPG   C4B65484  12.490  14.870  11.300
 3636DOPG   GL065485  17.390  15.610   9.100
 3636DOPG   PO465486  17.640  15.960   9.230
 3636DOPG   GL165487  17.720  16.320   9.170
 3636DOPG   GL265488  17.800  16.320   9.500
 3636DOPG   C1A65489  17.430  16.640   9.380
 3636DOPG   D2A65490  17.190  16.790   9.720
 3636DOPG   C3A65491  16.740  16.880   9.760
 3636DOPG   C4A65492  16.290  17.100   9.790
 3636DOPG   C1B65493  18.070  16.580   9.800
 3636DOPG   D2B65494  17.940  16.940  10.210
 3636DOPG   C3B65495  17.620  17.150  10.440
 3636DOPG   C4B65496  17.380  17.210  10.770
 3637DOPG   GL065497   5.380  23.410  16.460
 3637DOPG   PO465498   5.610  23.360  16.110
 3637DOPG   GL165499   5.900  22.990  16.020
 3637DOPG   GL265500   5.970  22.790  16.350
 3637DOPG   C1A65501   6.250  22.670  16.000
 3637DOPG   D2A65502   6.600  22.340  15.970
 3637DOPG   C3A65503   6.890  22.230  15.670
 3637DOPG   C4A65504   7.330  22.350  15.670
 3637DOPG   C1B65505   6.350  22.940  16.410
 3637DOPG   D2B65506   6.710  23.280  16.390
 3637DOPG   C3B65507   7.090  23.480  16.610
 3637DOPG   C4B65508   7.480  23.520  16.550
 3638DOPG   GL065509  11.920  23.390  10.430
 3638DOPG   PO465510  11.720  23.310  10.750
 3638DOPG   GL165511  12.110  23.180  10.900
 3638DOPG   GL265512  12.330  23.090  10.650
 3638DOPG   C1A65513  12.250  22.780  11.080
 3638DOPG   D2A65514  12.590  22.650  11.390
 3638DOPG   C3A65515  12.930  22.410  11.510
 3638DOPG   C4A65516  13.040  21.980  11.790
 3638DOPG   C1B65517  12.710  22.960  10.820
 3638DOPG   D2B65518  12.720  22.620  10.880
 3638DOPG   C3B65519  13.090  22.540  11.020
 3638DOPG   C4B65520  13.470  22.510  11.290
 3639DOPG   GL065521  14.350  30.390   5.950
 3639DOPG   PO465522  14.670  30.210   5.700
 3639DOPG   GL165523  14.590  30.040   6.160
 3639DOPG   GL265524  14.730  30.210   6.270
 3639DOPG   C1A65525  14.780  29.680   6.250
 3639DOPG   D2A65526  14.900  29.280   6.480
 3639DOPG   C3A65527  15.240  29.340   6.720
 3639DOPG   C4A65528  15.090  29.170   7.080
 3639DOPG   C1B65529  14.930  30.030   6.580
 3639DOPG   D2B65530  14.860  29.650   6.880
 3639DOPG   C3B65531  15.140  29.630   7.180
 3639DOPG   C4B65532  15.550  29.530   7.420
 3640DOPG   GL065533   6.400  20.260   8.040
 3640DOPG   PO465534   6.050  20.500   7.830
 3640DOPG   GL165535   6.380  20.780   7.940
 3640DOPG   GL265536   6.610  20.830   7.800
 3640DOPG   C1A65537   6.570  21.090   8.320
 3640DOPG   D2A65538   6.860  21.310   8.630
 3640DOPG   C3A65539   7.170  21.510   8.490
 3640DOPG   C4A65540   7.560  21.560   8.780
 3640DOPG   C1B65541   6.940  20.920   8.050
 3640DOPG   D2B65542   7.180  20.860   8.410
 3640DOPG   C3B65543   7.530  21.150   8.510
 3640DOPG   C4B65544   7.870  21.080   8.830
 3641DOPG   GL065545  13.240  16.000   2.190
 3641DOPG   PO465546  13.330  16.260   1.810
 3641DOPG   GL165547  13.380  16.650   2.100
 3641DOPG   GL265548  13.050  16.820   2.090
 3641DOPG   C1A65549  13.480  17.030   2.340
 3641DOPG   D2A65550  13.840  17.190   2.650
 3641DOPG   C3A65551  13.770  17.300   3.140
 3641DOPG   C4A65552  13.880  17.380   3.610
 3641DOPG   C1B65553  13.020  16.890   2.580
 3641DOPG   D2B65554  13.310  17.000   2.920
 3641DOPG   C3B65555  13.320  16.680   3.310
 3641DOPG   C4B65556  13.180  16.230   3.410
 3642DOPG   GL065557  17.020  19.030  15.540
 3642DOPG   PO465558  17.450  19.220  15.400
 3642DOPG   GL165559  17.470  19.200  15.830
 3642DOPG   GL265560  17.420  18.870  15.800
 3642DOPG   C1A65561  17.420  19.130  16.350
 3642DOPG   D2A65562  17.390  19.270  16.760
 3642DOPG   C3A65563  17.030  19.120  17.020
 3642DOPG   C4A65564  16.790  18.880  17.140
 3642DOPG   C1B65565  17.570  18.690  16.160
 3642DOPG   D2B65566  17.280  18.690  16.550
 3642DOPG   C3B65567  16.850  18.960  16.580
 3642DOPG   C4B65568  16.520  19.290  16.660
 3643DOPG   GL065569   8.590  17.470   5.120
 3643DOPG   PO465570   8.850  17.540   5.330
 3643DOPG   GL165571   9.250  17.640   5.330
 3643DOPG   GL265572   9.250  18.010   5.080
 3643DOPG   C1A65573   9.670  17.680   5.500
 3643DOPG   D2A65574   9.920  17.780   5.790
 3643DOPG   C3A65575  10.020  17.540   6.130
 3643DOPG   C4A65576  10.080  17.140   6.430
 3643DOPG   C1B65577   9.410  18.390   5.080
 3643DOPG   D2B65578   9.740  18.610   4.970
 3643DOPG   C3B65579  10.020  18.810   5.340
 3643DOPG   C4B65580  10.390  19.190   5.380
 3644DOPG   GL065581  19.540  22.610  15.380
 3644DOPG   PO465582  19.650  22.810  15.760
 3644DOPG   GL165583  19.830  22.980  16.180
 3644DOPG   GL265584  20.240  22.990  16.270
 3644DOPG   C1A65585  19.920  23.080  16.680
 3644DOPG   D2A65586  19.950  23.020  17.080
 3644DOPG   C3A65587  19.690  22.940  17.420
 3644DOPG   C4A65588  19.370  22.700  17.540
 3644DOPG   C1B65589  20.490  22.790  16.640
 3644DOPG   D2B65590  20.450  22.720  17.030
 3644DOPG   C3B65591  20.700  22.530  17.270
 3644DOPG   C4B65592  20.980  22.250  17.460
 3645DOPG   GL065593  19.860  24.620  14.940
 3645DOPG   PO465594  19.430  24.770  14.650
 3645DOPG   GL165595  19.530  25.000  15.040
 3645DOPG   GL265596  19.490  24.880  15.390
 3645DOPG   C1A65597  19.550  25.350  15.180
 3645DOPG   D2A65598  19.700  25.560  15.470
 3645DOPG   C3A65599  20.210  25.560  15.530
 3645DOPG   C4A65600  20.400  25.740  15.890
 3645DOPG   C1B65601  19.670  25.140  15.650
 3645DOPG   D2B65602  19.920  25.170  15.870
 3645DOPG   C3B65603  20.270  25.280  15.990
 3645DOPG   C4B65604  20.760  25.280  15.990
 3646DOPG   GL065605  18.280  24.390  13.610
 3646DOPG   PO465606  17.980  24.700  13.880
 3646DOPG   GL165607  17.700  24.860  14.180
 3646DOPG   GL265608  17.860  25.120  14.470
 3646DOPG   C1A65609  17.340  25.070  14.310
 3646DOPG   D2A65610  17.150  25.490  14.420
 3646DOPG   C3A65611  16.710  25.530  14.290
 3646DOPG   C4A65612  16.530  25.510  13.870
 3646DOPG   C1B65613  18.040  25.380  14.770
 3646DOPG   D2B65614  18.100  25.580  15.160
 3646DOPG   C3B65615  18.410  25.890  14.960
 3646DOPG   C4B65616  18.520  26.300  14.930
 3647DOPG   GL065617  11.390  16.890  10.920
 3647DOPG   PO465618  11.520  16.740  11.370
 3647DOPG   GL165619  11.810  16.600  11.160
 3647DOPG   GL265620  12.020  16.850  10.960
 3647DOPG   C1A65621  12.050  16.280  11.080
 3647DOPG   D2A65622  12.280  16.100  10.800
 3647DOPG   C3A65623  12.560  15.800  10.830
 3647DOPG   C4A65624  12.920  15.700  10.600
 3647DOPG   C1B65625  12.350  16.880  10.630
 3647DOPG   D2B65626  12.690  16.560  10.600
 3647DOPG   C3B65627  12.710  16.160  10.410
 3647DOPG   C4B65628  12.910  15.820  10.050
 3648DOPG   GL065629  19.160  15.950  17.520
 3648DOPG   PO465630  18.950  15.740  17.180
 3648DOPG   GL165631  18.860  16.090  16.940
 3648DOPG   GL265632  18.860  16.430  17.020
 3648DOPG   C1A65633  18.660  16.310  16.590
 3648DOPG   D2A65634  18.540  16.570  16.250
 3648DOPG   C3A65635  18.280  16.710  15.860
 3648DOPG   C4A65636  18.040  16.890  15.620
 3648DOPG   C1B65637  18.720  16.700  16.970
 3648DOPG   D2B65638  18.650  17.030  16.870
 3648DOPG   C3B65639  18.800  17.110  16.630
 3648DOPG   C4B65640  18.820  17.380  16.250
 3649DOPG   GL065641  19.170  18.050  13.380
 3649DOPG   PO465642  19.510  18.300  13.550
 3649DOPG   GL165643  19.810  18.010  13.670
 3649DOPG   GL265644  19.680  17.720  13.630
 3649DOPG   C1A65645  20.170  17.850  13.670
 3649DOPG   D2A65646  20.490  17.510  13.730
 3649DOPG   C3A65647  20.940  17.550  14.020
 3649DOPG   C4A65648  21.400  17.550  14.060
 3649DOPG   C1B65649  19.530  17.310  13.500
 3649DOPG   D2B65650  19.670  17.020  13.050
 3649DOPG   C3B65651  19.940  16.720  13.030
 3649DOPG   C4B65652  20.030  16.450  13.290
 3650DOPG   GL065653  11.120  17.350  11.760
 3650DOPG   PO465654  10.770  17.490  11.940
 3650DOPG   GL165655  10.730  17.690  11.690
 3650DOPG   GL265656  10.760  17.570  11.370
 3650DOPG   C1A65657  11.090  17.920  11.460
 3650DOPG   D2A65658  11.070  18.390  11.330
 3650DOPG   C3A65659  11.270  18.730  11.310
 3650DOPG   C4A65660  11.630  19.010  11.300
 3650DOPG   C1B65661  10.610  18.100  11.370
 3650DOPG   D2B65662  10.610  18.580  11.200
 3650DOPG   C3B65663  10.780  18.970  11.210
 3650DOPG   C4B65664  11.110  19.250  11.260
 3651DOPG   GL065665  20.490  24.060  15.880
 3651DOPG   PO465666  20.090  24.180  15.590
 3651DOPG   GL165667  20.070  24.360  16.060
 3651DOPG   GL265668  20.080  24.100  16.290
 3651DOPG   C1A65669  19.870  24.590  16.320
 3651DOPG   D2A65670  19.540  24.960  16.410
 3651DOPG   C3A65671  19.110  24.860  16.740
 3651DOPG   C4A65672  18.920  24.750  17.100
 3651DOPG   C1B65673  20.280  23.940  16.660
 3651DOPG   D2B65674  20.410  23.990  17.060
 3651DOPG   C3B65675  20.710  24.300  17.140
 3651DOPG   C4B65676  20.770  24.620  17.380
 3652DOPG   GL065677   9.430  21.350  13.470
 3652DOPG   PO465678   9.300  20.910  13.260
 3652DOPG   GL165679   9.560  20.660  12.940
 3652DOPG   GL265680   9.470  20.600  12.680
 3652DOPG   C1A65681  10.010  20.340  12.840
 3652DOPG   D2A65682  10.190  19.940  13.020
 3652DOPG   C3A65683  10.070  19.530  12.900
 3652DOPG   C4A65684  10.200  19.480  12.440
 3652DOPG   C1B65685   9.560  20.230  12.710
 3652DOPG   D2B65686   9.790  19.840  12.650
 3652DOPG   C3B65687   9.620  19.610  12.400
 3652DOPG   C4B65688   9.780  19.180  12.210
 3653DOPG   GL065689  17.310  18.290  14.230
 3653DOPG   PO465690  16.910  18.090  14.270
 3653DOPG   GL165691  17.060  17.710  14.490
 3653DOPG   GL265692  17.220  17.380  14.420
 3653DOPG   C1A65693  17.020  17.390  14.920
 3653DOPG   D2A65694  17.020  17.040  15.230
 3653DOPG   C3A65695  16.780  16.700  15.200
 3653DOPG   C4A65696  16.330  16.760  15.300
 3653DOPG   C1B65697  17.620  17.140  14.480
 3653DOPG   D2B65698  17.890  16.780  14.500
 3653DOPG   C3B65699  17.620  16.320  14.690
 3653DOPG   C4B65700  17.350  16.100  15.060
 3654DOPG   GL065701   5.750  19.420   9.960
 3654DOPG   PO465702   6.110  19.520  10.260
 3654DOPG   GL165703   6.260  19.790  10.370
 3654DOPG   GL265704   6.070  20.040  10.370
 3654DOPG   C1A65705   6.540  20.050  10.520
 3654DOPG   D2A65706   6.910  20.120  10.690
 3654DOPG   C3A65707   7.160  19.740  10.700
 3654DOPG   C4A65708   7.380  19.280  10.720
 3654DOPG   C1B65709   6.430  20.440  10.250
 3654DOPG   D2B65710   6.840  20.830  10.360
 3654DOPG   C3B65711   6.780  21.240  10.470
 3654DOPG   C4B65712   6.620  21.690  10.570
 3655DOPG   GL065713  19.300  19.210  15.130
 3655DOPG   PO465714  19.080  18.820  15.060
 3655DOPG   GL165715  19.220  18.700  15.360
 3655DOPG   GL265716  19.350  18.880  15.570
 3655DOPG   C1A65717  19.060  18.630  15.840
 3655DOPG   D2A65718  19.060  18.420  16.240
 3655DOPG   C3A65719  18.820  18.770  16.400
 3655DOPG   C4A65720  18.660  18.770  16.810
 3655DOPG   C1B65721  19.300  18.950  16.060
 3655DOPG   D2B65722  19.520  19.280  16.220
 3655DOPG   C3B65723  19.520  19.170  16.700
 3655DOPG   C4B65724  19.550  19.120  17.150
 3656DOPG   GL065725   8.790  16.570  12.640
 3656DOPG   PO465726   9.190  16.780  12.720
 3656DOPG   GL165727   9.290  17.140  12.970
 3656DOPG   GL265728   9.160  17.420  12.900
 3656DOPG   C1A65729   9.650  17.390  13.140
 3656DOPG   D2A65730   9.820  17.800  13.220
 3656DOPG   C3A65731   9.760  18.070  13.670
 3656DOPG   C4A65732   9.450  18.070  13.900
 3656DOPG   C1B65733   9.330  17.750  13.180
 3656DOPG   D2B65734   9.490  18.170  13.250
 3656DOPG   C3B65735   9.420  18.510  13.610
 3656DOPG   C4B65736   9.190  18.550  14.000
 3657DOPG   GL065737  15.920  23.560  12.610
 3657DOPG   PO465738  15.760  23.150  12.690
 3657DOPG   GL165739  15.380  23.540  12.630
 3657DOPG   GL265740  15.490  23.790  12.380
 3657DOPG   C1A65741  15.160  23.750  12.930
 3657DOPG   D2A65742  15.190  23.740  13.460
 3657DOPG   C3A65743  14.810  23.900  13.820
 3657DOPG   C4A65744  14.680  23.940  14.250
 3657DOPG   C1B65745  15.140  24.080  12.540
 3657DOPG   D2B65746  14.840  24.360  12.570
 3657DOPG   C3B65747  14.500  24.050  12.710
 3657DOPG   C4B65748  14.550  23.640  12.780
 3658DOPG   GL065749   5.980  27.240  10.760
 3658DOPG   PO465750   6.400  27.410  10.890
 3658DOPG   GL165751   6.760  27.290  11.060
 3658DOPG   GL265752   6.900  27.170  11.360
 3658DOPG   C1A65753   7.260  27.150  10.890
 3658DOPG   D2A65754   7.510  27.140  10.520
 3658DOPG   C3A65755   7.560  26.870  10.220
 3658DOPG   C4A65756   7.760  26.470  10.060
 3658DOPG   C1B65757   7.120  26.930  11.750
 3658DOPG   D2B65758   7.320  26.580  12.040
 3658DOPG   C3B65759   7.750  26.460  12.110
 3658DOPG   C4B65760   8.170  26.190  12.290
 3659DOPG   GL065761  16.470  20.020  15.330
 3659DOPG   PO465762  16.340  19.950  15.680
 3659DOPG   GL165763  16.190  19.590  16.020
 3659DOPG   GL265764  16.070  19.270  15.900
 3659DOPG   C1A65765  16.070  19.470  16.500
 3659DOPG   D2A65766  16.080  19.260  16.860
 3659DOPG   C3A65767  16.150  19.610  17.140
 3659DOPG   C4A65768  16.210  20.080  17.130
 3659DOPG   C1B65769  15.900  18.960  16.170
 3659DOPG   D2B65770  15.540  18.610  16.400
 3659DOPG   C3B65771  15.100  18.830  16.600
 3659DOPG   C4B65772  14.770  19.210  16.640
 3660DOPG   GL065773  11.590  18.260   2.250
 3660DOPG   PO465774  11.620  18.560   2.000
 3660DOPG   GL165775  11.960  18.650   2.270
 3660DOPG   GL265776  12.140  18.430   2.160
 3660DOPG   C1A65777  12.000  18.880   2.740
 3660DOPG   D2A65778  12.130  18.670   3.110
 3660DOPG   C3A65779  12.310  18.950   3.410
 3660DOPG   C4A65780  12.160  19.420   3.540
 3660DOPG   C1B65781  12.420  18.030   2.340
 3660DOPG   D2B65782  12.360  17.720   2.630
 3660DOPG   C3B65783  12.230  17.860   3.040
 3660DOPG   C4B65784  11.970  18.200   3.190
 3661DOPG   GL065785   8.500  17.230  11.100
 3661DOPG   PO465786   8.500  17.380  10.770
 3661DOPG   GL165787   8.550  17.820  10.760
 3661DOPG   GL265788   8.210  17.830  10.690
 3661DOPG   C1A65789   8.820  18.140  10.940
 3661DOPG   D2A65790   8.840  18.560  11.020
 3661DOPG   C3A65791   8.460  18.750  11.230
 3661DOPG   C4A65792   8.050  18.780  11.020
 3661DOPG   C1B65793   8.410  18.230  10.530
 3661DOPG   D2B65794   8.600  18.650  10.610
 3661DOPG   C3B65795   8.980  18.720  10.550
 3661DOPG   C4B65796   9.390  18.770  10.560
 3662DOPG   GL065797  22.700  23.750  18.010
 3662DOPG   PO465798  22.900  23.470  18.320
 3662DOPG   GL165799  23.090  23.430  17.910
 3662DOPG   GL265800  22.830  23.290  17.720
 3662DOPG   C1A65801  23.340  23.340  17.550
 3662DOPG   D2A65802  23.280  22.920  17.470
 3662DOPG   C3A65803  23.130  22.490  17.310
 3662DOPG   C4A65804  23.570  22.280  17.310
 3662DOPG   C1B65805  22.980  23.600  17.360
 3662DOPG   D2B65806  23.200  23.960  17.430
 3662DOPG   C3B65807  23.090  24.250  17.170
 3662DOPG   C4B65808  22.850  24.590  17.050
 3663DOPG   GL065809  24.990  17.000   3.980
 3663DOPG   PO465810  24.650  17.260   4.200
 3663DOPG   GL165811  24.630  17.510   4.620
 3663DOPG   GL265812  24.830  17.450   4.900
 3663DOPG   C1A65813  24.330  17.760   4.670
 3663DOPG   D2A65814  24.160  17.770   5.130
 3663DOPG   C3A65815  23.750  18.000   5.440
 3663DOPG   C4A65816  23.590  18.260   5.730
 3663DOPG   C1B65817  24.390  17.340   5.000
 3663DOPG   D2B65818  23.960  17.310   4.960
 3663DOPG   C3B65819  23.590  17.500   5.310
 3663DOPG   C4B65820  23.330  17.600   5.640
 3664DOPG   GL065821  16.820  17.550  23.260
 3664DOPG   PO465822  16.790  17.630  23.630
 3664DOPG   GL165823  16.630  18.000  23.430
 3664DOPG   GL265824  16.800  18.200  23.250
 3664DOPG   C1A65825  16.260  18.150  23.140
 3664DOPG   D2A65826  15.990  18.320  22.750
 3664DOPG   C3A65827  16.170  18.350  22.380
 3664DOPG   C4A65828  16.410  18.190  22.070
 3664DOPG   C1B65829  16.700  17.960  22.900
 3664DOPG   D2B65830  16.490  17.910  22.510
 3664DOPG   C3B65831  16.700  17.530  22.320
 3664DOPG   C4B65832  16.700  17.280  21.880
 3665DOPG   GL065833  15.390  21.080  14.770
 3665DOPG   PO465834  15.420  21.350  14.460
 3665DOPG   GL165835  15.310  21.690  14.770
 3665DOPG   GL265836  15.190  21.520  15.020
 3665DOPG   C1A65837  15.050  22.040  14.750
 3665DOPG   D2A65838  14.650  22.160  15.020
 3665DOPG   C3A65839  14.700  22.360  15.410
 3665DOPG   C4A65840  15.020  22.200  15.690
 3665DOPG   C1B65841  14.890  21.650  15.180
 3665DOPG   D2B65842  14.440  21.840  15.380
 3665DOPG   C3B65843  14.050  21.780  15.190
 3665DOPG   C4B65844  13.650  21.510  15.220
 3666DOPG   GL065845  18.760  19.890  10.800
 3666DOPG   PO465846  18.890  19.700  10.320
 3666DOPG   GL165847  19.340  19.650  10.190
 3666DOPG   GL265848  19.300  19.320  10.330
 3666DOPG   C1A65849  19.550  19.750   9.870
 3666DOPG   D2A65850  19.950  19.790   9.610
 3666DOPG   C3A65851  20.020  20.120   9.580
 3666DOPG   C4A65852  19.860  20.620   9.730
 3666DOPG   C1B65853  19.090  18.900  10.160
 3666DOPG   D2B65854  18.860  18.640   9.790
 3666DOPG   C3B65855  18.520  18.690   9.560
 3666DOPG   C4B65856  18.270  18.550   9.180
 3667DOPG   GL065857  15.560  31.120  20.150
 3667DOPG   PO465858  15.280  30.800  20.180
 3667DOPG   GL165859  15.340  30.410  19.990
 3667DOPG   GL265860  15.170  30.190  19.860
 3667DOPG   C1A65861  15.510  30.250  19.520
 3667DOPG   D2A65862  15.880  30.400  19.310
 3667DOPG   C3A65863  16.020  30.080  19.130
 3667DOPG   C4A65864  15.970  29.840  18.750
 3667DOPG   C1B65865  14.850  29.960  19.610
 3667DOPG   D2B65866  14.800  29.670  19.350
 3667DOPG   C3B65867  15.080  29.400  19.150
 3667DOPG   C4B65868  15.330  29.230  18.890
 3668DOPG   GL065869  18.490  28.570  10.230
 3668DOPG   PO465870  18.220  28.730  10.500
 3668DOPG   GL165871  18.130  28.370  10.720
 3668DOPG   GL265872  18.410  28.070  10.560
 3668DOPG   C1A65873  17.930  27.980  10.740
 3668DOPG   D2A65874  17.590  27.730  10.830
 3668DOPG   C3A65875  17.140  27.680  10.580
 3668DOPG   C4A65876  17.040  27.260  10.420
 3668DOPG   C1B65877  18.400  27.760  10.890
 3668DOPG   D2B65878  18.500  27.820  11.370
 3668DOPG   C3B65879  18.330  27.550  11.620
 3668DOPG   C4B65880  18.230  27.320  11.460
 3669DOPG   GL065881  19.950  24.540  24.970
 3669DOPG   PO465882  20.290  24.430  24.690
 3669DOPG   GL165883  20.180  24.340  24.290
 3669DOPG   GL265884  20.110  24.020  24.200
 3669DOPG   C1A65885  20.200  24.430  23.890
 3669DOPG   D2A65886  19.970  24.320  23.520
 3669DOPG   C3A65887  20.030  24.110  23.270
 3669DOPG   C4A65888  20.160  24.080  22.930
 3669DOPG   C1B65889  20.020  23.990  23.900
 3669DOPG   D2B65890  19.960  23.690  23.510
 3669DOPG   C3B65891  20.090  23.260  23.630
 3669DOPG   C4B65892  20.400  23.060  23.890
 3670DOPG   GL065893  10.230  22.190  12.530
 3670DOPG   PO465894  10.540  21.980  12.470
 3670DOPG   GL165895  10.790  21.590  12.330
 3670DOPG   GL265896  10.980  21.560  12.040
 3670DOPG   C1A65897  10.950  21.190  12.620
 3670DOPG   D2A65898  11.150  20.790  12.860
 3670DOPG   C3A65899  11.190  20.440  12.730
 3670DOPG   C4A65900  11.350  20.150  12.440
 3670DOPG   C1B65901  11.250  21.160  12.210
 3670DOPG   D2B65902  11.590  20.970  12.490
 3670DOPG   C3B65903  11.660  20.550  12.530
 3670DOPG   C4B65904  11.760  20.180  12.760
 3671DOPG   GL065905   9.820   9.870  14.950
 3671DOPG   PO465906  10.020  10.100  15.200
 3671DOPG   GL165907  10.390  10.420  15.060
 3671DOPG   GL265908  10.650  10.480  14.870
 3671DOPG   C1A65909  10.640  10.840  15.200
 3671DOPG   D2A65910  10.960  11.060  15.100
 3671DOPG   C3A65911  11.340  10.990  15.320
 3671DOPG   C4A65912  11.680  11.130  15.390
 3671DOPG   C1B65913  10.850  10.630  14.530
 3671DOPG   D2B65914  11.020  10.840  14.150
 3671DOPG   C3B65915  11.160  11.200  14.160
 3671DOPG   C4B65916  11.460  11.370  14.270
 3672DOPG   GL065917  21.860  24.830  12.610
 3672DOPG   PO465918  21.550  24.980  12.900
 3672DOPG   GL165919  21.540  25.340  12.720
 3672DOPG   GL265920  21.220  25.470  12.580
 3672DOPG   C1A65921  21.770  25.730  12.720
 3672DOPG   D2A65922  22.050  26.060  12.540
 3672DOPG   C3A65923  22.350  25.840  12.170
 3672DOPG   C4A65924  22.350  25.680  11.730
 3672DOPG   C1B65925  21.420  25.650  12.220
 3672DOPG   D2B65926  21.300  25.820  11.750
 3672DOPG   C3B65927  21.320  25.880  11.240
 3672DOPG   C4B65928  21.310  25.810  10.740
 3673DOPG   GL065929  15.820  32.920  15.690
 3673DOPG   PO465930  16.080  33.280  15.750
 3673DOPG   GL165931  16.400  33.000  15.760
 3673DOPG   GL265932  16.290  32.890  15.460
 3673DOPG   C1A65933  16.730  32.520  15.780
 3673DOPG   D2A65934  17.130  32.280  15.820
 3673DOPG   C3A65935  17.240  31.960  16.010
 3673DOPG   C4A65936  17.440  31.750  16.370
 3673DOPG   C1B65937  16.280  32.730  15.110
 3673DOPG   D2B65938  16.380  32.390  14.800
 3673DOPG   C3B65939  16.370  31.990  15.090
 3673DOPG   C4B65940  16.390  31.740  15.370
 3674DOPG   GL065941  18.230  24.850  13.410
 3674DOPG   PO465942  18.200  25.400  13.430
 3674DOPG   GL165943  18.100  25.660  13.700
 3674DOPG   GL265944  17.960  25.850  13.490
 3674DOPG   C1A65945  17.910  25.980  14.060
 3674DOPG   D2A65946  17.930  26.410  14.070
 3674DOPG   C3A65947  18.170  26.550  13.780
 3674DOPG   C4A65948  18.260  26.890  13.760
 3674DOPG   C1B65949  18.260  26.080  13.700
 3674DOPG   D2B65950  18.430  26.080  14.080
 3674DOPG   C3B65951  18.390  26.470  14.370
 3674DOPG   C4B65952  18.400  26.710  14.640
 3675DOPG   GL065953  18.930  25.200  11.260
 3675DOPG   PO465954  18.700  24.840  11.510
 3675DOPG   GL165955  18.460  25.130  11.250
 3675DOPG   GL265956  18.300  25.130  11.000
 3675DOPG   C1A65957  18.560  25.520  11.170
 3675DOPG   D2A65958  18.600  25.810  10.860
 3675DOPG   C3A65959  19.010  26.020  10.590
 3675DOPG   C4A65960  19.040  26.490  10.480
 3675DOPG   C1B65961  18.190  25.570  10.700
 3675DOPG   D2B65962  18.080  26.000  10.510
 3675DOPG   C3B65963  18.110  26.320  10.310
 3675DOPG   C4B65964  18.590  26.210  10.130
 3676DOPG   GL065965  13.240  17.330   8.050
 3676DOPG   PO465966  13.340  17.490   8.440
 3676DOPG   GL165967  12.990  17.350   8.650
 3676DOPG   GL265968  12.830  17.440   8.370
 3676DOPG   C1A65969  12.740  17.280   8.950
 3676DOPG   D2A65970  12.520  17.080   9.290
 3676DOPG   C3A65971  12.590  17.070   9.750
 3676DOPG   C4A65972  12.630  16.770  10.150
 3676DOPG   C1B65973  12.600  17.110   8.490
 3676DOPG   D2B65974  12.200  17.040   8.630
 3676DOPG   C3B65975  12.090  16.980   9.060
 3676DOPG   C4B65976  12.000  16.830   9.440
 3677DOPG   GL065977  14.050  24.750   7.800
 3677DOPG   PO465978  14.070  24.730   8.280
 3677DOPG   GL165979  14.380  24.710   8.670
 3677DOPG   GL265980  14.380  24.410   8.760
 3677DOPG   C1A65981  14.730  24.610   9.030
 3677DOPG   D2A65982  15.000  24.370   9.390
 3677DOPG   C3A65983  14.810  24.300   9.750
 3677DOPG   C4A65984  14.470  24.220   9.990
 3677DOPG   C1B65985  14.240  24.280   9.090
 3677DOPG   D2B65986  14.380  24.210   9.490
 3677DOPG   C3B65987  14.490  23.870   9.590
 3677DOPG   C4B65988  14.510  23.660   9.880
 3678DOPG   GL065989  16.900  29.360  11.910
 3678DOPG   PO465990  16.720  29.690  12.310
 3678DOPG   GL165991  16.410  29.830  12.400
 3678DOPG   GL265992  16.210  29.650  12.360
 3678DOPG   C1A65993  16.350  30.190  12.250
 3678DOPG   D2A65994  16.370  30.590  11.860
 3678DOPG   C3A65995  16.060  30.870  11.640
 3678DOPG   C4A65996  15.640  30.860  11.360
 3678DOPG   C1B65997  15.970  29.970  12.460
 3678DOPG   D2B65998  15.780  30.280  12.220
 3678DOPG   C3B65999  15.590  30.540  12.500
 3678DOPG   C4B66000  15.610  30.870  12.770
 3679DOPG   GL066001  13.570  11.380  20.360
 3679DOPG   PO466002  13.300  11.660  20.610
 3679DOPG   GL166003  13.370  11.860  20.290
 3679DOPG   GL266004  13.650  11.950  20.360
 3679DOPG   C1A66005  13.450  11.550  19.920
 3679DOPG   D2A66006  13.500  11.350  19.580
 3679DOPG   C3A66007  13.490  10.930  19.450
 3679DOPG   C4A66008  13.160  10.600  19.450
 3679DOPG   C1B66009  13.710  12.410  20.350
 3679DOPG   D2B66010  13.660  12.710  20.060
 3679DOPG   C3B66011  13.980  12.890  19.710
 3679DOPG   C4B66012  13.980  12.890  19.310
 3680DOPG   GL066013  19.840  14.830  10.800
 3680DOPG   PO466014  20.180  15.000  11.120
 3680DOPG   GL166015  20.040  15.280  11.360
 3680DOPG   GL266016  20.080  15.190  11.610
 3680DOPG   C1A66017  20.110  15.700  11.600
 3680DOPG   D2A66018  19.630  15.830  11.750
 3680DOPG   C3A66019  19.510  15.970  12.050
 3680DOPG   C4A66020  19.420  16.300  12.440
 3680DOPG   C1B66021  19.820  15.370  11.920
 3680DOPG   D2B66022  19.960  15.710  12.090
 3680DOPG   C3B66023  20.050  16.090  11.850
 3680DOPG   C4B66024  19.920  16.560  11.970
 3681DOPG   GL066025  10.410  14.980   6.220
 3681DOPG   PO466026  10.010  15.070   6.440
 3681DOPG   GL166027  10.350  15.260   6.680
 3681DOPG   GL266028  10.350  15.540   6.500
 3681DOPG   C1A66029  10.660  15.470   7.010
 3681DOPG   D2A66030  10.870  15.580   7.310
 3681DOPG   C3A66031  11.270  15.660   7.210
 3681DOPG   C4A66032  11.690  15.570   7.030
 3681DOPG   C1B66033  10.770  15.810   6.640
 3681DOPG   D2B66034  11.180  15.630   6.720
 3681DOPG   C3B66035  11.560  15.740   6.540
 3681DOPG   C4B66036  11.900  15.930   6.750
 3682DOPG   GL066037   9.050  14.540  12.090
 3682DOPG   PO466038   9.240  14.120  12.350
 3682DOPG   GL166039   9.500  13.830  12.640
 3682DOPG   GL266040   9.570  13.950  12.980
 3682DOPG   C1A66041   9.970  13.780  12.760
 3682DOPG   D2A66042  10.320  13.570  13.010
 3682DOPG   C3A66043  10.230  13.570  13.440
 3682DOPG   C4A66044  10.460  13.560  13.880
 3682DOPG   C1B66045   9.950  13.970  13.280
 3682DOPG   D2B66046  10.160  14.190  13.680
 3682DOPG   C3B66047  10.660  14.010  13.650
 3682DOPG   C4B66048  10.850  13.680  13.600
 3683DOPG   GL066049  10.320  31.200  11.320
 3683DOPG   PO466050  10.160  30.900  11.530
 3683DOPG   GL166051  10.320  30.420  11.670
 3683DOPG   GL266052  10.200  30.090  11.590
 3683DOPG   C1A66053  10.670  30.150  11.430
 3683DOPG   D2A66054  10.790  29.790  11.470
 3683DOPG   C3A66055  10.680  29.510  11.030
 3683DOPG   C4A66056  10.380  29.400  10.730
 3683DOPG   C1B66057  10.330  29.680  11.680
 3683DOPG   D2B66058  10.340  29.300  11.560
 3683DOPG   C3B66059  10.440  29.080  11.190
 3683DOPG   C4B66060  10.580  28.910  10.760
 3684DOPG   GL066061  10.850  16.370  16.100
 3684DOPG   PO466062  10.780  16.380  16.570
 3684DOPG   GL166063  10.340  16.400  16.400
 3684DOPG   GL266064  10.380  16.640  16.120
 3684DOPG   C1A66065   9.990  16.250  16.270
 3684DOPG   D2A66066   9.680  16.250  16.060
 3684DOPG   C3A66067   9.800  16.560  15.860
 3684DOPG   C4A66068  10.060  16.900  15.670
 3684DOPG   C1B66069  10.550  16.660  15.710
 3684DOPG   D2B66070  10.220  16.460  15.440
 3684DOPG   C3B66071  10.030  16.210  15.650
 3684DOPG   C4B66072  10.130  15.790  15.450
 3685DOPG   GL066073   5.460  23.570  14.690
 3685DOPG   PO466074   5.350  23.920  14.480
 3685DOPG   GL166075   5.820  23.820  14.330
 3685DOPG   GL266076   5.920  24.180  14.490
 3685DOPG   C1A66077   6.050  23.470  14.220
 3685DOPG   D2A66078   6.230  23.110  14.010
 3685DOPG   C3A66079   6.470  23.280  13.670
 3685DOPG   C4A66080   6.690  23.490  13.400
 3685DOPG   C1B66081   6.270  23.950  14.300
 3685DOPG   D2B66082   6.420  23.830  13.950
 3685DOPG   C3B66083   6.070  23.630  13.710
 3685DOPG   C4B66084   5.630  23.410  13.380
 3686DOPG   GL066085  17.480  23.700  10.720
 3686DOPG   PO466086  17.410  23.420  10.350
 3686DOPG   GL166087  17.140  23.510  10.000
 3686DOPG   GL266088  16.820  23.480  10.040
 3686DOPG   C1A66089  17.080  23.610   9.600
 3686DOPG   D2A66090  17.120  23.930   9.380
 3686DOPG   C3A66091  16.870  24.200   9.150
 3686DOPG   C4A66092  16.810  24.690   9.200
 3686DOPG   C1B66093  16.610  23.820   9.980
 3686DOPG   D2B66094  16.730  24.070   9.600
 3686DOPG   C3B66095  16.580  23.830   9.320
 3686DOPG   C4B66096  16.310  23.550   9.010
 3687DOPG   GL066097  16.110  33.830  10.900
 3687DOPG   PO466098  16.470  33.960  11.110
 3687DOPG   GL166099  16.620  33.560  11.200
 3687DOPG   GL266100  16.620  33.540  11.540
 3687DOPG   C1A66101  16.840  33.100  11.230
 3687DOPG   D2A66102  16.850  32.650  11.350
 3687DOPG   C3A66103  17.160  32.400  11.590
 3687DOPG   C4A66104  17.120  32.060  11.870
 3687DOPG   C1B66105  16.740  33.350  11.830
 3687DOPG   D2B66106  16.700  33.400  12.270
 3687DOPG   C3B66107  16.810  33.080  12.550
 3687DOPG   C4B66108  16.910  32.650  12.590
 3688DOPG   GL066109  21.270  16.940   1.920
 3688DOPG   PO466110  21.240  16.910   2.240
 3688DOPG   GL166111  21.030  16.810   2.620
 3688DOPG   GL266112  20.750  16.930   2.710
 3688DOPG   C1A66113  21.160  16.670   3.060
 3688DOPG   D2A66114  21.330  16.370   3.300
 3688DOPG   C3A66115  21.010  16.050   3.580
 3688DOPG   C4A66116  20.800  15.850   3.910
 3688DOPG   C1B66117  21.010  17.310   2.930
 3688DOPG   D2B66118  21.220  17.630   2.870
 3688DOPG   C3B66119  21.000  17.880   3.110
 3688DOPG   C4B66120  20.830  18.180   3.290
 3689DOPG   GL066121  18.130  24.080  11.270
 3689DOPG   PO466122  18.340  24.230  10.900
 3689DOPG   GL166123  18.480  24.530  10.590
 3689DOPG   GL266124  18.590  24.830  10.620
 3689DOPG   C1A66125  18.350  24.860  10.230
 3689DOPG   D2A66126  18.480  25.060   9.860
 3689DOPG   C3A66127  18.060  25.290   9.710
 3689DOPG   C4A66128  17.930  25.760   9.480
 3689DOPG   C1B66129  18.590  25.260  10.450
 3689DOPG   D2B66130  18.630  25.690  10.340
 3689DOPG   C3B66131  19.010  25.710  10.020
 3689DOPG   C4B66132  19.260  25.900   9.640
 3690DOPG   GL066133  15.460  32.060   7.320
 3690DOPG   PO466134  15.930  31.880   7.430
 3690DOPG   GL166135  16.020  31.430   7.610
 3690DOPG   GL266136  16.100  31.300   7.340
 3690DOPG   C1A66137  16.020  31.120   7.920
 3690DOPG   D2A66138  15.890  30.790   8.230
 3690DOPG   C3A66139  16.060  30.670   8.650
 3690DOPG   C4A66140  16.390  30.450   8.740
 3690DOPG   C1B66141  16.340  30.990   7.590
 3690DOPG   D2B66142  16.470  30.810   8.030
 3690DOPG   C3B66143  16.280  31.150   8.370
 3690DOPG   C4B66144  16.320  31.650   8.450
 3691DOPG   GL066145  20.190  19.410  14.240
 3691DOPG   PO466146  20.440  18.930  14.080
 3691DOPG   GL166147  20.660  18.640  14.220
 3691DOPG   GL266148  20.490  18.740  14.530
 3691DOPG   C1A66149  20.930  18.480  13.930
 3691DOPG   D2A66150  21.330  18.420  13.780
 3691DOPG   C3A66151  21.360  18.650  13.400
 3691DOPG   C4A66152  21.220  18.910  13.030
 3691DOPG   C1B66153  20.640  18.380  14.650
 3691DOPG   D2B66154  21.050  18.340  14.680
 3691DOPG   C3B66155  21.040  18.530  15.080
 3691DOPG   C4B66156  21.200  18.500  15.490
 3692DOPG   GL066157  17.410  24.490  11.970
 3692DOPG   PO466158  17.010  24.470  11.740
 3692DOPG   GL166159  16.790  24.830  11.830
 3692DOPG   GL266160  16.920  25.060  11.590
 3692DOPG   C1A66161  16.450  25.220  11.750
 3692DOPG   D2A66162  16.160  25.530  11.660
 3692DOPG   C3A66163  15.900  25.930  11.770
 3692DOPG   C4A66164  15.600  26.320  11.860
 3692DOPG   C1B66165  16.670  25.260  11.290
 3692DOPG   D2B66166  16.420  25.480  10.910
 3692DOPG   C3B66167  16.600  25.300  10.610
 3692DOPG   C4B66168  16.830  25.060  10.360
 3693DOPG   GL066169  18.610  19.040  11.600
 3693DOPG   PO466170  18.840  19.080  11.290
 3693DOPG   GL166171  19.010  18.870  10.970
 3693DOPG   GL266172  19.170  19.050  10.880
 3693DOPG   C1A66173  19.410  18.640  11.030
 3693DOPG   D2A66174  19.680  18.300  11.000
 3693DOPG   C3A66175  19.590  17.930  10.860
 3693DOPG   C4A66176  19.480  17.550  10.900
 3693DOPG   C1B66177  19.350  18.840  10.590
 3693DOPG   D2B66178  19.620  18.650  10.220
 3693DOPG   C3B66179  19.550  18.720   9.770
 3693DOPG   C4B66180  19.160  18.840   9.440
 3694DOPG   GL066181  14.900  17.220  13.200
 3694DOPG   PO466182  14.610  17.400  13.370
 3694DOPG   GL166183  14.560  17.290  13.790
 3694DOPG   GL266184  14.900  17.310  13.790
 3694DOPG   C1A66185  14.380  17.100  14.180
 3694DOPG   D2A66186  14.240  17.130  14.550
 3694DOPG   C3A66187  14.280  17.550  14.780
 3694DOPG   C4A66188  14.250  17.910  15.130
 3694DOPG   C1B66189  15.050  16.990  13.760
 3694DOPG   D2B66190  15.260  16.560  13.610
 3694DOPG   C3B66191  15.270  16.150  13.440
 3694DOPG   C4B66192  15.000  15.840  13.310
 3695DOPG   GL066193  13.790  20.950  13.080
 3695DOPG   PO466194  13.970  20.590  13.250
 3695DOPG   GL166195  13.440  20.530  13.180
 3695DOPG   GL266196  13.370  20.660  12.900
 3695DOPG   C1A66197  13.330  20.880  13.310
 3695DOPG   D2A66198  13.200  21.380  13.420
 3695DOPG   C3A66199  12.830  21.620  13.500
 3695DOPG   C4A66200  12.570  21.750  13.740
 3695DOPG   C1B66201  13.010  20.840  12.760
 3695DOPG   D2B66202  12.570  20.810  12.690
 3695DOPG   C3B66203  12.410  21.000  13.020
 3695DOPG   C4B66204  12.110  20.920  13.400
 3696DOPG   GL066205  14.530  21.290  14.290
 3696DOPG   PO466206  14.750  20.930  14.500
 3696DOPG   GL166207  14.430  20.950  14.810
 3696DOPG   GL266208  14.320  21.210  14.730
 3696DOPG   C1A66209  14.360  20.810  15.220
 3696DOPG   D2A66210  14.090  20.860  15.490
 3696DOPG   C3A66211  14.000  20.830  15.960
 3696DOPG   C4A66212  14.020  20.720  16.370
 3696DOPG   C1B66213  13.990  21.400  14.830
 3696DOPG   D2B66214  13.830  21.730  14.680
 3696DOPG   C3B66215  13.530  21.700  14.680
 3696DOPG   C4B66216  13.050  21.710  14.520
 3697DOPG   GL066217  26.770  28.300   6.090
 3697DOPG   PO466218  26.620  28.350   6.460
 3697DOPG   GL166219  26.630  28.060   6.820
 3697DOPG   GL266220  26.590  28.290   7.060
 3697DOPG   C1A66221  26.470  27.760   7.220
 3697DOPG   D2A66222  26.220  27.630   7.550
 3697DOPG   C3A66223  26.160  27.170   7.710
 3697DOPG   C4A66224  26.150  26.680   7.830
 3697DOPG   C1B66225  26.390  28.180   7.480
 3697DOPG   D2B66226  26.030  28.210   7.660
 3697DOPG   C3B66227  25.630  27.980   7.690
 3697DOPG   C4B66228  25.200  27.730   7.540
 3698DOPG   GL066229  24.540  20.120  10.510
 3698DOPG   PO466230  24.390  20.400  10.830
 3698DOPG   GL166231  23.990  20.480  11.030
 3698DOPG   GL266232  23.720  20.420  10.870
 3698DOPG   C1A66233  24.030  20.880  11.300
 3698DOPG   D2A66234  23.770  21.040  11.360
 3698DOPG   C3A66235  23.930  21.270  11.770
 3698DOPG   C4A66236  24.130  21.380  12.020
 3698DOPG   C1B66237  23.490  20.780  10.970
 3698DOPG   D2B66238  23.350  20.790  11.430
 3698DOPG   C3B66239  23.480  21.040  11.800
 3698DOPG   C4B66240  23.520  21.460  11.940
 3699DOPG   GL066241  16.020  17.910  11.810
 3699DOPG   PO466242  15.780  17.920  12.120
 3699DOPG   GL166243  15.700  17.500  12.070
 3699DOPG   GL266244  15.750  17.410  11.760
 3699DOPG   C1A66245  15.970  17.120  12.090
 3699DOPG   D2A66246  16.210  16.740  11.970
 3699DOPG   C3A66247  15.930  16.340  11.990
 3699DOPG   C4A66248  15.690  16.030  11.820
 3699DOPG   C1B66249  15.510  17.140  11.520
 3699DOPG   D2B66250  15.630  16.830  11.340
 3699DOPG   C3B66251  15.300  16.580  11.340
 3699DOPG   C4B66252  14.990  16.290  11.480
 3700DOPG   GL066253  15.470  22.370  13.670
 3700DOPG   PO466254  15.330  22.670  13.290
 3700DOPG   GL166255  14.960  22.670  13.610
 3700DOPG   GL266256  15.010  22.420  13.820
 3700DOPG   C1A66257  14.800  22.900  13.610
 3700DOPG   D2A66258  14.440  22.990  13.850
 3700DOPG   C3A66259  14.130  23.100  13.540
 3700DOPG   C4A66260  14.300  23.460  13.430
 3700DOPG   C1B66261  14.710  22.640  14.040
 3700DOPG   D2B66262  14.200  22.580  14.000
 3700DOPG   C3B66263  13.780  22.940  13.960
 3700DOPG   C4B66264  13.590  23.070  13.630
 3701DOPG   GL066265  15.130  21.850  12.240
 3701DOPG   PO466266  15.190  21.820  11.800
 3701DOPG   GL166267  14.980  21.550  11.550
 3701DOPG   GL266268  14.590  21.840  11.440
 3701DOPG   C1A66269  14.760  21.440  11.170
 3701DOPG   D2A66270  14.570  21.120  10.960
 3701DOPG   C3A66271  14.450  20.920  11.280
 3701DOPG   C4A66272  14.300  20.560  11.390
 3701DOPG   C1B66273  14.220  21.860  11.160
 3701DOPG   D2B66274  14.050  21.690  10.750
 3701DOPG   C3B66275  13.820  21.920  10.390
 3701DOPG   C4B66276  13.510  22.220  10.200
 3702DOPG   GL066277  14.850  17.680  12.990
 3702DOPG   PO466278  15.160  17.610  13.350
 3702DOPG   GL166279  15.350  17.200  13.450
 3702DOPG   GL266280  15.480  17.300  13.650
 3702DOPG   C1A66281  15.320  16.910  13.160
 3702DOPG   D2A66282  15.360  16.440  13.040
 3702DOPG   C3A66283  15.720  16.140  13.170
 3702DOPG   C4A66284  16.020  16.130  13.370
 3702DOPG   C1B66285  15.520  16.840  13.910
 3702DOPG   D2B66286  15.270  16.580  14.110
 3702DOPG   C3B66287  15.170  16.140  13.990
 3702DOPG   C4B66288  15.220  15.630  13.810
 3703DOPG   GL066289  18.710  20.650  16.080
 3703DOPG   PO466290  18.960  20.530  15.830
 3703DOPG   GL166291  19.200  20.650  16.140
 3703DOPG   GL266292  19.050  21.060  16.140
 3703DOPG   C1A66293  19.660  20.720  16.170
 3703DOPG   D2A66294  20.080  20.810  16.050
 3703DOPG   C3A66295  20.370  20.480  15.830
 3703DOPG   C4A66296  20.620  20.170  15.560
 3703DOPG   C1B66297  19.110  21.360  16.500
 3703DOPG   D2B66298  19.050  21.260  16.970
 3703DOPG   C3B66299  19.040  20.710  17.070
 3703DOPG   C4B66300  19.250  20.340  17.310
 3704DOPG   GL066301  20.510  23.800  11.740
 3704DOPG   PO466302  20.690  24.110  11.530
 3704DOPG   GL166303  21.150  24.150  11.310
 3704DOPG   GL266304  21.360  23.860  11.430
 3704DOPG   C1A66305  21.320  24.220  10.800
 3704DOPG   D2A66306  21.530  23.870  10.520
 3704DOPG   C3A66307  21.850  24.100  10.260
 3704DOPG   C4A66308  21.630  24.370  10.050
 3704DOPG   C1B66309  21.680  23.990  11.090
 3704DOPG   D2B66310  21.950  24.050  10.790
 3704DOPG   C3B66311  22.270  23.750  10.620
 3704DOPG   C4B66312  22.460  23.490  10.290
 3705DOPG   GL066313  18.980  17.760  12.460
 3705DOPG   PO466314  19.220  18.080  12.630
 3705DOPG   GL166315  19.470  17.850  12.400
 3705DOPG   GL266316  19.810  17.880  12.620
 3705DOPG   C1A66317  19.670  17.520  12.190
 3705DOPG   D2A66318  19.820  17.050  11.910
 3705DOPG   C3A66319  20.070  16.960  12.210
 3705DOPG   C4A66320  20.260  16.960  12.710
 3705DOPG   C1B66321  20.210  17.790  12.620
 3705DOPG   D2B66322  20.360  17.450  12.870
 3705DOPG   C3B66323  20.590  17.490  13.270
 3705DOPG   C4B66324  21.060  17.660  13.300
 3706DOPG   GL066325  17.870  21.680  15.970
 3706DOPG   PO466326  17.760  22.100  15.860
 3706DOPG   GL166327  17.600  22.240  16.280
 3706DOPG   GL266328  17.450  22.540  16.160
 3706DOPG   C1A66329  17.540  22.340  16.660
 3706DOPG   D2A66330  17.520  22.370  17.100
 3706DOPG   C3A66331  17.350  22.650  17.380
 3706DOPG   C4A66332  17.110  22.630  17.730
 3706DOPG   C1B66333  17.490  22.790  16.550
 3706DOPG   D2B66334  17.400  23.170  16.700
 3706DOPG   C3B66335  17.090  23.110  17.010
 3706DOPG   C4B66336  16.980  23.080  17.480
 3707DOPG   GL066337  18.610  14.980  23.310
 3707DOPG   PO466338  18.620  15.390  23.380
 3707DOPG   GL166339  18.430  15.410  22.980
 3707DOPG   GL266340  18.110  15.550  22.920
 3707DOPG   C1A66341  18.430  15.370  22.510
 3707DOPG   D2A66342  18.540  15.540  22.090
 3707DOPG   C3A66343  18.520  15.790  22.050
 3707DOPG   C4A66344  18.460  16.010  21.690
 3707DOPG   C1B66345  18.080  15.820  22.630
 3707DOPG   D2B66346  18.050  15.660  22.230
 3707DOPG   C3B66347  17.810  15.830  21.960
 3707DOPG   C4B66348  17.870  15.950  21.650
 3708DOPG   GL066349  13.930  32.950  11.590
 3708DOPG   PO466350  14.310  33.040  11.450
 3708DOPG   GL166351  14.560  32.710  11.420
 3708DOPG   GL266352  14.720  32.780  11.580
 3708DOPG   C1A66353  14.950  32.450  11.240
 3708DOPG   D2A66354  15.270  32.190  11.120
 3708DOPG   C3A66355  15.240  31.840  11.050
 3708DOPG   C4A66356  15.320  31.370  11.040
 3708DOPG   C1B66357  15.130  32.640  11.670
 3708DOPG   D2B66358  15.320  32.210  11.620
 3708DOPG   C3B66359  15.060  32.020  11.490
 3708DOPG   C4B66360  14.650  32.080  11.340
 3709DOPG   GL066361  11.080  20.000  18.080
 3709DOPG   PO466362  10.840  19.800  18.330
 3709DOPG   GL166363  10.450  19.870  18.530
 3709DOPG   GL266364  10.180  19.830  18.340
 3709DOPG   C1A66365  10.250  20.200  18.820
 3709DOPG   D2A66366  10.090  20.640  18.920
 3709DOPG   C3A66367   9.760  20.750  18.640
 3709DOPG   C4A66368   9.670  21.160  18.460
 3709DOPG   C1B66369  10.040  19.710  18.740
 3709DOPG   D2B66370   9.640  19.740  19.010
 3709DOPG   C3B66371   9.230  19.530  19.070
 3709DOPG   C4B66372   8.770  19.380  19.210
 3710DOPG   GL066373  11.690  15.950  23.330
 3710DOPG   PO466374  11.490  15.770  22.940
 3710DOPG   GL166375  11.670  15.660  22.630
 3710DOPG   GL266376  11.360  15.410  22.510
 3710DOPG   C1A66377  11.700  15.710  22.210
 3710DOPG   D2A66378  11.530  15.880  21.810
 3710DOPG   C3A66379  11.740  16.220  21.640
 3710DOPG   C4A66380  12.140  16.300  21.780
 3710DOPG   C1B66381  11.080  15.560  22.150
 3710DOPG   D2B66382  10.990  16.040  21.920
 3710DOPG   C3B66383  11.320  16.320  21.890
 3710DOPG   C4B66384  11.800  16.240  22.110
 3711DOPG   GL066385  17.830  21.420  24.370
 3711DOPG   PO466386  17.490  21.620  24.530
 3711DOPG   GL166387  17.280  21.510  24.120
 3711DOPG   GL266388  17.360  21.180  24.160
 3711DOPG   C1A66389  17.320  21.380  23.640
 3711DOPG   D2A66390  17.650  21.460  23.360
 3711DOPG   C3A66391  17.600  21.550  22.910
 3711DOPG   C4A66392  17.660  21.520  22.490
 3711DOPG   C1B66393  17.780  21.270  23.850
 3711DOPG   D2B66394  18.030  21.150  23.440
 3711DOPG   C3B66395  18.040  21.320  23.110
 3711DOPG   C4B66396  18.210  21.710  22.840
 3712DOPG   GL066397  18.390  24.990  13.880
 3712DOPG   PO466398  18.100  25.290  14.030
 3712DOPG   GL166399  17.720  25.470  14.050
 3712DOPG   GL266400  17.620  25.600  13.710
 3712DOPG   C1A66401  17.760  25.640  14.440
 3712DOPG   D2A66402  17.840  25.970  14.870
 3712DOPG   C3A66403  17.820  26.360  14.960
 3712DOPG   C4A66404  17.860  26.600  14.570
 3712DOPG   C1B66405  17.440  25.980  13.900
 3712DOPG   D2B66406  17.120  26.330  13.760
 3712DOPG   C3B66407  17.170  26.540  13.370
 3712DOPG   C4B66408  17.510  26.640  13.190
 3713DOPG   GL066409  12.410  17.590  12.000
 3713DOPG   PO466410  12.400  17.200  11.750
 3713DOPG   GL166411  12.430  17.120  11.360
 3713DOPG   GL266412  12.510  16.850  11.350
 3713DOPG   C1A66413  12.610  17.230  10.960
 3713DOPG   D2A66414  12.880  17.080  10.740
 3713DOPG   C3A66415  13.080  16.900  10.340
 3713DOPG   C4A66416  13.280  16.870  10.030
 3713DOPG   C1B66417  12.520  16.470  11.100
 3713DOPG   D2B66418  12.950  16.180  11.020
 3713DOPG   C3B66419  13.380  16.210  11.170
 3713DOPG   C4B66420  13.710  16.270  11.480
 3714DOPG   GL066421  14.200  20.320  14.700
 3714DOPG   PO466422  13.970  20.200  14.350
 3714DOPG   GL166423  13.670  20.200  14.680
 3714DOPG   GL266424  13.410  20.450  14.620
 3714DOPG   C1A66425  13.300  20.080  15.000
 3714DOPG   D2A66426  13.160  20.030  15.380
 3714DOPG   C3A66427  12.890  20.250  15.610
 3714DOPG   C4A66428  12.470  20.360  15.810
 3714DOPG   C1B66429  13.640  20.540  15.010
 3714DOPG   D2B66430  13.760  20.120  15.150
 3714DOPG   C3B66431  13.550  20.000  15.620
 3714DOPG   C4B66432  13.350  20.340  15.830
 3715DOPG   GL066433  18.140  25.040  12.280
 3715DOPG   PO466434  17.860  25.430  12.280
 3715DOPG   GL166435  17.840  25.810  12.070
 3715DOPG   GL266436  18.130  25.900  11.940
 3715DOPG   C1A66437  17.720  26.270  12.120
 3715DOPG   D2A66438  17.470  26.640  12.100
 3715DOPG   C3A66439  17.520  27.030  11.990
 3715DOPG   C4A66440  17.320  27.480  12.000
 3715DOPG   C1B66441  18.200  26.340  11.760
 3715DOPG   D2B66442  18.290  26.470  11.360
 3715DOPG   C3B66443  18.580  26.260  11.150
 3715DOPG   C4B66444  18.970  26.160  11.140
 3716DOPG   GL066445   9.160  17.930   4.580
 3716DOPG   PO466446   9.470  18.140   4.360
 3716DOPG   GL166447   9.850  18.310   4.430
 3716DOPG   GL266448  10.140  18.130   4.210
 3716DOPG   C1A66449   9.950  18.700   4.480
 3716DOPG   D2A66450  10.010  19.120   4.350
 3716DOPG   C3A66451  10.200  19.230   4.090
 3716DOPG   C4A66452  10.470  19.580   4.080
 3716DOPG   C1B66453  10.450  18.340   4.540
 3716DOPG   D2B66454  10.900  18.510   4.720
 3716DOPG   C3B66455  11.240  18.270   4.930
 3716DOPG   C4B66456  11.720  18.350   4.910
 3717DOPG   GL066457  21.220  24.490  12.430
 3717DOPG   PO466458  21.310  24.800  12.240
 3717DOPG   GL166459  21.720  24.960  12.120
 3717DOPG   GL266460  21.690  25.240  12.270
 3717DOPG   C1A66461  22.240  25.010  11.950
 3717DOPG   D2A66462  22.630  24.780  12.010
 3717DOPG   C3A66463  22.800  24.590  12.270
 3717DOPG   C4A66464  23.010  24.320  12.610
 3717DOPG   C1B66465  21.960  25.450  11.990
 3717DOPG   D2B66466  22.030  25.340  11.480
 3717DOPG   C3B66467  21.830  24.960  11.230
 3717DOPG   C4B66468  21.750  24.490  11.150
 3718DOPG   GL066469   6.040  19.130   9.770
 3718DOPG   PO466470   6.350  19.370   9.750
 3718DOPG   GL166471   6.580  19.550  10.010
 3718DOPG   GL266472   6.630  19.390  10.340
 3718DOPG   C1A66473   6.830  19.840  10.190
 3718DOPG   D2A66474   6.940  20.260  10.140
 3718DOPG   C3A66475   7.160  20.620  10.030
 3718DOPG   C4A66476   7.350  20.930  10.080
 3718DOPG   C1B66477   7.090  19.380  10.280
 3718DOPG   D2B66478   7.560  19.570  10.320
 3718DOPG   C3B66479   7.930  19.300  10.620
 3718DOPG   C4B66480   8.330  19.240  10.940
 3719DOPG   GL066481  16.460  23.400  14.700
 3719DOPG   PO466482  16.550  23.880  14.710
 3719DOPG   GL166483  16.210  23.970  14.840
 3719DOPG   GL266484  16.000  23.690  14.670
 3719DOPG   C1A66485  15.800  24.170  15.150
 3719DOPG   D2A66486  15.420  24.370  15.140
 3719DOPG   C3A66487  15.280  24.740  15.000
 3719DOPG   C4A66488  15.180  24.830  14.620
 3719DOPG   C1B66489  15.550  23.980  14.800
 3719DOPG   D2B66490  15.450  24.400  14.650
 3719DOPG   C3B66491  15.630  24.660  14.350
 3719DOPG   C4B66492  16.010  24.850  14.040
 3720DOPG   GL066493  28.840  28.410   9.130
 3720DOPG   PO466494  28.630  28.030   9.100
 3720DOPG   GL166495  28.500  27.780   9.460
 3720DOPG   GL266496  28.500  27.910   9.690
 3720DOPG   C1A66497  28.440  27.340   9.710
 3720DOPG   D2A66498  28.170  27.290  10.160
 3720DOPG   C3A66499  27.990  26.980  10.390
 3720DOPG   C4A66500  27.630  27.000  10.680
 3720DOPG   C1B66501  28.130  27.720   9.850
 3720DOPG   D2B66502  27.800  27.440   9.910
 3720DOPG   C3B66503  27.380  27.560   9.950
 3720DOPG   C4B66504  26.980  27.770  10.040
 3721DOPG   GL066505  24.330  10.850  16.410
 3721DOPG   PO466506  23.880  10.940  16.350
 3721DOPG   GL166507  23.640  11.360  16.230
 3721DOPG   GL266508  23.670  11.440  15.840
 3721DOPG   C1A66509  23.340  11.710  16.070
 3721DOPG   D2A66510  23.000  11.950  16.170
 3721DOPG   C3A66511  22.980  12.140  16.600
 3721DOPG   C4A66512  22.890  12.540  16.700
 3721DOPG   C1B66513  23.760  11.920  15.900
 3721DOPG   D2B66514  23.420  12.230  15.870
 3721DOPG   C3B66515  23.150  12.370  15.570
 3721DOPG   C4B66516  23.070  12.880  15.690
 3722DOPG   GL066517  29.940  26.120  10.780
 3722DOPG   PO466518  29.580  26.160  11.010
 3722DOPG   GL166519  29.100  26.230  11.210
 3722DOPG   GL266520  28.960  25.950  11.070
 3722DOPG   C1A66521  28.600  26.130  11.360
 3722DOPG   D2A66522  28.350  25.800  11.440
 3722DOPG   C3A66523  28.230  25.580  11.220
 3722DOPG   C4A66524  28.350  25.380  10.850
 3722DOPG   C1B66525  28.540  25.880  10.910
 3722DOPG   D2B66526  28.150  25.840  10.730
 3722DOPG   C3B66527  27.830  25.550  10.780
 3722DOPG   C4B66528  27.700  25.430  11.120
 3723DOPG   GL066529  12.880  27.450  12.030
 3723DOPG   PO466530  12.640  27.410  12.260
 3723DOPG   GL166531  12.390  27.760  12.170
 3723DOPG   GL266532  12.470  27.730  11.830
 3723DOPG   C1A66533  11.970  27.940  12.060
 3723DOPG   D2A66534  11.700  28.380  11.930
 3723DOPG   C3A66535  12.120  28.670  11.800
 3723DOPG   C4A66536  12.380  28.890  12.070
 3723DOPG   C1B66537  12.340  28.120  11.670
 3723DOPG   D2B66538  11.940  28.320  11.490
 3723DOPG   C3B66539  12.040  28.590  11.160
 3723DOPG   C4B66540  12.380  28.790  11.040
 3724DOPG   GL066541  21.580  22.310  24.720
 3724DOPG   PO466542  21.790  22.300  24.370
 3724DOPG   GL166543  21.570  22.280  23.970
 3724DOPG   GL266544  21.360  22.050  23.830
 3724DOPG   C1A66545  21.440  22.410  23.530
 3724DOPG   D2A66546  21.490  22.330  23.000
 3724DOPG   C3A66547  21.120  22.180  22.810
 3724DOPG   C4A66548  21.010  21.820  22.720
 3724DOPG   C1B66549  21.020  21.650  23.650
 3724DOPG   D2B66550  21.080  21.210  23.640
 3724DOPG   C3B66551  20.930  20.960  23.290
 3724DOPG   C4B66552  20.480  20.990  23.020
 3725DOPG   GL066553  18.350  18.110  13.560
 3725DOPG   PO466554  18.240  17.860  13.870
 3725DOPG   GL166555  18.380  17.430  13.820
 3725DOPG   GL266556  18.240  17.300  13.640
 3725DOPG   C1A66557  18.740  17.280  13.820
 3725DOPG   D2A66558  19.140  16.990  13.750
 3725DOPG   C3A66559  19.310  16.700  13.920
 3725DOPG   C4A66560  19.420  16.290  13.720
 3725DOPG   C1B66561  18.390  16.870  13.600
 3725DOPG   D2B66562  18.740  16.690  13.980
 3725DOPG   C3B66563  18.910  16.800  14.370
 3725DOPG   C4B66564  19.130  16.880  14.750
 3726DOPG   GL066565  11.350  23.980  14.230
 3726DOPG   PO466566  11.520  23.610  14.290
 3726DOPG   GL166567  11.570  23.180  14.420
 3726DOPG   GL266568  11.480  22.940  14.220
 3726DOPG   C1A66569  11.920  22.830  14.480
 3726DOPG   D2A66570  12.380  22.910  14.460
 3726DOPG   C3A66571  12.660  23.100  14.770
 3726DOPG   C4A66572  13.140  23.190  14.910
 3726DOPG   C1B66573  11.720  22.550  14.150
 3726DOPG   D2B66574  12.190  22.420  14.250
 3726DOPG   C3B66575  12.440  22.340  13.810
 3726DOPG   C4B66576  12.800  22.340  13.610
 3727DOPG   GL066577  18.120  23.680  11.010
 3727DOPG   PO466578  17.960  23.610  10.620
 3727DOPG   GL166579  17.730  23.780  10.270
 3727DOPG   GL266580  17.910  24.040  10.220
 3727DOPG   C1A66581  17.550  23.900   9.910
 3727DOPG   D2A66582  17.530  24.260   9.630
 3727DOPG   C3A66583  17.610  24.140   9.300
 3727DOPG   C4A66584  17.450  23.980   8.990
 3727DOPG   C1B66585  17.940  24.340   9.870
 3727DOPG   D2B66586  18.050  24.750   9.670
 3727DOPG   C3B66587  18.280  24.820   9.280
 3727DOPG   C4B66588  18.400  24.950   8.950
 3728DOPG   GL066589  19.610  18.390  12.610
 3728DOPG   PO466590  19.470  18.250  12.160
 3728DOPG   GL166591  19.410  17.860  11.880
 3728DOPG   GL266592  19.150  17.680  11.930
 3728DOPG   C1A66593  19.840  17.600  11.710
 3728DOPG   D2A66594  19.900  17.560  11.190
 3728DOPG   C3A66595  20.090  17.960  11.070
 3728DOPG   C4A66596  20.230  18.410  10.930
 3728DOPG   C1B66597  19.390  17.290  11.820
 3728DOPG   D2B66598  19.390  16.900  11.510
 3728DOPG   C3B66599  19.610  17.090  11.090
 3728DOPG   C4B66600  19.800  17.160  10.800
 3729DOPG   GL066601  20.600  25.490  14.780
 3729DOPG   PO466602  20.580  25.210  15.080
 3729DOPG   GL166603  20.980  25.240  15.040
 3729DOPG   GL266604  21.070  25.230  14.750
 3729DOPG   C1A66605  21.360  25.270  15.190
 3729DOPG   D2A66606  21.690  25.230  15.480
 3729DOPG   C3A66607  22.180  25.330  15.580
 3729DOPG   C4A66608  22.600  25.340  15.840
 3729DOPG   C1B66609  21.470  25.380  14.660
 3729DOPG   D2B66610  21.900  25.650  14.630
 3729DOPG   C3B66611  21.950  26.080  14.750
 3729DOPG   C4B66612  22.140  26.450  14.610
 3730DOPG   GL066613  20.370  21.980  11.070
 3730DOPG   PO466614  20.650  21.630  11.170
 3730DOPG   GL166615  20.490  21.690  10.680
 3730DOPG   GL266616  20.740  21.830  10.600
 3730DOPG   C1A66617  20.340  21.730  10.270
 3730DOPG   D2A66618  20.180  21.890   9.890
 3730DOPG   C3A66619  20.440  21.840   9.430
 3730DOPG   C4A66620  20.640  21.930   9.090
 3730DOPG   C1B66621  21.090  21.910  10.260
 3730DOPG   D2B66622  21.230  21.860   9.830
 3730DOPG   C3B66623  20.990  22.060   9.560
 3730DOPG   C4B66624  20.770  22.370   9.320
 3731DOPG   GL066625  16.430  15.220   1.030
 3731DOPG   PO466626  16.880  15.060   0.920
 3731DOPG   GL166627  16.840  15.170   1.330
 3731DOPG   GL266628  16.980  15.460   1.390
 3731DOPG   C1A66629  17.060  15.070   1.760
 3731DOPG   D2A66630  16.950  15.050   2.190
 3731DOPG   C3A66631  17.300  15.390   2.170
 3731DOPG   C4A66632  17.530  15.690   2.200
 3731DOPG   C1B66633  16.620  15.530   1.640
 3731DOPG   D2B66634  16.580  15.920   1.960
 3731DOPG   C3B66635  16.380  15.950   2.340
 3731DOPG   C4B66636  16.550  15.840   2.710
 3732DOPG   GL066637  14.260  19.790  14.730
 3732DOPG   PO466638  14.600  19.930  14.840
 3732DOPG   GL166639  14.400  19.990  15.340
 3732DOPG   GL266640  14.080  19.750  15.410
 3732DOPG   C1A66641  14.500  20.060  15.810
 3732DOPG   D2A66642  14.150  20.190  16.130
 3732DOPG   C3A66643  13.750  20.450  16.090
 3732DOPG   C4A66644  13.350  20.590  16.370
 3732DOPG   C1B66645  13.930  19.810  15.880
 3732DOPG   D2B66646  14.040  19.670  16.290
 3732DOPG   C3B66647  14.180  19.960  16.640
 3732DOPG   C4B66648  14.290  20.360  16.560
 3733DOPG   GL066649  11.140   8.780  16.190
 3733DOPG   PO466650  11.310   9.150  15.980
 3733DOPG   GL166651  11.450   9.530  15.760
 3733DOPG   GL266652  11.370   9.860  15.810
 3733DOPG   C1A66653  11.640   9.790  15.360
 3733DOPG   D2A66654  12.020  10.180  15.370
 3733DOPG   C3A66655  12.100  10.570  15.170
 3733DOPG   C4A66656  12.300  10.720  14.680
 3733DOPG   C1B66657  11.780  10.000  15.840
 3733DOPG   D2B66658  12.200  10.040  16.030
 3733DOPG   C3B66659  12.400   9.630  16.160
 3733DOPG   C4B66660  12.540   9.260  16.350
 3734DOPG   GL066661  16.250  18.030  12.320
 3734DOPG   PO466662  16.610  18.360  12.350
 3734DOPG   GL166663  16.750  17.960  12.100
 3734DOPG   GL266664  16.910  18.080  11.760
 3734DOPG   C1A66665  16.510  17.620  11.850
 3734DOPG   D2A66666  16.510  17.130  11.820
 3734DOPG   C3A66667  16.750  16.830  11.610
 3734DOPG   C4A66668  17.090  16.500  11.630
 3734DOPG   C1B66669  16.850  17.790  11.550
 3734DOPG   D2B66670  16.840  17.320  11.480
 3734DOPG   C3B66671  17.160  17.160  11.300
 3734DOPG   C4B66672  17.550  17.260  11.470
 3735DOPG   GL066673  19.460  24.310  14.920
 3735DOPG   PO466674  19.160  24.640  15.060
 3735DOPG   GL166675  19.000  25.070  15.310
 3735DOPG   GL266676  19.190  25.220  15.620
 3735DOPG   C1A66677  18.750  25.210  15.750
 3735DOPG   D2A66678  18.690  25.380  16.130
 3735DOPG   C3A66679  18.820  25.780  16.100
 3735DOPG   C4A66680  18.750  26.230  16.210
 3735DOPG   C1B66681  19.070  25.730  15.670
 3735DOPG   D2B66682  19.050  26.140  15.760
 3735DOPG   C3B66683  18.800  26.490  15.690
 3735DOPG   C4B66684  18.430  26.540  15.530
 3736DOPG   GL066685  18.670  20.340   6.110
 3736DOPG   PO466686  19.210  20.110   6.140
 3736DOPG   GL166687  19.250  20.200   6.580
 3736DOPG   GL266688  19.420  20.460   6.580
 3736DOPG   C1A66689  19.300  20.380   7.010
 3736DOPG   D2A66690  19.230  20.740   7.380
 3736DOPG   C3A66691  19.330  20.990   7.210
 3736DOPG   C4A66692  19.500  21.210   6.910
 3736DOPG   C1B66693  19.010  20.640   6.750
 3736DOPG   D2B66694  18.750  20.460   7.050
 3736DOPG   C3B66695  18.970  20.230   7.370
 3736DOPG   C4B66696  19.350  20.200   7.570
 3737DOPG   GL066697  26.800  23.360   5.690
 3737DOPG   PO466698  26.930  23.790   5.500
 3737DOPG   GL166699  26.600  23.810   5.910
 3737DOPG   GL266700  26.280  23.660   5.880
 3737DOPG   C1A66701  26.560  23.900   6.320
 3737DOPG   D2A66702  26.520  23.670   6.730
 3737DOPG   C3A66703  26.200  23.810   7.140
 3737DOPG   C4A66704  25.900  23.990   7.380
 3737DOPG   C1B66705  26.180  23.480   6.210
 3737DOPG   D2B66706  25.740  23.420   6.240
 3737DOPG   C3B66707  25.570  23.020   6.190
 3737DOPG   C4B66708  25.150  22.870   6.170
 3738DOPG   GL066709  24.860  24.700  16.490
 3738DOPG   PO466710  24.330  24.730  16.640
 3738DOPG   GL166711  24.040  25.060  16.390
 3738DOPG   GL266712  23.890  25.300  16.530
 3738DOPG   C1A66713  23.910  24.990  16.050
 3738DOPG   D2A66714  23.630  24.880  15.700
 3738DOPG   C3A66715  23.260  24.860  15.980
 3738DOPG   C4A66716  23.080  24.450  16.020
 3738DOPG   C1B66717  23.610  25.490  16.740
 3738DOPG   D2B66718  23.260  25.650  16.890
 3738DOPG   C3B66719  22.870  25.660  16.590
 3738DOPG   C4B66720  22.570  25.440  16.380
 3739DOPG   GL066721  19.910  25.790  18.960
 3739DOPG   PO466722  19.830  26.040  18.640
 3739DOPG   GL166723  19.630  25.950  18.290
 3739DOPG   GL266724  19.850  25.810  18.150
 3739DOPG   C1A66725  19.400  25.760  18.010
 3739DOPG   D2A66726  19.200  25.520  17.930
 3739DOPG   C3A66727  19.130  25.670  17.580
 3739DOPG   C4A66728  18.800  25.930  17.430
 3739DOPG   C1B66729  19.970  26.110  17.800
 3739DOPG   D2B66730  19.790  26.330  17.450
 3739DOPG   C3B66731  19.730  26.080  17.050
 3739DOPG   C4B66732  19.820  25.740  16.760
 3740DOPG   GL066733  10.610  19.830  15.150
 3740DOPG   PO466734  10.200  19.610  14.980
 3740DOPG   GL166735  10.310  19.550  14.580
 3740DOPG   GL266736  10.540  19.830  14.550
 3740DOPG   C1A66737  10.470  19.360  14.310
 3740DOPG   D2A66738  10.500  19.060  14.050
 3740DOPG   C3A66739  10.180  19.130  13.770
 3740DOPG   C4A66740  10.100  19.240  13.350
 3740DOPG   C1B66741  10.760  20.040  14.170
 3740DOPG   D2B66742  11.240  19.930  14.010
 3740DOPG   C3B66743  11.550  19.840  14.130
 3740DOPG   C4B66744  11.790  19.540  14.120
 3741DOPG   GL066745  30.310  21.320  11.930
 3741DOPG   PO466746  30.120  21.690  12.080
 3741DOPG   GL166747  29.750  21.550  12.240
 3741DOPG   GL266748  29.740  21.250  12.310
 3741DOPG   C1A66749  29.260  21.650  12.190
 3741DOPG   D2A66750  28.870  21.760  12.100
 3741DOPG   C3A66751  28.540  21.600  12.240
 3741DOPG   C4A66752  28.350  21.240  12.380
 3741DOPG   C1B66753  29.550  21.480  12.690
 3741DOPG   D2B66754  29.370  21.520  13.210
 3741DOPG   C3B66755  29.360  21.930  13.300
 3741DOPG   C4B66756  28.940  22.140  13.180
 3742DOPG   GL066757  23.930  19.250  16.960
 3742DOPG   PO466758  23.640  19.100  16.680
 3742DOPG   GL166759  23.480  19.280  16.280
 3742DOPG   GL266760  23.510  19.560  16.190
 3742DOPG   C1A66761  23.070  19.260  16.030
 3742DOPG   D2A66762  22.850  19.560  15.800
 3742DOPG   C3A66763  22.480  19.580  15.580
 3742DOPG   C4A66764  22.270  19.670  15.240
 3742DOPG   C1B66765  23.140  19.790  16.160
 3742DOPG   D2B66766  23.030  20.070  16.420
 3742DOPG   C3B66767  23.060  20.410  16.320
 3742DOPG   C4B66768  23.240  20.780  16.510
 3743DOPG   GL066769  24.600  15.970  21.560
 3743DOPG   PO466770  24.720  15.990  21.120
 3743DOPG   GL166771  24.460  16.070  20.740
 3743DOPG   GL266772  24.760  16.120  20.580
 3743DOPG   C1A66773  24.000  16.010  20.610
 3743DOPG   D2A66774  23.570  16.130  20.830
 3743DOPG   C3A66775  23.200  16.060  20.600
 3743DOPG   C4A66776  22.980  16.200  20.220
 3743DOPG   C1B66777  24.530  16.080  20.140
 3743DOPG   D2B66778  24.080  16.250  20.100
 3743DOPG   C3B66779  23.910  16.400  19.660
 3743DOPG   C4B66780  23.770  16.660  19.280
 3744DOPG   GL066781  24.320  11.770  10.000
 3744DOPG   PO466782  23.910  11.650  10.030
 3744DOPG   GL166783  23.570  11.890  10.180
 3744DOPG   GL266784  23.290  11.840  10.010
 3744DOPG   C1A66785  23.480  12.280   9.930
 3744DOPG   D2A66786  23.830  12.520   9.790
 3744DOPG   C3A66787  23.860  12.850   9.980
 3744DOPG   C4A66788  23.670  13.150  10.210
 3744DOPG   C1B66789  22.920  11.940  10.150
 3744DOPG   D2B66790  22.610  12.280  10.050
 3744DOPG   C3B66791  22.490  12.370  10.500
 3744DOPG   C4B66792  22.120  12.410  10.620
 3745DOPG   GL066793  26.020  12.800  12.540
 3745DOPG   PO466794  25.800  12.330  12.620
 3745DOPG   GL166795  25.370  12.290  12.520
 3745DOPG   GL266796  25.150  12.330  12.700
 3745DOPG   C1A66797  24.940  12.360  12.210
 3745DOPG   D2A66798  24.570  12.310  12.020
 3745DOPG   C3A66799  24.330  12.520  12.290
 3745DOPG   C4A66800  24.030  12.670  12.450
 3745DOPG   C1B66801  24.980  12.800  12.840
 3745DOPG   D2B66802  24.780  13.080  13.060
 3745DOPG   C3B66803  24.400  13.140  13.000
 3745DOPG   C4B66804  24.020  13.120  12.760
 3746DOPG   GL066805  16.800  20.950  19.580
 3746DOPG   PO466806  16.780  21.180  19.260
 3746DOPG   GL166807  17.040  21.330  18.870
 3746DOPG   GL266808  17.080  21.100  18.670
 3746DOPG   C1A66809  16.910  21.490  18.470
 3746DOPG   D2A66810  16.630  21.380  18.180
 3746DOPG   C3A66811  16.450  21.660  17.860
 3746DOPG   C4A66812  16.350  21.660  17.470
 3746DOPG   C1B66813  16.880  20.940  18.350
 3746DOPG   D2B66814  16.910  20.870  17.790
 3746DOPG   C3B66815  17.050  20.670  17.500
 3746DOPG   C4B66816  17.140  20.820  17.130
 3747DOPG   GL066817  13.790  26.730  10.540
 3747DOPG   PO466818  13.800  26.630  10.940
 3747DOPG   GL166819  14.140  26.620  11.150
 3747DOPG   GL266820  14.410  26.760  11.030
 3747DOPG   C1A66821  14.460  26.350  11.270
 3747DOPG   D2A66822  14.590  25.940  10.970
 3747DOPG   C3A66823  14.730  25.940  10.630
 3747DOPG   C4A66824  15.050  25.910  10.320
 3747DOPG   C1B66825  14.830  26.640  11.260
 3747DOPG   D2B66826  15.240  26.510  11.520
 3747DOPG   C3B66827  15.330  26.070  11.510
 3747DOPG   C4B66828  15.580  25.760  11.360
 3748DOPG   GL066829  23.620  16.920  16.470
 3748DOPG   PO466830  23.810  17.290  16.540
 3748DOPG   GL166831  24.130  17.060  16.690
 3748DOPG   GL266832  24.350  17.030  16.430
 3748DOPG   C1A66833  24.460  16.910  16.940
 3748DOPG   D2A66834  24.660  16.430  16.820
 3748DOPG   C3A66835  25.000  16.000  16.950
 3748DOPG   C4A66836  25.210  15.610  16.970
 3748DOPG   C1B66837  24.610  16.730  16.400
 3748DOPG   D2B66838  25.020  16.460  16.430
 3748DOPG   C3B66839  25.200  16.590  16.830
 3748DOPG   C4B66840  25.070  16.880  17.290
 3749DOPG   GL066841  19.610  24.380   5.740
 3749DOPG   PO466842  19.450  24.660   6.020
 3749DOPG   GL166843  19.590  24.890   5.700
 3749DOPG   GL266844  19.530  25.270   5.560
 3749DOPG   C1A66845  19.810  24.930   5.310
 3749DOPG   D2A66846  20.090  24.620   5.040
 3749DOPG   C3A66847  20.350  24.880   4.780
 3749DOPG   C4A66848  20.430  25.040   4.450
 3749DOPG   C1B66849  19.410  25.140   5.170
 3749DOPG   D2B66850  19.730  25.190   4.850
 3749DOPG   C3B66851  19.640  25.530   4.520
 3749DOPG   C4B66852  19.670  25.480   4.060
 3750DOPG   GL066853  29.080  19.040  13.490
 3750DOPG   PO466854  29.340  19.110  13.080
 3750DOPG   GL166855  28.900  19.160  12.980
 3750DOPG   GL266856  28.840  18.800  13.090
 3750DOPG   C1A66857  28.630  19.270  13.230
 3750DOPG   D2A66858  28.250  19.410  13.550
 3750DOPG   C3A66859  28.170  19.820  13.690
 3750DOPG   C4A66860  27.950  20.200  13.680
 3750DOPG   C1B66861  28.470  18.690  13.030
 3750DOPG   D2B66862  28.040  18.860  12.880
 3750DOPG   C3B66863  27.640  18.890  13.110
 3750DOPG   C4B66864  27.310  18.660  13.050
 3751DOPG   GL066865  28.390  26.500  19.840
 3751DOPG   PO466866  28.490  26.810  19.530
 3751DOPG   GL166867  28.230  26.450  19.250
 3751DOPG   GL266868  28.130  26.780  18.990
 3751DOPG   C1A66869  27.770  26.430  19.090
 3751DOPG   D2A66870  27.460  26.500  18.820
 3751DOPG   C3A66871  27.090  26.760  18.830
 3751DOPG   C4A66872  26.740  26.660  19.080
 3751DOPG   C1B66873  27.640  26.980  18.980
 3751DOPG   D2B66874  27.340  27.180  18.840
 3751DOPG   C3B66875  27.200  27.590  18.780
 3751DOPG   C4B66876  26.900  27.990  18.630
 3752DOPG   GL066877  26.230  18.480   5.740
 3752DOPG   PO466878  26.500  18.220   5.910
 3752DOPG   GL166879  26.110  18.140   6.100
 3752DOPG   GL266880  25.920  18.470   6.130
 3752DOPG   C1A66881  25.590  18.120   6.270
 3752DOPG   D2A66882  25.290  18.120   6.590
 3752DOPG   C3A66883  25.290  17.710   6.790
 3752DOPG   C4A66884  25.340  17.270   6.850
 3752DOPG   C1B66885  25.600  18.630   6.350
 3752DOPG   D2B66886  25.180  18.630   6.680
 3752DOPG   C3B66887  24.880  18.930   6.720
 3752DOPG   C4B66888  24.750  19.350   6.480
 3753DOPG   GL066889  25.080  25.740  17.040
 3753DOPG   PO466890  25.030  25.660  17.490
 3753DOPG   GL166891  25.100  25.990  17.740
 3753DOPG   GL266892  24.930  26.030  17.960
 3753DOPG   C1A66893  25.500  26.110  17.880
 3753DOPG   D2A66894  25.850  26.270  18.250
 3753DOPG   C3A66895  26.200  26.530  18.350
 3753DOPG   C4A66896  26.560  26.680  18.610
 3753DOPG   C1B66897  25.250  25.850  18.310
 3753DOPG   D2B66898  25.460  25.730  18.700
 3753DOPG   C3B66899  25.170  26.030  19.040
 3753DOPG   C4B66900  25.380  26.470  19.170
 3754DOPG   GL066901   6.610  18.210  13.220
 3754DOPG   PO466902   6.320  17.930  13.530
 3754DOPG   GL166903   6.730  17.830  13.680
 3754DOPG   GL266904   6.660  17.830  14.020
 3754DOPG   C1A66905   7.130  17.740  13.800
 3754DOPG   D2A66906   7.470  17.350  13.730
 3754DOPG   C3A66907   7.920  17.570  13.720
 3754DOPG   C4A66908   8.320  17.540  14.000
 3754DOPG   C1B66909   7.050  18.020  14.190
 3754DOPG   D2B66910   7.390  18.180  13.900
 3754DOPG   C3B66911   7.780  18.100  13.870
 3754DOPG   C4B66912   8.110  18.370  13.980
 3755DOPG   GL066913  17.160  22.690  10.660
 3755DOPG   PO466914  17.030  22.560  10.320
 3755DOPG   GL166915  16.720  22.590   9.990
 3755DOPG   GL266916  16.700  22.240   9.950
 3755DOPG   C1A66917  16.250  22.570   9.820
 3755DOPG   D2A66918  15.850  22.800   9.750
 3755DOPG   C3A66919  16.070  23.130   9.740
 3755DOPG   C4A66920  16.420  23.460   9.640
 3755DOPG   C1B66921  16.550  22.230   9.630
 3755DOPG   D2B66922  16.660  22.040   9.290
 3755DOPG   C3B66923  16.860  22.250   8.920
 3755DOPG   C4B66924  17.060  22.330   8.610
 3756DOPG   GL066925  18.880  22.320  10.160
 3756DOPG   PO466926  18.500  22.510  10.220
 3756DOPG   GL166927  18.640  22.480   9.690
 3756DOPG   GL266928  18.850  22.770   9.520
 3756DOPG   C1A66929  18.680  22.340   9.210
 3756DOPG   D2A66930  18.570  22.670   8.900
 3756DOPG   C3A66931  18.670  22.650   8.410
 3756DOPG   C4A66932  18.690  22.380   8.040
 3756DOPG   C1B66933  19.170  22.530   9.350
 3756DOPG   D2B66934  19.430  22.120   9.320
 3756DOPG   C3B66935  19.310  21.760   9.130
 3756DOPG   C4B66936  19.050  21.370   9.090
 3757DOPG   GL066937  19.150  20.140  11.030
 3757DOPG   PO466938  19.480  19.950  10.970
 3757DOPG   GL166939  19.630  19.920  10.550
 3757DOPG   GL266940  19.720  20.230  10.290
 3757DOPG   C1A66941  19.860  19.710  10.380
 3757DOPG   D2A66942  20.000  19.480  10.030
 3757DOPG   C3A66943  20.330  19.110  10.220
 3757DOPG   C4A66944  20.670  19.090  10.000
 3757DOPG   C1B66945  20.030  20.050  10.050
 3757DOPG   D2B66946  20.380  19.850   9.800
 3757DOPG   C3B66947  20.400  19.470   9.630
 3757DOPG   C4B66948  20.400  19.080   9.540
 3758DOPG   GL066949  16.170  19.180  15.430
 3758DOPG   PO466950  16.010  18.750  15.420
 3758DOPG   GL166951  16.320  18.850  15.850
 3758DOPG   GL266952  16.650  18.880  15.850
 3758DOPG   C1A66953  16.590  18.600  16.250
 3758DOPG   D2A66954  16.790  18.450  16.630
 3758DOPG   C3A66955  17.090  18.120  16.850
 3758DOPG   C4A66956  17.100  17.950  17.160
 3758DOPG   C1B66957  16.980  18.650  15.980
 3758DOPG   D2B66958  17.290  18.320  16.050
 3758DOPG   C3B66959  17.150  18.240  16.350
 3758DOPG   C4B66960  17.560  18.040  16.640
 3759DOPG   GL066961  18.190  18.430  11.400
 3759DOPG   PO466962  18.240  18.820  11.300
 3759DOPG   GL166963  18.280  18.600  10.890
 3759DOPG   GL266964  18.570  18.550  11.020
 3759DOPG   C1A66965  18.260  18.810  10.520
 3759DOPG   D2A66966  17.960  18.950  10.250
 3759DOPG   C3A66967  18.070  19.090   9.820
 3759DOPG   C4A66968  18.240  19.400   9.510
 3759DOPG   C1B66969  18.960  18.380  10.810
 3759DOPG   D2B66970  19.340  18.340  10.660
 3759DOPG   C3B66971  19.240  18.420  10.310
 3759DOPG   C4B66972  19.150  18.260   9.900
 3760DOPG   GL066973  21.280  22.090  13.110
 3760DOPG   PO466974  21.750  22.190  12.790
 3760DOPG   GL166975  22.120  22.130  12.920
 3760DOPG   GL266976  22.160  22.480  12.730
 3760DOPG   C1A66977  22.460  21.990  12.800
 3760DOPG   D2A66978  22.790  21.800  12.670
 3760DOPG   C3A66979  22.890  21.290  12.680
 3760DOPG   C4A66980  22.620  21.150  12.370
 3760DOPG   C1B66981  22.580  22.520  12.890
 3760DOPG   D2B66982  22.890  22.250  13.000
 3760DOPG   C3B66983  23.080  22.240  13.290
 3760DOPG   C4B66984  22.880  22.380  13.640
 3761DOPG   GL066985  20.480  24.280  15.240
 3761DOPG   PO466986  20.190  24.580  15.300
 3761DOPG   GL166987  20.420  24.600  15.670
 3761DOPG   GL266988  20.630  24.500  15.700
 3761DOPG   C1A66989  20.320  24.840  16.130
 3761DOPG   D2A66990  20.050  25.050  16.450
 3761DOPG   C3A66991  19.810  25.380  16.280
 3761DOPG   C4A66992  19.510  25.530  15.920
 3761DOPG   C1B66993  20.660  24.460  16.140
 3761DOPG   D2B66994  20.520  24.410  16.580
 3761DOPG   C3B66995  20.070  24.460  16.780
 3761DOPG   C4B66996  19.680  24.750  16.840
 3762DOPG   GL066997  16.630  23.620  14.270
 3762DOPG   PO466998  16.270  23.870  14.240
 3762DOPG   GL166999  15.800  23.780  14.180
 3762DOPG   GL267000  15.650  23.430  14.420
 3762DOPG   C1A67001  15.530  24.060  14.250
 3762DOPG   D2A67002  15.230  24.240  14.010
 3762DOPG   C3A67003  15.070  24.660  14.080
 3762DOPG   C4A67004  14.840  25.040  13.880
 3762DOPG   C1B67005  15.340  23.570  14.680
 3762DOPG   D2B67006  15.050  23.940  14.730
 3762DOPG   C3B67007  14.990  24.320  14.460
 3762DOPG   C4B67008  14.680  24.650  14.400
 3763DOPG   GL067009  17.360  20.420  10.630
 3763DOPG   PO467010  17.040  20.180  10.430
 3763DOPG   GL167011  16.800  20.270   9.960
 3763DOPG   GL267012  16.680  20.570   9.940
 3763DOPG   C1A67013  16.540  20.120   9.590
 3763DOPG   D2A67014  16.190  19.910   9.540
 3763DOPG   C3A67015  15.770  20.020   9.390
 3763DOPG   C4A67016  15.320  20.160   9.310
 3763DOPG   C1B67017  16.600  20.600   9.590
 3763DOPG   D2B67018  16.460  20.680   9.210
 3763DOPG   C3B67019  16.740  20.870   8.890
 3763DOPG   C4B67020  16.820  21.230   8.740
 3764DOPG   GL067021  12.510  16.610  12.310
 3764DOPG   PO467022  12.960  16.750  12.300
 3764DOPG   GL167023  13.080  16.350  12.050
 3764DOPG   GL267024  13.460  16.420  12.290
 3764DOPG   C1A67025  12.980  15.910  12.020
 3764DOPG   D2A67026  12.550  15.670  12.170
 3764DOPG   C3A67027  12.510  15.690  12.680
 3764DOPG   C4A67028  12.090  15.710  12.960
 3764DOPG   C1B67029  13.650  16.170  11.990
 3764DOPG   D2B67030  13.840  15.870  11.800
 3764DOPG   C3B67031  13.630  15.490  11.740
 3764DOPG   C4B67032  13.540  15.020  11.730
 3765DOPG   GL067033  13.810  16.150  16.730
 3765DOPG   PO467034  13.420  16.130  16.720
 3765DOPG   GL167035  13.550  16.490  16.350
 3765DOPG   GL267036  13.230  16.830  16.310
 3765DOPG   C1A67037  13.660  16.600  15.980
 3765DOPG   D2A67038  13.740  16.830  15.640
 3765DOPG   C3A67039  14.210  16.950  15.530
 3765DOPG   C4A67040  14.540  17.290  15.590
 3765DOPG   C1B67041  13.270  16.900  15.900
 3765DOPG   D2B67042  13.150  16.920  15.480
 3765DOPG   C3B67043  13.240  17.070  15.110
 3765DOPG   C4B67044  13.260  17.420  14.910
 3766DOPG   GL067045  20.590  23.480  15.170
 3766DOPG   PO467046  20.720  23.850  15.440
 3766DOPG   GL167047  20.860  23.630  15.870
 3766DOPG   GL267048  21.130  23.680  15.970
 3766DOPG   C1A67049  20.680  23.790  16.320
 3766DOPG   D2A67050  20.780  23.820  16.710
 3766DOPG   C3A67051  20.820  23.520  17.030
 3766DOPG   C4A67052  20.800  23.100  17.000
 3766DOPG   C1B67053  21.250  23.910  16.300
 3766DOPG   D2B67054  21.070  24.230  16.450
 3766DOPG   C3B67055  21.060  24.310  16.820
 3766DOPG   C4B67056  21.210  24.450  17.200
 3767DOPG   GL067057  17.240  23.220  14.920
 3767DOPG   PO467058  17.370  23.600  15.110
 3767DOPG   GL167059  17.200  23.870  15.410
 3767DOPG   GL267060  16.940  23.690  15.570
 3767DOPG   C1A67061  16.960  24.150  15.720
 3767DOPG   D2A67062  16.500  24.230  15.670
 3767DOPG   C3A67063  16.110  24.060  15.840
 3767DOPG   C4A67064  15.740  24.310  15.700
 3767DOPG   C1B67065  16.580  23.790  15.830
 3767DOPG   D2B67066  16.330  23.620  15.940
 3767DOPG   C3B67067  16.080  23.760  16.320
 3767DOPG   C4B67068  15.690  23.700  16.530
 3768DOPG   GL067069  19.930  21.360  10.520
 3768DOPG   PO467070  20.060  21.250  10.910
 3768DOPG   GL167071  20.330  21.040  10.600
 3768DOPG   GL267072  20.680  21.220  10.820
 3768DOPG   C1A67073  20.370  20.930  10.170
 3768DOPG   D2A67074  20.740  20.950   9.820
 3768DOPG   C3A67075  21.150  20.980   9.920
 3768DOPG   C4A67076  21.370  20.910  10.330
 3768DOPG   C1B67077  20.890  20.900  10.510
 3768DOPG   D2B67078  21.060  20.500  10.260
 3768DOPG   C3B67079  21.280  20.520   9.860
 3768DOPG   C4B67080  21.680  20.300   9.750
 3769DOPG   GL067081  16.360  19.170  11.500
 3769DOPG   PO467082  16.030  19.420  11.440
 3769DOPG   GL167083  16.090  19.390  11.050
 3769DOPG   GL267084  16.090  19.680  10.710
 3769DOPG   C1A67085  16.120  19.050  10.790
 3769DOPG   D2A67086  15.710  19.080  10.420
 3769DOPG   C3A67087  15.620  18.830  10.230
 3769DOPG   C4A67088  15.370  18.450  10.180
 3769DOPG   C1B67089  15.880  19.530  10.480
 3769DOPG   D2B67090  15.410  19.430  10.210
 3769DOPG   C3B67091  15.350  19.290   9.800
 3769DOPG   C4B67092  15.130  18.830   9.670
 3770DOPG   GL067093  10.240  14.270  23.090
 3770DOPG   PO467094  10.140  14.570  22.700
 3770DOPG   GL167095  10.260  14.610  22.330
 3770DOPG   GL267096  10.350  14.960  22.200
 3770DOPG   C1A67097  10.430  14.600  21.890
 3770DOPG   D2A67098  10.700  14.750  21.600
 3770DOPG   C3A67099  10.550  14.920  21.240
 3770DOPG   C4A67100  10.470  14.660  20.930
 3770DOPG   C1B67101  10.300  15.100  21.680
 3770DOPG   D2B67102  10.090  14.960  21.390
 3770DOPG   C3B67103  10.200  14.590  21.410
 3770DOPG   C4B67104  10.280  14.200  21.570
 3771DOPG   GL067105  13.760  18.590  13.420
 3771DOPG   PO467106  14.190  18.620  13.480
 3771DOPG   GL167107  13.940  18.440  13.860
 3771DOPG   GL267108  13.550  18.720  13.900
 3771DOPG   C1A67109  14.120  18.420  14.310
 3771DOPG   D2A67110  14.090  18.030  14.610
 3771DOPG   C3A67111  13.790  18.080  14.920
 3771DOPG   C4A67112  13.980  18.300  15.330
 3771DOPG   C1B67113  13.670  18.650  14.330
 3771DOPG   D2B67114  13.690  19.010  14.780
 3771DOPG   C3B67115  13.250  18.880  15.020
 3771DOPG   C4B67116  13.020  19.140  15.280
 3772DOPG   GL067117  16.310  23.330  12.330
 3772DOPG   PO467118  16.410  23.690  12.140
 3772DOPG   GL167119  16.000  23.970  12.240
 3772DOPG   GL267120  15.750  23.970  12.000
 3772DOPG   C1A67121  15.610  24.300  12.340
 3772DOPG   D2A67122  15.540  24.570  12.670
 3772DOPG   C3A67123  15.120  24.750  12.760
 3772DOPG   C4A67124  14.820  24.920  12.440
 3772DOPG   C1B67125  15.220  24.140  12.020
 3772DOPG   D2B67126  15.110  24.430  12.190
 3772DOPG   C3B67127  15.020  24.770  11.960
 3772DOPG   C4B67128  15.150  24.970  11.700
  37.99149  37.99149  27.00495
